Title
82255
    1SAPS     N    1   3.843   1.098  11.156 -0.5475  0.2855  0.6159
    1SAPS   HN1    2   3.858   1.033  11.076 -0.4890 -0.5922  1.3473
    1SAPS   HN2    3   3.747   1.139  11.153 -1.2711 -1.4377 -0.2015
    1SAPS   HN3    4   3.907   1.180  11.153 -0.6230  0.3215 -0.2935
    1SAPS   C12    5   3.851   1.026  11.279 -0.5476  0.2475 -0.3512
    1SAPS  H12A    6   3.948   0.981  11.277 -0.5077  0.3562 -1.4959
    1SAPS   C13    7   3.841   1.117  11.405 -0.6323 -0.4023  0.3317
    1SAPS  O13A    8   3.768   1.221  11.415  0.7588  0.5155  0.4156
    1SAPS  O13B    9   3.892   1.071  11.509  1.0189 -0.5384 -0.3835
    1SAPS   C11   10   3.737   0.923  11.287  0.0330  0.1613  0.0611
    1SAPS  H11A   11   3.642   0.976  11.265 -1.3562 -1.8241  1.0948
    1SAPS  H11B   12   3.736   0.883  11.391 -0.0156  0.5885  0.2268
    1SAPS     P   13   3.733   0.670  11.209 -0.5042 -0.1931  0.2872
    1SAPS   O13   14   3.868   0.613  11.179 -0.6381 -0.8376  0.3873
    1SAPS   O14   15   3.672   0.637  11.334  0.4143 -0.0301 -0.7602
    1SAPS   O12   16   3.740   0.825  11.184  0.1830 -0.3491 -0.1844
    1SAPS   O11   17   3.638   0.622  11.091 -0.1014 -0.2451 -0.3614
    1SAPS    C1   18   3.532   0.705  11.029  0.3962  0.0592  1.1429
    1SAPS    HA   19   3.437   0.649  11.044  0.6057 -0.6580 -0.1553
    1SAPS    HB   20   3.530   0.807  11.072  1.6408  0.9669 -0.9023
    1SAPS    C2   21   3.547   0.720  10.879  0.3065 -0.1800 -0.0927
    1SAPS    HS   22   3.467   0.788  10.844 -0.9940 -1.5873  0.0941
    1SAPS   O21   23   3.555   0.597  10.806 -0.6158 -0.1571 -0.1457
    1SAPS   C21   24   3.444   0.528  10.799  0.3485 -0.2228  0.6272
    1SAPS   O22   25   3.337   0.551  10.856  0.1748  0.2650 -0.3131
    1SAPS   C22   26   3.465   0.408  10.699 -0.2630 -0.7192 -0.3120
    1SAPS   H2R   27   3.575   0.397  10.700 -0.2891 -0.9621  0.1616
    1SAPS   H2S   28   3.426   0.320  10.755 -2.1323  0.7436  0.7547
    1SAPS    C3   29   3.668   0.803  10.842  0.6335 -0.1625  0.0128
    1SAPS    HX   30   3.756   0.744  10.874  0.2138 -0.6459  0.2889
    1SAPS    HY   31   3.662   0.898  10.900  0.0230 -0.3739  0.3005
    1SAPS   O31   32   3.677   0.843  10.704 -0.1942 -0.2421 -0.7064
    1SAPS   C31   33   3.799   0.868  10.657  0.8982 -0.1914  1.0812
    1SAPS   O32   34   3.897   0.875  10.728  0.0545 -0.2820  0.5069
    1SAPS   C32   35   3.800   0.884  10.510  0.0269  0.5083  0.1966
    1SAPS   H2X   36   3.813   0.990  10.479  1.6712  0.1898 -0.2320
    1SAPS   H2Y   37   3.700   0.858  10.469  0.6546  2.3170 -2.5905
    1SAPS   C23   38   3.412   0.438  10.560  0.4344 -0.7781 -0.0747
    1SAPS   H3R   39   3.310   0.482  10.571  1.1439  0.6047  1.1695
    1SAPS   H3S   40   3.399   0.337  10.515 -0.8227  1.1414 -4.3222
    1SAPS   C24   41   3.504   0.510  10.464 -0.2242 -0.1173 -0.0803
    1SAPS   H4R   42   3.535   0.603  10.517 -0.3523 -1.0866  1.7152
    1SAPS   H4S   43   3.446   0.532  10.372  0.0956 -0.7356 -0.4320
    1SAPS   C25   44   3.629   0.430  10.432 -0.2798  0.2261  0.2749
    1SAPS   H5R   45   3.707   0.431  10.509  0.0757  2.0545 -0.0898
    1SAPS   C26   46   3.654   0.382  10.312  0.5594 -1.1037  0.0400
    1SAPS   H6R   47   3.745   0.320  10.306  2.6117  1.8149 -0.0437
    1SAPS   C27   48   3.580   0.379  10.188 -0.1090 -0.1199 -0.0016
    1SAPS   H7R   49   3.475   0.401  10.219  0.3306 -0.1684  1.5588
    1SAPS   H7S   50   3.582   0.279  10.140  0.8556 -0.1556  0.1090
    1SAPS   C28   51   3.629   0.481  10.094 -0.9474  0.2748  0.9605
    1SAPS   H8R   52   3.653   0.578  10.140 -0.8652 -0.1721  1.8864
    1SAPS   C29   53   3.639   0.463   9.959  0.7466 -0.0181  0.0106
    1SAPS   H9R   54   3.663   0.552   9.899  0.1443 -0.0405 -0.2666
    1SAPS  C210   55   3.617   0.342   9.870  0.8699 -0.2753 -0.6238
    1SAPS  H10R   56   3.564   0.268   9.933 -0.9135  0.8319 -0.7904
    1SAPS  H10S   57   3.719   0.312   9.839  0.9002 -0.4584 -0.3488
    1SAPS  C211   58   3.528   0.385   9.756  0.0872  0.3995 -0.4454
    1SAPS  H11R   59   3.435   0.433   9.789 -1.1183 -0.7848 -2.0251
    1SAPS  C212   60   3.555   0.369   9.629 -0.0498 -0.6184  0.3213
    1SAPS  H12R   61   3.476   0.387   9.555 -1.3455 -2.2236  1.2888
    1SAPS  C213   62   3.677   0.298   9.563  0.3821 -0.3972 -0.2542
    1SAPS  H13R   63   3.729   0.230   9.635  1.1796 -1.0138 -1.4046
    1SAPS  H13S   64   3.750   0.377   9.537  0.5039 -0.3660  0.1661
    1SAPS  C214   65   3.639   0.223   9.436 -0.1635  0.3075 -0.3879
    1SAPS  H14R   66   3.540   0.177   9.446 -0.0636 -0.0261 -0.9183
    1SAPS  C215   67   3.696   0.237   9.313  0.1549 -0.1895 -0.2927
    1SAPS  H15R   68   3.657   0.173   9.232  1.0947 -1.7211  0.4319
    1SAPS  C216   69   3.814   0.323   9.278 -0.0770 -0.0410  0.1167
    1SAPS  H16R   70   3.881   0.256   9.221 -1.0310 -0.7778 -0.1567
    1SAPS  H16S   71   3.864   0.371   9.365  0.9432  1.3498 -1.2310
    1SAPS  C217   72   3.770   0.426   9.173  0.3224  0.1017  0.1540
    1SAPS  H17R   73   3.841   0.510   9.157  0.4326 -0.1275 -0.5758
    1SAPS  H17S   74   3.675   0.479   9.194  1.6706  2.2302  0.9827
    1SAPS  C218   75   3.752   0.362   9.035 -0.7075  0.3563  0.6104
    1SAPS  H18R   76   3.663   0.295   9.039 -0.4656  0.1478  2.6536
    1SAPS  H18S   77   3.843   0.304   9.010 -1.5200 -1.8155  2.5367
    1SAPS  C219   78   3.720   0.462   8.924 -0.1563  0.3500 -0.6188
    1SAPS  H19R   79   3.805   0.530   8.904 -0.0907 -0.3449 -2.8386
    1SAPS  H19S   80   3.632   0.525   8.952 -0.8497  0.1261 -2.2634
    1SAPS  C220   81   3.687   0.403   8.790  0.7603  0.4578 -0.0929
    1SAPS  H20R   82   3.593   0.343   8.792  1.0197  0.0648  0.3767
    1SAPS  H20S   83   3.768   0.338   8.751 -2.0059 -3.5694  0.5797
    1SAPS  H20T   84   3.681   0.497   8.730 -0.7797  1.5377  1.6827
    1SAPS   C33   85   3.903   0.786  10.444 -0.6845 -0.4375 -0.9013
    1SAPS   H3X   86   3.877   0.687  10.487 -3.1569  0.1007 -1.1032
    1SAPS   H3Y   87   4.009   0.808  10.471 -1.2948  0.7442  0.6567
    1SAPS   C34   88   3.890   0.770  10.297 -0.6076  0.5024 -0.3513
    1SAPS   H4X   89   3.939   0.861  10.259 -1.2800  1.5179  1.1328
    1SAPS   H4Y   90   3.786   0.758  10.260 -1.1597 -1.1880  1.6257
    1SAPS   C35   91   3.973   0.643  10.264 -0.0649  0.6373  0.0697
    1SAPS   H5X   92   3.928   0.559  10.321 -1.0447  0.6727 -0.6253
    1SAPS   H5Y   93   4.070   0.662  10.314 -0.4371  0.3628  0.9015
    1SAPS   C36   94   3.980   0.605  10.115 -0.1288  0.2764 -0.8587
    1SAPS   H6X   95   4.034   0.683  10.057  3.5514 -1.1053  0.5689
    1SAPS   H6Y   96   3.881   0.599  10.067  0.4014 -0.0308 -1.9227
    1SAPS   C37   97   4.049   0.470  10.083 -0.0537 -0.6821  0.4870
    1SAPS   H7X   98   3.985   0.405  10.145  0.3236  1.1607  2.8992
    1SAPS   H7Y   99   4.153   0.470  10.122 -0.1258  0.4558  0.7071
    1SAPS   C38  100   4.065   0.433   9.929 -0.1200  0.5192  0.5706
    1SAPS   H8X  101   3.968   0.435   9.875  0.9272 -0.2789 -1.4139
    1SAPS   H8Y  102   4.088   0.325   9.943 -1.3918  0.0928 -0.5582
    1SAPS   C39  103   4.183   0.506   9.865  0.5364  1.2480 -0.1348
    1SAPS   H9X  104   4.281   0.500   9.917  0.7379  0.6276 -0.5779
    1SAPS   H9Y  105   4.154   0.613   9.866 -1.4872  0.8620 -4.2291
    1SAPS  C310  106   4.209   0.453   9.722  0.1809 -0.4194 -0.2449
    1SAPS  H10X  107   4.222   0.343   9.721  1.6296 -0.2755  1.1856
    1SAPS  H10Y  108   4.306   0.487   9.682 -0.8201  1.4541 -1.1408
    1SAPS  C311  109   4.091   0.492   9.623  0.7095 -0.1561  0.8817
    1SAPS  H11X  110   4.056   0.597   9.619 -2.0604 -1.1328 -3.0104
    1SAPS  H11Y  111   4.008   0.422   9.645 -1.0999  1.2246 -1.4107
    1SAPS  C312  112   4.122   0.444   9.477 -0.3881 -0.0005  0.5368
    1SAPS  H12X  113   4.038   0.472   9.410  0.0883  0.5629  0.1655
    1SAPS  H12Y  114   4.129   0.333   9.480 -2.8387 -0.2593 -1.4547
    1SAPS  C313  115   4.252   0.492   9.409 -0.6926 -0.2684 -0.9790
    1SAPS  H13X  116   4.351   0.472   9.455 -0.1441  0.5525 -1.7851
    1SAPS  H13Y  117   4.248   0.603   9.405 -2.1752 -0.2004  1.3332
    1SAPS  C314  118   4.257   0.430   9.269  0.6975 -0.1743  0.4324
    1SAPS  H14X  119   4.175   0.469   9.206  2.0255 -1.6798 -2.3554
    1SAPS  H14Y  120   4.243   0.320   9.273  0.6151 -0.2825 -1.7458
    1SAPS  C315  121   4.387   0.459   9.184 -0.2132  0.3755  0.2650
    1SAPS  H15X  122   4.472   0.400   9.225  1.0221  0.7968 -1.6186
    1SAPS  H15Y  123   4.421   0.565   9.180 -0.0667  0.3612  1.0137
    1SAPS  C316  124   4.366   0.430   9.032 -0.4202 -0.6816 -0.3742
    1SAPS  H16X  125   4.294   0.500   8.984  0.6981  2.1393  1.8931
    1SAPS  H16Y  126   4.319   0.330   9.028 -1.7080 -0.3552  4.1727
    1SAPS  C317  127   4.497   0.407   8.951  0.1621 -0.0998  0.3272
    1SAPS  H17X  128   4.550   0.318   8.992 -0.9895 -0.2433  1.5410
    1SAPS  H17Y  129   4.557   0.499   8.965 -1.8636  1.4303 -0.8130
    1SAPS  C318  130   4.458   0.390   8.800  0.0672 -0.3583  0.8967
    1SAPS  H18X  131   4.400   0.482   8.775  0.7739  0.1838  1.2119
    1SAPS  H18Y  132   4.407   0.295   8.775  0.8726 -0.6656  0.4152
    1SAPS  H18Z  133   4.541   0.374   8.728 -0.6761 -1.6628  0.3120
    2SAPS     N  134   1.793   6.391  10.969  0.5011  0.2334 -0.0175
    2SAPS   HN1  135   1.875   6.331  10.949  0.0106 -0.5661  0.3398
    2SAPS   HN2  136   1.779   6.387  11.072  1.8397  0.2058  0.1695
    2SAPS   HN3  137   1.709   6.351  10.923 -1.3002  6.2385 -2.4135
    2SAPS   C12  138   1.818   6.531  10.941  0.5741  0.2304  0.3931
    2SAPS  H12A  139   1.732   6.592  10.960  0.9081  0.6631  0.5249
    2SAPS   C13  140   1.921   6.591  11.035  0.4592 -0.5745 -0.1402
    2SAPS  O13A  141   1.981   6.525  11.127 -0.6820 -0.5176 -0.1232
    2SAPS  O13B  142   1.933   6.718  11.043 -0.0318  0.5864 -0.3941
    2SAPS   C11  143   1.865   6.556  10.798 -0.5630 -0.1504  0.0907
    2SAPS  H11A  144   1.951   6.487  10.782 -1.0103 -0.7670  0.3228
    2SAPS  H11B  145   1.899   6.660  10.782  1.5794 -0.9927 -1.0050
    2SAPS     P  146   1.654   6.619  10.659 -0.0688 -0.1281  0.0102
    2SAPS   O13  147   1.537   6.544  10.598 -0.2529 -0.1228  0.1440
    2SAPS   O14  148   1.625   6.703  10.781  0.3677  0.6349 -0.5389
    2SAPS   O12  149   1.762   6.514  10.703 -0.2041 -0.3067 -0.0095
    2SAPS   O11  150   1.721   6.713  10.551  0.4570 -0.0209 -0.1533
    2SAPS    C1  151   1.795   6.648  10.446 -0.3313  0.2894 -0.0614
    2SAPS    HA  152   1.860   6.729  10.407  0.3671 -0.3789 -0.3112
    2SAPS    HB  153   1.864   6.573  10.490  1.1486  1.2451 -0.6925
    2SAPS    C2  154   1.715   6.601  10.323  0.2070 -0.4552 -0.6252
    2SAPS    HS  155   1.663   6.508  10.353  1.3918 -0.4556  1.5392
    2SAPS   O21  156   1.812   6.579  10.219  0.6019  0.1639 -0.0047
    2SAPS   C21  157   1.877   6.463  10.229 -0.3931 -0.0254  0.2704
    2SAPS   O22  158   1.858   6.377  10.312 -0.2465  0.0348 -0.0473
    2SAPS   C22  159   2.000   6.452  10.136  0.4788 -0.6033  0.1085
    2SAPS   H2R  160   2.086   6.397  10.180 -0.5546 -2.7837 -0.5554
    2SAPS   H2S  161   1.977   6.390  10.047 -2.9429  0.0296  0.4896
    2SAPS    C3  162   1.613   6.707  10.279 -0.1711 -0.2478  0.1282
    2SAPS    HX  163   1.676   6.787  10.236 -0.0838 -0.4204 -0.0642
    2SAPS    HY  164   1.545   6.743  10.360 -0.0974 -1.1250  0.5907
    2SAPS   O31  165   1.528   6.658  10.171  0.1408  0.7746  0.0168
    2SAPS   C31  166   1.453   6.742  10.098 -0.2480 -0.8763 -0.2976
    2SAPS   O32  167   1.425   6.857  10.140  0.5307  0.1752 -0.2150
    2SAPS   C32  168   1.404   6.671   9.971 -0.1478  0.3247 -0.8842
    2SAPS   H2X  169   1.357   6.752   9.911 -0.6827 -0.6064 -1.7352
    2SAPS   H2Y  170   1.330   6.595  10.003  0.4310  0.8760  1.9079
    2SAPS   C23  171   2.060   6.595  10.103  0.0949  0.3022  0.2338
    2SAPS   H3R  172   2.091   6.642  10.199  0.1830 -3.6435  2.2156
    2SAPS   H3S  173   1.988   6.662  10.051 -1.3486 -1.2998  0.1471
    2SAPS   C24  174   2.194   6.593  10.024  0.1045 -1.2690 -0.7072
    2SAPS   H4R  175   2.173   6.526   9.937 -1.8595 -0.1747 -1.1127
    2SAPS   H4S  176   2.263   6.530  10.085 -0.3287 -1.4853 -0.4410
    2SAPS   C25  177   2.267   6.721   9.984  0.1829  0.7088 -0.4386
    2SAPS   H5R  178   2.318   6.776  10.065 -2.0529  0.5529  1.1123
    2SAPS   C26  179   2.283   6.773   9.859 -0.4135 -0.2492  0.3843
    2SAPS   H6R  180   2.346   6.861   9.839  1.1419 -0.9924  1.8968
    2SAPS   C27  181   2.211   6.716   9.734  0.0434  0.4384 -1.2347
    2SAPS   H7R  182   2.201   6.800   9.662 -0.2641 -0.2869 -2.0467
    2SAPS   H7S  183   2.106   6.687   9.755 -0.4765  2.3572 -1.0791
    2SAPS   C28  184   2.271   6.592   9.677 -0.2280  0.2110 -0.0192
    2SAPS   H8R  185   2.272   6.504   9.743  0.0999 -0.0631 -0.3916
    2SAPS   C29  186   2.312   6.576   9.550  0.0824 -0.1258 -0.4725
    2SAPS   H9R  187   2.349   6.475   9.525 -0.4953 -0.2970 -0.6384
    2SAPS  C210  188   2.325   6.680   9.438 -0.4698 -0.0855 -0.6953
    2SAPS  H10R  189   2.405   6.750   9.468 -1.1890  0.2417  0.4774
    2SAPS  H10S  190   2.238   6.748   9.439 -0.8419 -0.5666  0.0647
    2SAPS  C211  191   2.348   6.624   9.299 -0.1584 -0.0735 -0.6630
    2SAPS  H11R  192   2.451   6.600   9.272  1.0805  3.2834  0.8371
    2SAPS  C212  193   2.253   6.583   9.217  0.0250 -0.1189  0.4106
    2SAPS  H12R  194   2.280   6.542   9.119 -0.5004  0.1436  0.1569
    2SAPS  C213  195   2.107   6.589   9.238  0.0259  0.9278  0.1618
    2SAPS  H13R  196   2.062   6.659   9.164  3.7267  1.8860 -1.2819
    2SAPS  H13S  197   2.080   6.651   9.326  0.5841  0.4992  0.6350
    2SAPS  C214  198   2.032   6.458   9.236  0.0472 -0.3256  0.0506
    2SAPS  H14R  199   2.046   6.409   9.138  2.2791  0.5901 -0.1153
    2SAPS  C215  200   1.961   6.398   9.339  0.4318  0.4882 -0.2233
    2SAPS  H15R  201   1.914   6.301   9.317  2.1421 -0.1653 -1.1000
    2SAPS  C216  202   1.941   6.451   9.479 -0.6271 -0.4605  0.4668
    2SAPS  H16R  203   1.851   6.514   9.494 -0.0068  0.8471 -1.2130
    2SAPS  H16S  204   2.031   6.511   9.503 -1.6319  0.4158  2.1579
    2SAPS  C217  205   1.936   6.336   9.580 -0.4892  0.0628  0.2730
    2SAPS  H17R  206   1.838   6.285   9.588 -0.3855 -0.5053 -1.6999
    2SAPS  H17S  207   1.949   6.390   9.676 -1.2682  0.3250  0.2305
    2SAPS  C218  208   2.062   6.242   9.563  0.5755  0.0951  0.5212
    2SAPS  H18R  209   2.150   6.307   9.548  0.7848 -0.2978  0.0114
    2SAPS  H18S  210   2.051   6.193   9.463  1.6453 -0.3657  0.6266
    2SAPS  C219  211   2.080   6.145   9.672 -0.0168  0.6892 -0.2490
    2SAPS  H19R  212   1.999   6.069   9.677  0.1238  0.5082 -0.6889
    2SAPS  H19S  213   2.071   6.202   9.767 -0.2353  0.6049 -0.2190
    2SAPS  C220  214   2.209   6.060   9.675  0.3369 -0.2535 -0.0725
    2SAPS  H20R  215   2.224   5.995   9.586 -0.2974 -1.5040  0.7138
    2SAPS  H20S  216   2.208   5.980   9.752  0.8878 -0.6139 -0.4363
    2SAPS  H20T  217   2.300   6.120   9.696  0.2252 -0.4168  0.9169
    2SAPS   C33  218   1.526   6.615   9.894  0.4691  0.3746  0.7934
    2SAPS   H3X  219   1.600   6.553   9.950 -0.0783  0.4787  1.6477
    2SAPS   H3Y  220   1.577   6.705   9.854  0.2699 -0.4392 -1.3560
    2SAPS   C34  221   1.479   6.543   9.768 -0.2331 -0.1791  0.4778
    2SAPS   H4X  222   1.393   6.595   9.722 -0.7275 -0.1547  1.4194
    2SAPS   H4Y  223   1.455   6.440   9.804 -0.9481 -0.5150 -0.9130
    2SAPS   C35  224   1.595   6.521   9.668  0.0881  0.9075  0.2211
    2SAPS   H5X  225   1.690   6.490   9.717 -0.2859 -2.3501 -0.9929
    2SAPS   H5Y  226   1.615   6.618   9.619 -1.4427 -0.0548 -2.4209
    2SAPS   C36  227   1.566   6.418   9.559 -0.4147 -0.9206 -0.1167
    2SAPS   H6X  228   1.506   6.334   9.600 -0.2553  0.1321  2.3198
    2SAPS   H6Y  229   1.662   6.387   9.511 -0.1471 -0.2264 -0.0360
    2SAPS   C37  230   1.472   6.473   9.443  0.0698 -0.1997 -0.3912
    2SAPS   H7X  231   1.491   6.581   9.428  0.7093 -0.4498 -1.4661
    2SAPS   H7Y  232   1.372   6.470   9.490 -0.0413 -0.3538 -0.6343
    2SAPS   C38  233   1.475   6.399   9.310  0.1607  0.1359 -0.0264
    2SAPS   H8X  234   1.397   6.436   9.239  1.1072 -0.6077 -1.4942
    2SAPS   H8Y  235   1.461   6.291   9.333  1.4080 -0.2347 -0.9662
    2SAPS   C39  236   1.610   6.419   9.237 -0.0467  0.0135 -0.3462
    2SAPS   H9X  237   1.684   6.350   9.283 -0.7715  0.0405  0.8829
    2SAPS   H9Y  238   1.641   6.520   9.273  0.9581 -0.5032  0.2786
    2SAPS  C310  239   1.598   6.414   9.085 -0.1220 -0.3281  0.5470
    2SAPS  H10X  240   1.503   6.457   9.047  0.2319  2.0544  2.3024
    2SAPS  H10Y  241   1.594   6.311   9.043 -1.7541  0.2086 -0.6789
    2SAPS  C311  242   1.704   6.497   9.010 -0.3281  0.2881  0.0942
    2SAPS  H11X  243   1.804   6.483   9.055 -0.9534 -1.8961  0.8657
    2SAPS  H11Y  244   1.685   6.605   9.028  0.8292  0.7144 -1.2155
    2SAPS  C312  245   1.704   6.466   8.859 -0.3541  0.3528 -0.3627
    2SAPS  H12X  246   1.601   6.458   8.819  0.6345  3.1528 -3.6987
    2SAPS  H12Y  247   1.752   6.366   8.854 -1.6121 -0.2255 -0.8351
    2SAPS  C313  248   1.786   6.559   8.778  0.2966  0.6962  0.3448
    2SAPS  H13X  249   1.745   6.660   8.802  2.3338  1.6970 -0.1807
    2SAPS  H13Y  250   1.766   6.526   8.675 -1.5585  1.4134  0.4619
    2SAPS  C314  251   1.942   6.545   8.789 -0.2110 -0.2592  0.3593
    2SAPS  H14X  252   1.966   6.440   8.760 -2.6480 -0.8410  0.3354
    2SAPS  H14Y  253   1.985   6.559   8.890 -0.7846 -1.9553  0.8524
    2SAPS  C315  254   2.004   6.640   8.687  0.6341 -0.1320  0.3134
    2SAPS  H15X  255   1.984   6.746   8.714 -2.8641 -0.4343 -0.8994
    2SAPS  H15Y  256   1.972   6.619   8.583  1.1960  0.6335 -0.0206
    2SAPS  C316  257   2.159   6.650   8.690 -0.2026 -0.2346  0.1275
    2SAPS  H16X  258   2.189   6.702   8.783  1.3257  0.2109 -0.5885
    2SAPS  H16Y  259   2.183   6.713   8.601 -1.5951  1.3777  0.8642
    2SAPS  C317  260   2.227   6.512   8.690  0.0864 -0.0952  0.3180
    2SAPS  H17X  261   2.180   6.448   8.613 -0.0744  0.3964  0.0041
    2SAPS  H17Y  262   2.200   6.461   8.784 -1.3401 -1.0021 -0.5643
    2SAPS  C318  263   2.379   6.527   8.663  0.5838 -0.3326  0.4799
    2SAPS  H18X  264   2.419   6.585   8.748  1.6667  0.3191 -0.4590
    2SAPS  H18Y  265   2.402   6.573   8.564 -1.9625  3.0469  1.3367
    2SAPS  H18Z  266   2.422   6.425   8.661  1.4268  0.0031  1.2985
    3SAPS     N  267   1.987   1.749  10.921 -0.0299 -0.6631  0.3892
    3SAPS   HN1  268   2.082   1.706  10.916  1.0752  1.3316  2.9841
    3SAPS   HN2  269   1.908   1.682  10.936  0.3462 -0.9265  1.1997
    3SAPS   HN3  270   1.969   1.764  10.820 -0.5986  0.0073  0.5867
    3SAPS   C12  271   1.989   1.876  11.002  0.0137  0.2312 -0.0144
    3SAPS  H12A  272   1.888   1.913  11.014 -1.2388 -2.7477 -0.9536
    3SAPS   C13  273   2.053   1.863  11.137  0.3054 -0.3200 -0.1349
    3SAPS  O13A  274   2.105   1.748  11.160 -0.1741  0.1981 -0.3024
    3SAPS  O13B  275   2.045   1.950  11.226 -0.6181  0.0198 -0.0115
    3SAPS   C11  276   2.050   1.996  10.918 -0.1598  0.2813  0.3905
    3SAPS  H11A  277   2.030   2.089  10.974 -0.3062 -0.7510  2.0861
    3SAPS  H11B  278   2.005   2.007  10.817  1.4281  2.4598 -0.1099
    3SAPS     P  279   2.284   2.086  10.870 -0.1483 -0.0282  0.3330
    3SAPS   O13  280   2.289   2.176  10.986 -0.1260 -0.3604  0.5957
    3SAPS   O14  281   2.416   2.020  10.841  0.4922  0.0606 -0.0852
    3SAPS   O12  282   2.184   1.974  10.895  0.0284  0.8536 -0.0580
    3SAPS   O11  283   2.236   2.157  10.740 -0.0585 -0.2125 -0.3518
    3SAPS    C1  284   2.172   2.096  10.631 -0.4066 -0.2210  0.0254
    3SAPS    HA  285   2.156   1.988  10.649 -2.0365  0.7744  5.3391
    3SAPS    HB  286   2.067   2.132  10.636  0.0411  1.0195  0.6399
    3SAPS    C2  287   2.233   2.142  10.496  0.5157  0.1093  0.3941
    3SAPS    HS  288   2.340   2.114  10.491  0.6137  0.0833  2.3663
    3SAPS   O21  289   2.216   2.288  10.482 -0.6386  0.8257 -0.2754
    3SAPS   C21  290   2.287   2.352  10.389  0.3014 -0.2165 -0.0709
    3SAPS   O22  291   2.384   2.310  10.327 -0.2218  0.3331 -0.6946
    3SAPS   C22  292   2.227   2.491  10.370 -0.0712 -0.6898  0.6109
    3SAPS   H2R  293   2.167   2.520  10.459  1.1226  1.9493  0.5964
    3SAPS   H2S  294   2.312   2.563  10.370 -0.2767 -0.4471  0.8699
    3SAPS    C3  295   2.167   2.053  10.378 -0.7030  0.1516  0.6174
    3SAPS    HX  296   2.059   2.047  10.403 -0.5790 -1.9642  0.6696
    3SAPS    HY  297   2.194   1.946  10.382 -0.4650  0.2336  1.2649
    3SAPS   O31  298   2.168   2.103  10.237  0.1709  0.3062  0.2125
    3SAPS   C31  299   2.274   2.081  10.167 -0.5805  0.1194 -0.4332
    3SAPS   O32  300   2.371   2.015  10.198 -0.0878  0.4590 -0.6493
    3SAPS   C32  301   2.246   2.139  10.031 -0.4839  0.2552 -0.2042
    3SAPS   H2X  302   2.206   2.240  10.052  0.0342  0.3067  0.5582
    3SAPS   H2Y  303   2.165   2.073   9.992  0.5907 -0.8835 -0.5387
    3SAPS   C23  304   2.154   2.506  10.239 -0.7605  0.0961 -0.0522
    3SAPS   H3R  305   2.053   2.461  10.251 -0.9218  0.4050 -0.2429
    3SAPS   H3S  306   2.209   2.453  10.159 -0.8064 -0.0423  0.0103
    3SAPS   C24  307   2.145   2.655  10.180 -0.1799 -0.0554  0.3533
    3SAPS   H4R  308   2.085   2.712  10.254 -0.2469 -2.0519  1.8707
    3SAPS   H4S  309   2.104   2.631  10.079  0.3213  0.6709 -0.0314
    3SAPS   C25  310   2.279   2.715  10.154  0.0764  0.1148 -0.2898
    3SAPS   H5R  311   2.350   2.717  10.238 -0.2123 -2.1216  0.0539
    3SAPS   C26  312   2.330   2.747  10.034 -0.4960  0.9179 -0.5807
    3SAPS   H6R  313   2.434   2.783  10.033 -0.4333  0.7276 -0.7681
    3SAPS   C27  314   2.265   2.741   9.899 -0.5825 -0.3401 -0.7040
    3SAPS   H7R  315   2.285   2.835   9.843  1.3473  0.3049  0.9888
    3SAPS   H7S  316   2.154   2.742   9.904 -0.6453  1.5485 -1.7916
    3SAPS   C28  317   2.303   2.616   9.821  0.2701 -0.0604 -0.5729
    3SAPS   H8R  318   2.279   2.521   9.872  1.3844 -0.5204 -0.8817
    3SAPS   C29  319   2.348   2.616   9.699  0.3781 -0.0394  0.0128
    3SAPS   H9R  320   2.336   2.519   9.649  0.9658 -0.5755  0.8958
    3SAPS  C210  321   2.372   2.734   9.602 -0.4552 -0.2505 -0.0057
    3SAPS  H10R  322   2.291   2.810   9.606 -0.4467 -0.1304 -1.7224
    3SAPS  H10S  323   2.372   2.701   9.496  0.0663  2.1850 -0.8011
    3SAPS  C211  324   2.491   2.823   9.639 -0.1939  0.2228  0.6384
    3SAPS  H11R  325   2.532   2.823   9.741  0.8388 -0.0860  0.2281
    3SAPS  C212  326   2.553   2.900   9.549 -0.0092 -0.6752 -0.2890
    3SAPS  H12R  327   2.645   2.953   9.576 -0.7746  0.7725 -0.4734
    3SAPS  C213  328   2.521   2.913   9.400  0.2141 -0.0775  0.2171
    3SAPS  H13R  329   2.498   3.020   9.384  1.1733 -0.2726 -2.9721
    3SAPS  H13S  330   2.438   2.848   9.362  1.6763 -1.4230 -0.7664
    3SAPS  C214  331   2.638   2.883   9.311  0.1191  0.1550  0.0322
    3SAPS  H14R  332   2.720   2.833   9.365  0.4593 -1.5383 -1.9772
    3SAPS  C215  333   2.640   2.886   9.175 -0.3664 -0.7543 -0.7681
    3SAPS  H15R  334   2.737   2.879   9.124  0.3516 -0.2696  0.5188
    3SAPS  C216  335   2.522   2.929   9.089  0.0960 -0.0980 -0.7297
    3SAPS  H16R  336   2.435   2.971   9.144 -0.4702 -0.2631 -1.4913
    3SAPS  H16S  337   2.490   2.838   9.034  2.4958 -0.5947 -1.3740
    3SAPS  C217  338   2.542   3.038   8.989 -0.6420 -0.1818  0.2588
    3SAPS  H17R  339   2.548   3.134   9.045  0.6639  0.6173 -1.2188
    3SAPS  H17S  340   2.455   3.059   8.924  1.5319 -0.7417 -2.9119
    3SAPS  C218  341   2.665   3.014   8.892  0.2364 -0.4930  0.6375
    3SAPS  H18R  342   2.758   2.983   8.944  1.2544 -0.5623 -1.1574
    3SAPS  H18S  343   2.687   3.110   8.840  1.5348 -1.3504 -0.4426
    3SAPS  C219  344   2.653   2.915   8.778  0.1087  0.7341 -0.0032
    3SAPS  H19R  345   2.638   2.809   8.806 -0.0573  0.7514 -0.0257
    3SAPS  H19S  346   2.746   2.914   8.718 -0.2655 -0.2274 -0.5680
    3SAPS  C220  347   2.545   2.967   8.685  0.0149  0.5794 -0.7012
    3SAPS  H20R  348   2.580   3.062   8.641 -1.3330  0.1655 -2.7256
    3SAPS  H20S  349   2.448   2.976   8.737  0.4766 -1.7296  0.6709
    3SAPS  H20T  350   2.537   2.900   8.597  1.6250  0.1346 -0.5309
    3SAPS   C33  351   2.371   2.140   9.945 -0.2221 -0.0640 -0.1949
    3SAPS   H3X  352   2.388   2.031   9.928 -1.2853 -0.1820 -0.5941
    3SAPS   H3Y  353   2.459   2.174  10.002 -1.1491  0.0503  1.1918
    3SAPS   C34  354   2.361   2.202   9.804 -0.2795  0.0122  0.0853
    3SAPS   H4X  355   2.351   2.311   9.823 -1.3893 -0.5342  2.8747
    3SAPS   H4Y  356   2.269   2.168   9.752 -1.0890  3.3187 -0.7733
    3SAPS   C35  357   2.491   2.178   9.726  0.1216  0.3539 -0.3207
    3SAPS   H5X  358   2.496   2.069   9.708 -0.6771  0.0113  1.3801
    3SAPS   H5Y  359   2.582   2.205   9.785  1.7628 -1.1241 -2.1112
    3SAPS   C36  360   2.492   2.263   9.602 -0.5711  0.1467 -0.0969
    3SAPS   H6X  361   2.471   2.366   9.637 -1.9008 -0.5372  1.1988
    3SAPS   H6Y  362   2.411   2.231   9.533 -1.4841  0.3051  0.8831
    3SAPS   C37  363   2.619   2.264   9.531 -0.0151 -0.1311  0.0815
    3SAPS   H7X  364   2.656   2.160   9.529  1.1941  0.2651  1.3768
    3SAPS   H7Y  365   2.702   2.306   9.591  0.6641  0.4638 -1.2537
    3SAPS   C38  366   2.624   2.327   9.388  0.1543  0.2256 -0.4391
    3SAPS   H8X  367   2.569   2.257   9.321  2.2800 -0.7847 -1.1698
    3SAPS   H8Y  368   2.729   2.341   9.356  0.8026 -0.2586  1.4258
    3SAPS   C39  369   2.547   2.457   9.364 -0.0985 -0.9211  0.3727
    3SAPS   H9X  370   2.577   2.546   9.424 -2.7995  0.6777 -0.5587
    3SAPS   H9Y  371   2.442   2.437   9.394 -0.4742 -1.9094 -1.5873
    3SAPS  C310  372   2.530   2.483   9.215 -0.8655  0.1540  0.2081
    3SAPS  H10X  373   2.487   2.586   9.209  0.1176  0.5953  0.4986
    3SAPS  H10Y  374   2.470   2.408   9.161  1.8234 -1.7364 -0.2264
    3SAPS  C311  375   2.663   2.499   9.136 -0.1994  0.0829 -0.9178
    3SAPS  H11X  376   2.716   2.402   9.132  0.6442  0.5968 -2.7982
    3SAPS  H11Y  377   2.731   2.581   9.167 -0.9356  0.4860 -0.3430
    3SAPS  C312  378   2.637   2.521   8.992  0.8952 -0.1612 -0.1843
    3SAPS  H12X  379   2.584   2.616   8.970  1.0374 -0.9470 -4.1703
    3SAPS  H12Y  380   2.570   2.451   8.938  0.5064  0.5231 -0.5984
    3SAPS  C313  381   2.766   2.510   8.905  1.3765 -0.1835 -0.2392
    3SAPS  H13X  382   2.833   2.596   8.928 -2.8530  2.6189  2.3136
    3SAPS  H13Y  383   2.735   2.519   8.799 -0.6854 -1.8105  0.2030
    3SAPS  C314  384   2.850   2.382   8.919  0.3591  0.1116  0.1947
    3SAPS  H14X  385   2.891   2.380   9.023 -1.5694  1.7768  1.0290
    3SAPS  H14Y  386   2.941   2.384   8.855  2.7717  2.2906  3.4763
    3SAPS  C315  387   2.779   2.256   8.869 -0.1367 -0.1984  0.1604
    3SAPS  H15X  388   2.763   2.261   8.760  0.4592  1.2869  0.1292
    3SAPS  H15Y  389   2.678   2.247   8.916 -1.4849 -0.3914 -2.6907
    3SAPS  C316  390   2.865   2.129   8.887  0.1678 -0.6791  0.2999
    3SAPS  H16X  391   2.966   2.154   8.849 -0.4822  0.7791 -0.5488
    3SAPS  H16Y  392   2.826   2.047   8.824  1.7571  0.5240 -2.3471
    3SAPS  C317  393   2.877   2.072   9.032 -0.6219  0.3136  0.7755
    3SAPS  H17X  394   2.915   2.148   9.104  1.7909  0.6500 -0.7873
    3SAPS  H17Y  395   2.920   1.970   9.030 -0.2828  0.4686  0.1166
    3SAPS  C318  396   2.731   2.058   9.084 -0.2506  0.2085  0.0199
    3SAPS  H18X  397   2.684   2.154   9.114 -0.5406 -0.2496  1.0514
    3SAPS  H18Y  398   2.736   2.005   9.181  0.3402 -0.1095 -0.1827
    3SAPS  H18Z  399   2.668   1.998   9.015  1.4733  0.5392 -1.8698
    4SAPS     N  400   4.016   3.794  10.948  0.4582  0.0977  0.6122
    4SAPS   HN1  401   4.010   3.779  11.050 -1.5509  2.0806  0.8339
    4SAPS   HN2  402   3.927   3.834  10.911 -0.5401 -1.9894  0.7190
    4SAPS   HN3  403   4.027   3.698  10.909 -2.6227 -0.1518  0.2564
    4SAPS   C12  404   4.136   3.884  10.938 -0.4424 -0.3744  0.3574
    4SAPS  H12A  405   4.157   3.913  10.836  3.0592  0.6875  1.3246
    4SAPS   C13  406   4.127   4.017  11.013  0.4300  0.7182  0.3018
    4SAPS  O13A  407   4.027   4.041  11.082  0.7092  0.8002  0.1980
    4SAPS  O13B  408   4.226   4.093  11.014 -0.6969  0.4735 -0.5838
    4SAPS   C11  409   4.269   3.804  10.974 -0.7555 -0.1965  0.6510
    4SAPS  H11A  410   4.279   3.786  11.083 -0.2040 -2.9230  0.1934
    4SAPS  H11B  411   4.358   3.869  10.959 -0.3940 -0.8166  0.0663
    4SAPS     P  412   4.345   3.646  10.782 -0.0805  0.6029 -0.0938
    4SAPS   O13  413   4.488   3.669  10.792  0.0909  0.2657 -0.2086
    4SAPS   O14  414   4.301   3.518  10.731 -0.2784  0.7801 -0.7363
    4SAPS   O12  415   4.264   3.671  10.912 -0.3348  0.0109 -0.7070
    4SAPS   O11  416   4.289   3.766  10.689  0.3017 -0.4629 -0.5707
    4SAPS    C1  417   4.201   3.749  10.577 -0.2751 -0.1039 -0.5909
    4SAPS    HA  418   4.103   3.698  10.587 -0.3499  0.1367 -0.0963
    4SAPS    HB  419   4.176   3.853  10.547  0.9487 -0.0974 -1.6768
    4SAPS    C2  420   4.261   3.683  10.450  0.4065 -0.1926  0.4956
    4SAPS    HS  421   4.284   3.583  10.492 -0.1602 -0.1410  0.9341
    4SAPS   O21  422   4.378   3.759  10.416 -0.3107  0.2531  0.2724
    4SAPS   C21  423   4.470   3.683  10.355 -0.1096  0.0520 -0.5533
    4SAPS   O22  424   4.468   3.560  10.339  0.3617  0.0766 -0.4278
    4SAPS   C22  425   4.578   3.786  10.289  0.0198  0.2609  0.3541
    4SAPS   H2R  426   4.517   3.876  10.266  0.3589  0.8443  1.6580
    4SAPS   H2S  427   4.645   3.811  10.374  2.0398 -1.3034 -0.7348
    4SAPS    C3  428   4.156   3.675  10.333 -0.2127  0.0295 -0.1232
    4SAPS    HX  429   4.145   3.780  10.299 -0.4134  0.1861  0.4244
    4SAPS    HY  430   4.060   3.643  10.379  0.5598 -0.1523  1.4049
    4SAPS   O31  431   4.199   3.589  10.228 -0.2783  0.2099  0.2729
    4SAPS   C31  432   4.188   3.458  10.249 -0.2616 -0.0798 -0.0744
    4SAPS   O32  433   4.132   3.400  10.341  0.4801 -0.0815  0.0319
    4SAPS   C32  434   4.238   3.384  10.130  0.2480  0.5241 -0.8533
    4SAPS   H2X  435   4.179   3.292  10.106  0.6836 -0.0292  0.1706
    4SAPS   H2Y  436   4.337   3.341  10.158 -0.2552  1.0133  1.8192
    4SAPS   C23  437   4.659   3.743  10.167  0.1007 -0.4497  0.7984
    4SAPS   H3R  438   4.716   3.650  10.185 -1.7358 -1.3230  2.3148
    4SAPS   H3S  439   4.732   3.825  10.146  1.6439 -1.9684  0.1419
    4SAPS   C24  440   4.577   3.719  10.041 -0.4980 -0.6694  0.4636
    4SAPS   H4R  441   4.507   3.638  10.070  0.5544 -0.4732  3.7823
    4SAPS   H4S  442   4.640   3.668   9.964 -0.1335 -0.9921  0.9729
    4SAPS   C25  443   4.504   3.841   9.997  0.1662  0.2537 -0.0815
    4SAPS   H5R  444   4.462   3.899  10.080 -1.3366 -1.1494  0.1746
    4SAPS   C26  445   4.475   3.898   9.876 -0.1224 -0.5763 -0.5123
    4SAPS   H6R  446   4.409   3.985   9.884 -1.6468 -1.8767  1.4325
    4SAPS   C27  447   4.533   3.859   9.743  0.2840  0.4291  0.2179
    4SAPS   H7R  448   4.462   3.858   9.657 -0.9326  0.5930  1.2099
    4SAPS   H7S  449   4.554   3.750   9.748 -2.0708 -0.1402 -0.9795
    4SAPS   C28  450   4.660   3.927   9.710 -1.8334 -0.0166 -0.1806
    4SAPS   H8R  451   4.723   3.949   9.798  0.0330  0.5283 -1.6321
    4SAPS   C29  452   4.702   3.971   9.589  0.3218  0.6880 -0.6044
    4SAPS   H9R  453   4.797   4.023   9.570 -0.0536  1.6644  0.2001
    4SAPS  C210  454   4.616   3.962   9.465  0.1801  0.0436 -0.6115
    4SAPS  H10R  455   4.530   4.031   9.475  0.1027  0.0423 -1.2244
    4SAPS  H10S  456   4.567   3.863   9.451 -0.7541  0.0738  2.1037
    4SAPS  C211  457   4.678   4.019   9.338 -0.1122  0.1425 -0.1224
    4SAPS  H11R  458   4.763   4.085   9.361 -1.7471  1.0528  3.6635
    4SAPS  C212  459   4.653   3.980   9.211  0.0140 -0.4928 -0.0052
    4SAPS  H12R  460   4.694   4.043   9.131 -3.3208 -0.8407 -2.0838
    4SAPS  C213  461   4.551   3.883   9.162  0.4607 -0.1038 -0.2767
    4SAPS  H13R  462   4.456   3.931   9.130 -0.2371 -0.3472  1.3880
    4SAPS  H13S  463   4.509   3.825   9.246 -2.2221  0.3221 -1.2550
    4SAPS  C214  464   4.609   3.785   9.055 -0.5622  0.8423  0.0073
    4SAPS  H14R  465   4.653   3.695   9.099 -1.5878  1.1497  1.7397
    4SAPS  C215  466   4.599   3.799   8.924 -0.0437  0.1038 -0.0587
    4SAPS  H15R  467   4.649   3.729   8.856 -1.3332 -0.1019 -0.8142
    4SAPS  C216  468   4.530   3.914   8.853  0.1533  0.3117  0.4985
    4SAPS  H16R  469   4.499   3.990   8.928  1.4476  0.1349  1.2194
    4SAPS  H16S  470   4.435   3.883   8.804  0.6281  0.5056 -0.5609
    4SAPS  C217  471   4.626   3.987   8.754  0.1587  0.8920  0.1689
    4SAPS  H17R  472   4.641   3.922   8.665  1.4887  1.1314  0.2040
    4SAPS  H17S  473   4.720   4.010   8.809  0.9735  0.1347 -0.8705
    4SAPS  C218  474   4.572   4.120   8.709  0.1290  0.4214 -0.8747
    4SAPS  H18R  475   4.639   4.147   8.624  1.0843 -2.6985 -1.1675
    4SAPS  H18S  476   4.564   4.197   8.789 -0.5926 -0.5391 -0.0111
    4SAPS  C219  477   4.428   4.100   8.640 -0.5945 -1.2077 -0.1833
    4SAPS  H19R  478   4.361   4.070   8.724 -0.4555 -0.0782  0.3286
    4SAPS  H19S  479   4.442   4.018   8.565  2.9145 -0.5185 -0.3623
    4SAPS  C220  480   4.368   4.228   8.583  0.8437 -0.4805  0.6726
    4SAPS  H20R  481   4.259   4.216   8.566  0.7476  1.7902 -0.5488
    4SAPS  H20S  482   4.424   4.247   8.490 -0.9136 -1.4871 -0.6122
    4SAPS  H20T  483   4.386   4.314   8.652  0.2223  1.5816 -1.6556
    4SAPS   C33  484   4.234   3.454   9.991 -0.3708 -0.1219 -0.7894
    4SAPS   H3X  485   4.324   3.520   9.987  0.8090 -1.4078  2.8849
    4SAPS   H3Y  486   4.136   3.506   9.994 -0.5225 -0.4894  2.6805
    4SAPS   C34  487   4.219   3.358   9.873 -0.1360  0.3837 -0.9746
    4SAPS   H4X  488   4.136   3.287   9.893  0.7672 -0.4370 -0.0530
    4SAPS   H4Y  489   4.310   3.294   9.871  1.2683  2.3012 -0.3094
    4SAPS   C35  490   4.201   3.439   9.738  0.3445 -0.4368  0.4233
    4SAPS   H5X  491   4.279   3.517   9.728 -0.0435 -0.2001 -0.7563
    4SAPS   H5Y  492   4.104   3.490   9.751  1.3825  1.4459  0.8868
    4SAPS   C36  493   4.195   3.356   9.606  0.2323 -0.1583  0.3665
    4SAPS   H6X  494   4.288   3.297   9.600 -0.0709 -0.5474 -0.6729
    4SAPS   H6Y  495   4.195   3.407   9.507 -0.8953 -1.7369 -0.4820
    4SAPS   C37  496   4.066   3.264   9.602  0.2070  0.7123  0.1371
    4SAPS   H7X  497   3.987   3.342   9.609 -0.7113  0.1874 -3.2137
    4SAPS   H7Y  498   4.069   3.201   9.693  0.5718  2.2165  1.1729
    4SAPS   C38  499   4.062   3.190   9.472 -0.1231  0.8368  0.3964
    4SAPS   H8X  500   4.133   3.107   9.490 -1.7133 -0.5853  0.2601
    4SAPS   H8Y  501   4.113   3.243   9.389 -1.8665  0.6083 -0.8640
    4SAPS   C39  502   3.926   3.132   9.427  0.0552 -0.1942 -0.4870
    4SAPS   H9X  503   3.868   3.221   9.394  0.9067  0.9538  1.0381
    4SAPS   H9Y  504   3.883   3.085   9.518  0.9613  0.0282  0.0726
    4SAPS  C310  505   3.948   3.033   9.315  0.1313 -0.7871 -0.4904
    4SAPS  H10X  506   3.998   2.941   9.351 -1.5637 -1.1623  0.9626
    4SAPS  H10Y  507   4.012   3.084   9.239 -0.4081 -0.8898 -1.0151
    4SAPS  C311  508   3.814   2.997   9.254 -0.0842  0.1836 -0.5836
    4SAPS  H11X  509   3.770   3.082   9.198 -2.8773  0.5714  2.0904
    4SAPS  H11Y  510   3.742   2.996   9.339 -1.0172 -2.4173 -1.3722
    4SAPS  C312  511   3.813   2.875   9.168  0.1206 -0.0243  0.2489
    4SAPS  H12X  512   3.717   2.846   9.122  1.5168 -1.2585 -1.9759
    4SAPS  H12Y  513   3.833   2.791   9.238 -0.6095  0.8199  1.4862
    4SAPS  C313  514   3.922   2.867   9.059 -0.3863 -0.0354  0.3817
    4SAPS  H13X  515   4.024   2.891   9.094 -0.5890  0.5696  0.5644
    4SAPS  H13Y  516   3.898   2.942   8.980  2.2808 -0.3718 -0.8157
    4SAPS  C314  517   3.933   2.733   8.988 -0.2194  0.5766  0.2582
    4SAPS  H14X  518   3.947   2.663   9.072  2.9569 -1.0835 -1.5575
    4SAPS  H14Y  519   4.024   2.732   8.925 -0.2560 -1.0627  0.2055
    4SAPS  C315  520   3.819   2.697   8.893 -0.0311  0.8878 -0.2926
    4SAPS  H15X  521   3.805   2.800   8.853  1.0701  0.6081 -1.4208
    4SAPS  H15Y  522   3.733   2.660   8.953  0.0765 -1.2908 -1.4583
    4SAPS  C316  523   3.857   2.593   8.789 -0.4550  0.1416 -0.1464
    4SAPS  H16X  524   3.844   2.489   8.827  1.6485  0.9044  2.7451
    4SAPS  H16Y  525   3.964   2.594   8.759  0.4235  0.2605  2.8363
    4SAPS  C317  526   3.779   2.613   8.661 -0.0741  0.5400 -0.1576
    4SAPS  H17X  527   3.818   2.700   8.603  0.6977 -0.5705 -1.3204
    4SAPS  H17Y  528   3.672   2.642   8.666 -0.5381 -0.7388 -2.1745
    4SAPS  C318  529   3.765   2.487   8.580 -0.0046  0.5847 -0.2706
    4SAPS  H18X  530   3.706   2.501   8.487  1.7367 -0.5022 -1.5664
    4SAPS  H18Y  531   3.716   2.403   8.634 -1.7612  0.5503 -1.8459
    4SAPS  H18Z  532   3.860   2.446   8.541 -1.2572 -0.4549 -2.3199
    5SAPS     N  533   1.798   2.336  11.219 -0.5374 -0.0994  0.1156
    5SAPS   HN1  534   1.786   2.236  11.248 -2.7401  0.0737 -0.1025
    5SAPS   HN2  535   1.900   2.354  11.209 -0.1719 -0.8333  2.2068
    5SAPS   HN3  536   1.765   2.400  11.294  2.3936  2.2892 -0.5416
    5SAPS   C12  537   1.729   2.376  11.097 -0.1105  0.7849 -0.1335
    5SAPS  H12A  538   1.623   2.356  11.105  0.5314 -1.7377  2.9452
    5SAPS   C13  539   1.749   2.524  11.064  0.4516 -0.5311  0.3379
    5SAPS  O13A  540   1.837   2.587  11.129 -0.3780 -0.0018 -0.3020
    5SAPS  O13B  541   1.696   2.573  10.959 -0.2579  0.2066 -0.3714
    5SAPS   C11  542   1.784   2.281  10.988  0.4638 -0.2054  0.9487
    5SAPS  H11A  543   1.894   2.298  10.984 -0.1289  3.6679 -3.2667
    5SAPS  H11B  544   1.742   2.306  10.888  1.8913  1.5976  0.7627
    5SAPS     P  545   1.631   2.070  11.003 -0.2461  0.2893 -0.1188
    5SAPS   O13  546   1.639   1.925  11.013 -0.0875 -0.5543 -0.6074
    5SAPS   O14  547   1.536   2.146  11.095  0.0993 -0.0732  0.0678
    5SAPS   O12  548   1.766   2.144  11.021 -0.0127 -0.5394 -0.6203
    5SAPS   O11  549   1.595   2.113  10.861  0.1781 -0.6571  0.1196
    5SAPS    C1  550   1.642   2.044  10.747  0.4000 -0.0681  1.1290
    5SAPS    HA  551   1.753   2.033  10.751  0.4992  1.2070  2.3503
    5SAPS    HB  552   1.598   1.943  10.734 -0.5108  0.6307 -1.4854
    5SAPS    C2  553   1.598   2.114  10.614  0.3767 -0.1291  0.7490
    5SAPS    HS  554   1.636   2.048  10.533  1.1371 -2.2686  2.8127
    5SAPS   O21  555   1.659   2.242  10.603  0.5191  0.8007 -0.4476
    5SAPS   C21  556   1.774   2.255  10.546  0.3766  0.7009 -0.0758
    5SAPS   O22  557   1.848   2.164  10.505 -0.2021 -0.1752  0.0296
    5SAPS   C22  558   1.814   2.407  10.556 -0.0587 -0.1339 -0.3719
    5SAPS   H2R  559   1.804   2.425  10.665  0.4507 -3.0063  0.1931
    5SAPS   H2S  560   1.922   2.416  10.531  0.1903  0.4764  0.9114
    5SAPS    C3  561   1.445   2.127  10.596 -0.3677  0.9184 -0.3413
    5SAPS    HX  562   1.408   2.177  10.688  1.1784  1.8322 -0.2012
    5SAPS    HY  563   1.396   2.028  10.609  1.1100  0.0787 -1.0717
    5SAPS   O31  564   1.406   2.186  10.475  0.1922 -0.3345 -0.3540
    5SAPS   C31  565   1.281   2.184  10.447 -1.4714 -0.2064  0.2583
    5SAPS   O32  566   1.195   2.128  10.514 -0.1449 -0.4057  0.3806
    5SAPS   C32  567   1.252   2.263  10.320  0.0119 -0.0557  0.2525
    5SAPS   H2X  568   1.346   2.318  10.301 -0.5312 -0.0916 -2.8673
    5SAPS   H2Y  569   1.173   2.336  10.346 -3.1558 -3.0458 -0.5416
    5SAPS   C23  570   1.730   2.496  10.458 -0.5395  0.5486  0.1802
    5SAPS   H3R  571   1.738   2.606  10.472  0.8065  0.7164 -1.6922
    5SAPS   H3S  572   1.625   2.464  10.478  0.7529 -2.4517  2.5783
    5SAPS   C24  573   1.777   2.474  10.308  0.7134 -0.5186 -0.7090
    5SAPS   H4R  574   1.804   2.366  10.306 -1.9252 -1.2778  1.7543
    5SAPS   H4S  575   1.867   2.536  10.291 -0.5726  1.2873 -1.0443
    5SAPS   C25  576   1.677   2.518  10.204 -0.4107  0.0315 -0.2723
    5SAPS   H5R  577   1.577   2.522  10.248 -0.5732  0.2118 -0.6600
    5SAPS   C26  578   1.698   2.551  10.075 -0.1109  0.4037  0.3384
    5SAPS   H6R  579   1.607   2.570  10.017 -1.0447 -2.5264  0.7579
    5SAPS   C27  580   1.821   2.548   9.994 -0.0106 -0.1326 -0.2190
    5SAPS   H7R  581   1.897   2.608  10.050  0.6918 -0.6267 -0.6295
    5SAPS   H7S  582   1.799   2.612   9.905  0.9448 -1.6161 -1.5624
    5SAPS   C28  583   1.894   2.422   9.959 -0.1137 -0.6216 -0.1530
    5SAPS   H8R  584   1.896   2.344  10.037  0.7085 -1.2302 -0.7640
    5SAPS   C29  585   1.938   2.380   9.839  0.3782  0.6725 -1.0080
    5SAPS   H9R  586   2.002   2.291   9.847 -1.7998 -0.8340  0.4315
    5SAPS  C210  587   1.930   2.463   9.714  0.4944  0.6533  0.0895
    5SAPS  H10R  588   1.939   2.569   9.747  0.0539  0.5701  0.4817
    5SAPS  H10S  589   1.830   2.457   9.667  0.4855  1.3315  0.0104
    5SAPS  C211  590   2.029   2.422   9.601  0.0644 -0.2304 -0.4305
    5SAPS  H11R  591   2.104   2.345   9.625 -0.4353 -0.3704  0.7012
    5SAPS  C212  592   2.037   2.487   9.483 -0.6601 -0.0739 -0.2588
    5SAPS  H12R  593   2.111   2.457   9.408 -1.0225 -2.1823  0.1940
    5SAPS  C213  594   1.934   2.588   9.430  0.1044  0.9503  0.0017
    5SAPS  H13R  595   1.970   2.692   9.414 -0.6029  1.5204  2.0775
    5SAPS  H13S  596   1.853   2.615   9.500  0.0322  0.7649 -0.0083
    5SAPS  C214  597   1.881   2.538   9.297  1.1132  0.2600 -0.5484
    5SAPS  H14R  598   1.809   2.456   9.308 -2.5052  3.4894  0.8951
    5SAPS  C215  599   1.936   2.552   9.175  0.1384  0.3540  0.4125
    5SAPS  H15R  600   1.882   2.507   9.090 -0.1758 -0.8429  1.2332
    5SAPS  C216  601   2.060   2.630   9.141  0.2789  0.2981  0.0531
    5SAPS  H16R  602   2.103   2.668   9.236  0.2325  0.1922  0.1168
    5SAPS  H16S  603   2.019   2.720   9.091 -0.3140 -1.7961 -3.3698
    5SAPS  C217  604   2.176   2.569   9.051 -0.1257  0.4474 -0.8132
    5SAPS  H17R  605   2.222   2.492   9.116 -1.0674  0.3736 -0.2200
    5SAPS  H17S  606   2.259   2.641   9.041 -1.1451  2.0888  2.0169
    5SAPS  C218  607   2.129   2.507   8.918 -0.1937 -0.6315  0.1481
    5SAPS  H18R  608   2.050   2.431   8.936  1.2676 -1.9356  1.2190
    5SAPS  H18S  609   2.079   2.590   8.864 -0.6762 -1.3342 -0.5103
    5SAPS  C219  610   2.228   2.447   8.817 -0.7047  0.8655 -0.2813
    5SAPS  H19R  611   2.180   2.409   8.725 -2.1187  0.8089  0.4606
    5SAPS  H19S  612   2.266   2.357   8.869 -2.2886  0.0208 -0.5493
    5SAPS  C220  613   2.336   2.540   8.772 -0.6804  0.4191 -0.2811
    5SAPS  H20R  614   2.290   2.625   8.718 -0.7515  1.2873  1.1374
    5SAPS  H20S  615   2.412   2.491   8.706 -0.1759  0.2035  0.4505
    5SAPS  H20T  616   2.386   2.584   8.861  1.1352  1.2863 -1.6796
    5SAPS   C33  617   1.225   2.184  10.195  0.3026  0.2333 -0.0736
    5SAPS   H3X  618   1.123   2.139  10.191  0.4272  0.0723 -1.9550
    5SAPS   H3Y  619   1.301   2.103  10.198 -0.6322 -0.7118 -1.2221
    5SAPS   C34  620   1.259   2.252  10.068 -1.6711  0.0904 -0.0995
    5SAPS   H4X  621   1.251   2.173   9.991  2.6837  0.1789 -0.7528
    5SAPS   H4Y  622   1.366   2.282  10.068 -1.0521 -1.9806  1.9182
    5SAPS   C35  623   1.169   2.374  10.041  0.1554 -0.5820  0.5672
    5SAPS   H5X  624   1.169   2.457  10.116 -1.1407  1.7273 -1.9159
    5SAPS   H5Y  625   1.070   2.323  10.039 -0.1710  0.0530  0.3936
    5SAPS   C36  626   1.185   2.431   9.899  0.8241  0.7805 -0.2912
    5SAPS   H6X  627   1.099   2.497   9.875 -0.1584 -0.6520 -0.7437
    5SAPS   H6Y  628   1.183   2.348   9.825 -0.6921 -0.8778  1.5654
    5SAPS   C37  629   1.316   2.513   9.869 -0.1377 -0.0111  0.1831
    5SAPS   H7X  630   1.402   2.444   9.879 -0.3941 -0.3477  0.0869
    5SAPS   H7Y  631   1.332   2.583   9.954  2.0270 -1.5365  1.0578
    5SAPS   C38  632   1.327   2.579   9.735  0.6847  0.0066  0.1600
    5SAPS   H8X  633   1.426   2.627   9.721  1.0376 -0.1187  2.0836
    5SAPS   H8Y  634   1.245   2.653   9.734 -1.0401 -1.8572 -1.3347
    5SAPS   C39  635   1.308   2.494   9.611  0.3842 -0.0289  0.5016
    5SAPS   H9X  636   1.216   2.431   9.612 -0.7134  1.4030 -2.8600
    5SAPS   H9Y  637   1.392   2.421   9.608  0.9868  0.6224  1.3510
    5SAPS  C310  638   1.305   2.582   9.482  0.1492  1.2802  0.0024
    5SAPS  H10X  639   1.396   2.645   9.473  2.2039 -1.4216  1.2120
    5SAPS  H10Y  640   1.216   2.649   9.481 -1.6975 -1.1087 -0.0823
    5SAPS  C311  641   1.293   2.500   9.354  0.5795  0.3607  0.7325
    5SAPS  H11X  642   1.215   2.426   9.384  0.2014  0.5683  0.2670
    5SAPS  H11Y  643   1.390   2.447   9.344 -0.5552 -1.2786 -2.0381
    5SAPS  C312  644   1.274   2.580   9.226  1.0783  0.0010 -0.6515
    5SAPS  H12X  645   1.328   2.677   9.228  1.4485 -0.2178  0.4402
    5SAPS  H12Y  646   1.165   2.597   9.226  1.3993  2.4168 -3.2437
    5SAPS  C313  647   1.308   2.498   9.108 -0.3610 -0.3216  0.0143
    5SAPS  H13X  648   1.253   2.402   9.123 -0.0538 -0.4375  0.4125
    5SAPS  H13Y  649   1.417   2.482   9.110 -0.6059 -2.4000 -1.7910
    5SAPS  C314  650   1.259   2.564   8.972 -0.0862  0.1486 -0.0515
    5SAPS  H14X  651   1.327   2.650   8.955 -0.0411  0.3709  1.2191
    5SAPS  H14Y  652   1.157   2.602   8.991  0.5952  2.1444 -0.2473
    5SAPS  C315  653   1.264   2.464   8.861 -0.1622 -0.3534  0.1299
    5SAPS  H15X  654   1.219   2.366   8.891  0.8003 -1.5245 -2.1015
    5SAPS  H15Y  655   1.366   2.438   8.828  0.2468 -2.5529  2.9288
    5SAPS  C316  656   1.204   2.528   8.728  0.2429  1.0078  0.1569
    5SAPS  H16X  657   1.256   2.624   8.707 -1.2359  1.0847 -3.2868
    5SAPS  H16Y  658   1.096   2.543   8.747  0.1633  1.1494 -0.4070
    5SAPS  C317  659   1.226   2.438   8.604  0.4979 -0.3519 -0.1097
    5SAPS  H17X  660   1.162   2.348   8.610 -0.6271  0.3057 -1.8261
    5SAPS  H17Y  661   1.336   2.419   8.607  0.6002 -0.1929 -1.9895
    5SAPS  C318  662   1.178   2.516   8.480  0.3186  0.1720  0.8541
    5SAPS  H18X  663   1.179   2.627   8.491 -0.2080  0.3075 -0.3216
    5SAPS  H18Y  664   1.070   2.491   8.467 -0.0696  2.0291  0.2661
    5SAPS  H18Z  665   1.232   2.507   8.383  0.4713  1.1800  0.8410
    6SAPS     N  666   1.387   1.824  10.988  0.4796  0.4906 -0.0480
    6SAPS   HN1  667   1.360   1.853  11.084 -3.9918 -0.6720 -0.8108
    6SAPS   HN2  668   1.489   1.842  10.976  0.9734 -1.4102  1.1820
    6SAPS   HN3  669   1.327   1.878  10.921  3.2038  1.9722 -1.3952
    6SAPS   C12  670   1.349   1.682  10.979  0.0739 -0.1965  0.3507
    6SAPS  H12A  671   1.425   1.626  11.031 -1.1907 -0.3794  2.0510
    6SAPS   C13  672   1.214   1.648  11.059 -0.3867  0.6080 -0.2916
    6SAPS  O13A  673   1.145   1.744  11.103  0.0182  0.0626  0.1106
    6SAPS  O13B  674   1.202   1.524  11.098  0.8062 -0.3269 -0.5710
    6SAPS   C11  675   1.331   1.645  10.831 -0.2318  0.9292 -0.4373
    6SAPS  H11A  676   1.297   1.540  10.818 -0.3383  1.2040 -2.6064
    6SAPS  H11B  677   1.431   1.650  10.781  0.4180 -1.8910  0.4861
    6SAPS     P  678   1.128   1.704  10.669 -0.1838 -0.2525 -0.1035
    6SAPS   O13  679   1.068   1.577  10.716 -0.2943  0.2422 -0.1989
    6SAPS   O14  680   1.035   1.817  10.631  0.3479 -0.2933 -0.0059
    6SAPS   O12  681   1.245   1.745  10.766  0.9255 -0.6674  0.2319
    6SAPS   O11  682   1.213   1.669  10.544 -0.6641  0.1797  0.3460
    6SAPS    C1  683   1.278   1.542  10.516 -0.8949 -0.1046 -0.4366
    6SAPS    HA  684   1.382   1.571  10.490  0.4116 -2.4482  1.9726
    6SAPS    HB  685   1.290   1.484  10.609  1.9530  1.4989  0.2610
    6SAPS    C2  686   1.218   1.464  10.406  0.5888 -0.1289  0.3304
    6SAPS    HS  687   1.278   1.371  10.406  0.5537 -0.1526  0.6933
    6SAPS   O21  688   1.213   1.536  10.284  0.3219 -0.7718  0.7551
    6SAPS   C21  689   1.328   1.565  10.219  0.5977  0.3475  0.5910
    6SAPS   O22  690   1.438   1.539  10.258  0.0383 -0.1503 -0.4561
    6SAPS   C22  691   1.291   1.620  10.081 -0.4635  0.0400 -0.0782
    6SAPS   H2R  692   1.213   1.559  10.032 -0.5928  0.8225 -0.8624
    6SAPS   H2S  693   1.256   1.724  10.098 -1.6058 -0.7470  2.6146
    6SAPS    C3  694   1.071   1.413  10.436  0.8701 -0.0408  0.4403
    6SAPS    HX  695   1.011   1.498  10.475 -0.7061 -1.9345  2.2548
    6SAPS    HY  696   1.068   1.348  10.527 -2.6352 -1.5019 -0.6414
    6SAPS   O31  697   1.012   1.350  10.319 -0.9216 -0.0031 -0.4463
    6SAPS   C31  698   0.901   1.403  10.266 -0.2118  0.4390  0.5297
    6SAPS   O32  699   0.844   1.506  10.300 -0.2633  0.3944  0.0855
    6SAPS   C32  700   0.866   1.323  10.136 -0.2294  0.2857  0.9069
    6SAPS   H2X  701   0.764   1.353  10.106 -0.0585  0.6072  0.6463
    6SAPS   H2Y  702   0.866   1.216  10.166  1.4886  0.0416  0.0995
    6SAPS   C23  703   1.413   1.621   9.982  0.3852 -0.2675 -0.1336
    6SAPS   H3R  704   1.426   1.524   9.929 -0.7146 -0.4849 -0.0296
    6SAPS   H3S  705   1.504   1.637  10.043 -0.1087 -0.6036  0.6869
    6SAPS   C24  706   1.396   1.735   9.883  0.1339  1.0811 -0.1600
    6SAPS   H4R  707   1.401   1.833   9.935 -0.1173  1.4676 -0.8555
    6SAPS   H4S  708   1.298   1.718   9.834 -0.6713  2.1666  1.0298
    6SAPS   C25  709   1.511   1.722   9.777  0.2507  0.4983  0.6359
    6SAPS   H5R  710   1.610   1.763   9.803  1.0003 -0.1346 -1.1336
    6SAPS   C26  711   1.499   1.663   9.658  0.4070 -0.5030 -0.3372
    6SAPS   H6R  712   1.590   1.656   9.596 -0.2438 -2.0925 -1.1366
    6SAPS   C27  713   1.371   1.587   9.614  0.3722  0.1940 -0.4364
    6SAPS   H7R  714   1.299   1.567   9.696  0.8366 -0.5983 -0.2137
    6SAPS   H7S  715   1.399   1.482   9.589  0.0218 -0.0565  0.1909
    6SAPS   C28  716   1.294   1.652   9.496 -0.6536  0.4002 -0.1960
    6SAPS   H8R  717   1.221   1.729   9.524 -0.0513  0.7842  0.3379
    6SAPS   C29  718   1.317   1.623   9.363  0.1338 -0.5111 -0.0559
    6SAPS   H9R  719   1.255   1.664   9.282 -0.5024 -1.8361 -0.2453
    6SAPS  C210  720   1.423   1.526   9.317 -0.2183  0.4546 -1.1058
    6SAPS  H10R  721   1.380   1.425   9.336 -0.1532  0.8298  1.1451
    6SAPS  H10S  722   1.515   1.543   9.377 -1.8242  0.6799  1.3594
    6SAPS  C211  723   1.450   1.529   9.172 -0.9167 -0.5767 -0.5001
    6SAPS  H11R  724   1.385   1.464   9.112 -0.4183  0.0802 -1.7786
    6SAPS  C212  725   1.531   1.626   9.109  0.1424 -0.3007  0.2352
    6SAPS  H12R  726   1.539   1.613   9.000 -2.0812  0.6815 -0.0697
    6SAPS  C213  727   1.609   1.742   9.174 -0.0522 -0.2416  0.1554
    6SAPS  H13R  728   1.527   1.803   9.217 -0.9776  0.4814 -2.5153
    6SAPS  H13S  729   1.658   1.804   9.095 -1.1037 -0.0795 -0.3725
    6SAPS  C214  730   1.714   1.710   9.275 -0.7868 -0.0968 -0.3504
    6SAPS  H14R  731   1.664   1.706   9.373  1.0767 -0.3169  0.6107
    6SAPS  C215  732   1.847   1.714   9.269  0.3648 -0.2223 -0.8123
    6SAPS  H15R  733   1.900   1.684   9.360 -0.3898 -2.2747 -1.0185
    6SAPS  C216  734   1.941   1.742   9.152  0.4383  0.3273  0.0949
    6SAPS  H16R  735   1.884   1.748   9.056  0.4909  0.7949  0.0880
    6SAPS  H16S  736   2.015   1.660   9.141 -0.2687 -0.2943 -0.0910
    6SAPS  C217  737   2.011   1.878   9.155 -0.2381 -0.6904 -0.2121
    6SAPS  H17R  738   2.065   1.904   9.062  0.2327  0.7091  0.4396
    6SAPS  H17S  739   2.086   1.879   9.237 -0.8083 -1.4409  0.3323
    6SAPS  C218  740   1.920   1.995   9.185 -0.4248 -0.3194 -0.2351
    6SAPS  H18R  741   1.855   1.982   9.275 -0.5045 -0.0954 -0.2602
    6SAPS  H18S  742   1.847   2.003   9.102 -1.4362  2.7100  0.8803
    6SAPS  C219  743   1.996   2.131   9.206 -0.5140 -0.8618  0.1373
    6SAPS  H19R  744   2.067   2.128   9.291  0.3121 -1.8882 -0.5808
    6SAPS  H19S  745   1.918   2.203   9.241 -0.8983 -0.6869 -1.0534
    6SAPS  C220  746   2.054   2.191   9.079 -0.8382  0.0798 -0.0157
    6SAPS  H20R  747   1.971   2.232   9.018 -1.6823 -2.0150 -0.3248
    6SAPS  H20S  748   2.107   2.115   9.019 -2.5582 -1.2671  0.1155
    6SAPS  H20T  749   2.124   2.271   9.111 -0.0934  0.0264 -1.4909
    6SAPS   C33  750   0.966   1.350  10.017  0.8329 -0.4623  0.0743
    6SAPS   H3X  751   1.070   1.317  10.039  0.4021  0.1149  3.2126
    6SAPS   H3Y  752   0.980   1.461  10.017  2.8370 -0.6884  1.2531
    6SAPS   C34  753   0.920   1.297   9.883 -0.5244  0.4342  0.3752
    6SAPS   H4X  754   0.816   1.329   9.859  0.1094  1.2138 -1.4184
    6SAPS   H4Y  755   0.909   1.187   9.875 -3.5140  0.7765 -1.0958
    6SAPS   C35  756   1.015   1.342   9.773 -0.6589 -0.4901  0.0904
    6SAPS   H5X  757   1.102   1.273   9.784  0.7807  1.3387  0.3936
    6SAPS   H5Y  758   1.047   1.446   9.795  2.0548 -1.6958  2.2945
    6SAPS   C36  759   0.947   1.324   9.635  0.4068  0.3504  0.7213
    6SAPS   H6X  760   0.893   1.417   9.609  1.7962  0.8007 -0.6094
    6SAPS   H6Y  761   0.866   1.247   9.638 -0.3798  1.1257 -0.2359
    6SAPS   C37  762   1.048   1.286   9.526  0.6585 -0.1067 -0.6183
    6SAPS   H7X  763   1.052   1.176   9.511  0.1222 -0.1653 -0.3549
    6SAPS   H7Y  764   1.146   1.330   9.552  0.1342  0.0743  1.1099
    6SAPS   C38  765   0.996   1.343   9.397 -0.7472 -0.2743  0.2878
    6SAPS   H8X  766   0.998   1.454   9.395  3.1385 -0.2643  0.2539
    6SAPS   H8Y  767   0.889   1.319   9.380 -0.7695 -0.8714  1.2738
    6SAPS   C39  768   1.082   1.282   9.279  0.4015 -0.4304 -0.1445
    6SAPS   H9X  769   1.089   1.172   9.282 -2.1794 -0.6562 -1.2966
    6SAPS   H9Y  770   1.185   1.324   9.289 -0.5757  1.9902  0.2403
    6SAPS  C310  771   1.030   1.306   9.129  0.0772 -0.6042  0.1697
    6SAPS  H10X  772   0.989   1.409   9.122  0.1905 -0.4698  1.3075
    6SAPS  H10Y  773   0.943   1.238   9.121  0.5829 -1.7746  3.4968
    6SAPS  C311  774   1.139   1.270   9.027 -0.3031 -0.0926  0.1080
    6SAPS  H11X  775   1.165   1.166   9.056 -3.2586 -1.0836 -0.5557
    6SAPS  H11Y  776   1.229   1.334   9.021 -0.2209 -0.3357 -1.5116
    6SAPS  C312  777   1.078   1.241   8.892  0.6141  0.3051 -0.6831
    6SAPS  H12X  778   1.061   1.335   8.835 -1.6744 -0.9468 -2.1382
    6SAPS  H12Y  779   0.982   1.187   8.909  1.1028 -0.5160 -0.4786
    6SAPS  C313  780   1.161   1.147   8.800 -0.8242  0.0796 -0.5070
    6SAPS  H13X  781   1.181   1.051   8.852 -0.0237 -0.1241 -1.1812
    6SAPS  H13Y  782   1.255   1.204   8.780 -3.1815  3.6372 -1.9083
    6SAPS  C314  783   1.091   1.109   8.675 -0.0332  0.3493 -0.0425
    6SAPS  H14X  784   1.088   1.193   8.602  0.4664 -0.6958 -1.2877
    6SAPS  H14Y  785   0.993   1.066   8.705 -0.7717  1.8182 -0.2570
    6SAPS  C315  786   1.150   0.997   8.595 -0.7034  0.3163  0.0214
    6SAPS  H15X  787   1.110   0.900   8.634  0.1163  0.6000  1.5921
    6SAPS  H15Y  788   1.261   0.994   8.601 -0.7990 -0.9865  1.8032
    6SAPS  C316  789   1.107   0.995   8.450  0.2759  0.6521  0.3985
    6SAPS  H16X  790   1.135   1.093   8.406 -2.2017  1.4868  0.5909
    6SAPS  H16Y  791   0.997   0.984   8.443  0.4570  0.1498 -2.1788
    6SAPS  C317  792   1.192   0.896   8.365  0.0481 -0.7886 -0.4453
    6SAPS  H17X  793   1.302   0.897   8.381 -0.2108 -3.7798  2.0338
    6SAPS  H17Y  794   1.180   0.918   8.257 -0.6711  0.5416 -0.1192
    6SAPS  C318  795   1.145   0.751   8.382  0.4965  0.2178  0.4372
    6SAPS  H18X  796   1.210   0.712   8.463  0.4865 -0.6129  0.0611
    6SAPS  H18Y  797   1.169   0.690   8.292  0.2770  1.9726 -0.8233
    6SAPS  H18Z  798   1.041   0.729   8.413 -0.0978  3.5932  1.0040
    7SAPS     N  799   2.648   3.112  10.703 -0.0208  0.1233  0.7294
    7SAPS   HN1  800   2.692   3.074  10.616  0.9661  3.1141 -0.1144
    7SAPS   HN2  801   2.699   3.068  10.782 -0.1206 -1.1806  0.0854
    7SAPS   HN3  802   2.547   3.087  10.703 -0.8196  3.1179 -0.8407
    7SAPS   C12  803   2.656   3.264  10.707  0.1355  0.1374  0.6065
    7SAPS  H12A  804   2.606   3.305  10.620 -0.8416 -1.1694  0.5295
    7SAPS   C13  805   2.583   3.336  10.820  0.2525  0.0570 -0.7583
    7SAPS  O13A  806   2.523   3.279  10.914 -0.1654 -0.4379  0.2288
    7SAPS  O13B  807   2.584   3.458  10.821  0.5355  0.1662  0.4060
    7SAPS   C11  808   2.807   3.298  10.700  0.6349 -0.1602  0.2292
    7SAPS  H11A  809   2.851   3.242  10.784 -0.2520  1.7498  2.0079
    7SAPS  H11B  810   2.830   3.406  10.713  2.8956 -0.5246 -0.4532
    7SAPS     P  811   2.949   3.144  10.558  0.7050 -0.0246  0.3029
    7SAPS   O13  812   3.051   3.144  10.666 -0.2204  0.5316 -0.1021
    7SAPS   O14  813   2.859   3.024  10.554  0.2909  0.4024 -0.9400
    7SAPS   O12  814   2.856   3.268  10.575  0.1248  0.3176 -0.4832
    7SAPS   O11  815   3.017   3.159  10.416  0.3472  0.5381  0.0038
    7SAPS    C1  816   3.031   3.287  10.348  0.3754 -0.7063  0.2501
    7SAPS    HA  817   3.057   3.366  10.421 -3.5884  2.1291 -1.2330
    7SAPS    HB  818   3.116   3.283  10.278  1.1692  1.4823  1.0591
    7SAPS    C2  819   2.917   3.330  10.258 -0.4577 -0.2137  0.0313
    7SAPS    HS  820   2.957   3.393  10.176 -1.3800 -1.1790 -1.1813
    7SAPS   O21  821   2.810   3.392  10.338 -0.0273  0.7175 -0.5834
    7SAPS   C21  822   2.829   3.524  10.346 -0.2767 -0.0310 -0.7652
    7SAPS   O22  823   2.932   3.581  10.312  0.2123 -0.4660  1.1074
    7SAPS   C22  824   2.708   3.603  10.398 -0.3229 -0.0302 -0.2967
    7SAPS   H2R  825   2.623   3.589  10.328 -0.6202  0.6854 -0.0781
    7SAPS   H2S  826   2.689   3.562  10.499 -0.2810  0.5913 -0.0366
    7SAPS    C3  827   2.857   3.205  10.190  0.7624 -0.0905 -0.5716
    7SAPS    HX  828   2.805   3.141  10.263 -0.9305  2.2231  0.3032
    7SAPS    HY  829   2.938   3.142  10.147  0.1625 -0.2346 -1.5058
    7SAPS   O31  830   2.777   3.253  10.084  0.1524 -0.0310  0.1381
    7SAPS   C31  831   2.706   3.175  10.011 -0.3982  0.7021  0.4552
    7SAPS   O32  832   2.707   3.049  10.019 -0.0779 -0.5427 -0.5550
    7SAPS   C32  833   2.642   3.258   9.908 -0.0567  0.4971 -0.0803
    7SAPS   H2X  834   2.680   3.361   9.925 -0.9221  0.3021  3.5252
    7SAPS   H2Y  835   2.531   3.254   9.917 -0.0729 -0.7105 -0.6856
    7SAPS   C23  836   2.724   3.755  10.423  0.2698  0.5154 -1.3908
    7SAPS   H3R  837   2.811   3.788  10.484 -0.1224  2.4397 -1.8213
    7SAPS   H3S  838   2.633   3.801  10.468 -0.5055 -0.8802 -1.5245
    7SAPS   C24  839   2.741   3.829  10.288  0.1294 -0.5708  0.3632
    7SAPS   H4R  840   2.827   3.790  10.230  2.3739  2.0205  1.7988
    7SAPS   H4S  841   2.768   3.934  10.312  0.9442 -0.6092 -0.3720
    7SAPS   C25  842   2.610   3.853  10.214  0.3400 -0.1166 -0.3927
    7SAPS   H5R  843   2.518   3.877  10.269  1.7587  0.4563  1.7792
    7SAPS   C26  844   2.599   3.818  10.091 -0.1603  0.5095  0.3590
    7SAPS   H6R  845   2.500   3.832  10.044  0.9447 -0.6591 -2.4592
    7SAPS   C27  846   2.697   3.742  10.010  0.1959  0.9370 -0.8840
    7SAPS   H7R  847   2.647   3.675   9.937  1.2407  0.7114 -1.4045
    7SAPS   H7S  848   2.767   3.677  10.067 -3.1132 -1.5391  0.4841
    7SAPS   C28  849   2.785   3.829   9.925 -0.1532 -0.9214 -0.4346
    7SAPS   H8R  850   2.847   3.891   9.991 -1.1255  1.2832 -1.5341
    7SAPS   C29  851   2.807   3.833   9.793  0.3259  0.5707 -0.5246
    7SAPS   H9R  852   2.872   3.912   9.753  1.0348  0.4132  0.3020
    7SAPS  C210  853   2.739   3.753   9.685  0.9468  0.6643 -0.5497
    7SAPS  H10R  854   2.698   3.657   9.724 -0.6692  1.6383  0.1742
    7SAPS  H10S  855   2.810   3.722   9.605  2.3639 -1.0966  1.3445
    7SAPS  C211  856   2.617   3.830   9.640  0.0647  0.7339  1.0524
    7SAPS  H11R  857   2.534   3.835   9.711  0.6210 -0.8721  1.8448
    7SAPS  C212  858   2.587   3.867   9.507 -0.3638  0.4590 -0.0167
    7SAPS  H12R  859   2.490   3.916   9.488 -0.2397  1.1579  1.0876
    7SAPS  C213  860   2.680   3.846   9.388 -0.7281  0.1315  0.4366
    7SAPS  H13R  861   2.646   3.759   9.327  0.4857  0.5661 -0.8764
    7SAPS  H13S  862   2.782   3.836   9.430  0.1101  2.2212 -1.0306
    7SAPS  C214  863   2.690   3.966   9.296 -0.6809  0.1832  0.2425
    7SAPS  H14R  864   2.707   4.063   9.346 -0.2672  0.4318 -0.3709
    7SAPS  C215  865   2.696   3.960   9.157 -0.5986  0.2385  0.0263
    7SAPS  H15R  866   2.694   4.056   9.102 -0.4213 -0.0657 -0.5105
    7SAPS  C216  867   2.690   3.832   9.073 -0.4995  0.2194 -0.4024
    7SAPS  H16R  868   2.599   3.834   9.010  1.0858 -1.1657 -2.8540
    7SAPS  H16S  869   2.687   3.738   9.133  2.9588 -0.0175 -0.4755
    7SAPS  C217  870   2.805   3.824   8.981 -0.7436  0.2878 -0.2295
    7SAPS  H17R  871   2.910   3.827   9.019 -1.0165  1.4148  0.4566
    7SAPS  H17S  872   2.795   3.901   8.901  1.7015  0.1515 -0.7028
    7SAPS  C218  873   2.792   3.693   8.904 -0.3102  0.6997 -0.0693
    7SAPS  H18R  874   2.689   3.681   8.864  0.4860 -0.7452 -1.7493
    7SAPS  H18S  875   2.817   3.608   8.972 -0.2890 -0.4807 -1.5302
    7SAPS  C219  876   2.898   3.680   8.796 -0.1966 -0.1254  0.5933
    7SAPS  H19R  877   2.993   3.664   8.851 -0.8303 -3.3995  0.8636
    7SAPS  H19S  878   2.901   3.783   8.757 -0.1440 -1.0272 -1.8486
    7SAPS  C220  879   2.874   3.589   8.679  0.4024 -0.0596 -0.8934
    7SAPS  H20R  880   2.860   3.486   8.718 -0.8629  0.2839 -0.3893
    7SAPS  H20S  881   2.946   3.595   8.595 -0.9346  2.2550 -1.9626
    7SAPS  H20T  882   2.774   3.612   8.636  1.1411  0.2303 -2.4883
    7SAPS   C33  883   2.667   3.210   9.759  0.1778  0.3320 -0.2657
    7SAPS   H3X  884   2.623   3.109   9.741 -0.6848  1.3276 -4.1104
    7SAPS   H3Y  885   2.778   3.205   9.758  0.2261  0.4558  1.9952
    7SAPS   C34  886   2.613   3.313   9.653 -0.0052  0.0164  0.0190
    7SAPS   H4X  887   2.667   3.408   9.671  2.0855 -1.1006 -0.2900
    7SAPS   H4Y  888   2.506   3.342   9.662 -0.6184 -2.0221 -0.4323
    7SAPS   C35  889   2.653   3.282   9.509 -0.5315 -0.4238 -0.2168
    7SAPS   H5X  890   2.563   3.257   9.449 -0.6613 -0.7446  0.1077
    7SAPS   H5Y  891   2.727   3.200   9.506  0.7952  0.7468  0.2076
    7SAPS   C36  892   2.719   3.400   9.439 -0.1182  0.9786 -0.3750
    7SAPS   H6X  893   2.809   3.436   9.494  0.6026  0.3560 -1.1367
    7SAPS   H6Y  894   2.653   3.490   9.438  0.2538  1.3326  2.1042
    7SAPS   C37  895   2.740   3.364   9.295 -0.0796 -1.0754  0.1107
    7SAPS   H7X  896   2.646   3.326   9.250 -1.7002  1.6492  1.1147
    7SAPS   H7Y  897   2.807   3.276   9.281  2.6537  1.0873 -0.8722
    7SAPS   C38  898   2.810   3.469   9.209 -0.2752 -0.1650  0.2955
    7SAPS   H8X  899   2.752   3.563   9.208  1.1414  0.7203 -0.5775
    7SAPS   H8Y  900   2.809   3.429   9.106 -1.0639 -1.5501  0.8341
    7SAPS   C39  901   2.961   3.491   9.241  0.2356 -0.6950  0.0846
    7SAPS   H9X  902   3.010   3.411   9.182 -2.5579 -2.2315 -0.2256
    7SAPS   H9Y  903   2.979   3.474   9.349  1.8459  0.5764  0.0341
    7SAPS  C310  904   3.021   3.628   9.194  0.0074 -0.0768  0.1681
    7SAPS  H10X  905   2.974   3.712   9.250  0.4039  0.7127 -0.6602
    7SAPS  H10Y  906   2.993   3.645   9.088 -3.4577 -1.7082  0.7825
    7SAPS  C311  907   3.168   3.638   9.221  0.0371 -0.1703  0.4789
    7SAPS  H11X  908   3.222   3.554   9.172 -0.9847 -1.2149  1.1162
    7SAPS  H11Y  909   3.175   3.625   9.331  2.5352 -1.4221  0.2237
    7SAPS  C312  910   3.229   3.775   9.183  0.0585 -0.7937  0.0653
    7SAPS  H12X  911   3.329   3.788   9.230 -0.1267  0.0904  0.2179
    7SAPS  H12Y  912   3.171   3.851   9.240  1.3843  0.9235 -0.8051
    7SAPS  C313  913   3.238   3.802   9.033  0.3255 -0.4555 -1.0434
    7SAPS  H13X  914   3.250   3.911   9.014  0.0651 -0.1670  0.3785
    7SAPS  H13Y  915   3.148   3.776   8.974  0.4028 -0.5290 -1.1282
    7SAPS  C314  916   3.352   3.726   8.975  0.0818 -0.1038  0.1684
    7SAPS  H14X  917   3.354   3.627   9.027 -4.2330 -0.3549  0.0447
    7SAPS  H14Y  918   3.448   3.775   8.998  0.0556  0.7523 -1.4550
    7SAPS  C315  919   3.341   3.722   8.820 -0.2511 -1.1647  0.1459
    7SAPS  H15X  920   3.243   3.694   8.775 -0.4254 -0.6393  0.2051
    7SAPS  H15Y  921   3.422   3.657   8.778  1.9624  0.5230  1.6913
    7SAPS  C316  922   3.367   3.870   8.756 -0.0558  0.3579 -0.1266
    7SAPS  H16X  923   3.462   3.910   8.797  0.2207 -0.3698 -0.0411
    7SAPS  H16Y  924   3.282   3.932   8.791 -1.2496 -1.3383  0.0505
    7SAPS  C317  925   3.367   3.869   8.602  0.2482 -0.7794 -0.9691
    7SAPS  H17X  926   3.431   3.780   8.583 -0.2486 -1.8069  1.9568
    7SAPS  H17Y  927   3.422   3.959   8.565 -0.7427 -0.0399 -0.6704
    7SAPS  C318  928   3.235   3.878   8.531 -0.3797  0.1027  0.6322
    7SAPS  H18X  929   3.156   3.937   8.582 -2.3497 -1.9443 -0.0066
    7SAPS  H18Y  930   3.191   3.777   8.515 -0.1258  0.0463  0.2879
    7SAPS  H18Z  931   3.254   3.919   8.429  2.5967 -1.6357  0.4394
    8SAPS     N  932   1.173   4.633  11.329  0.1961 -0.3292  0.3895
    8SAPS   HN1  933   1.268   4.608  11.365 -0.0257 -2.5234 -0.4102
    8SAPS   HN2  934   1.141   4.584  11.242  1.9759  1.2675 -1.2102
    8SAPS   HN3  935   1.186   4.735  11.315 -0.5483 -0.4298 -1.2033
    8SAPS   C12  936   1.064   4.622  11.436 -0.2883  0.2729  0.5624
    8SAPS  H12A  937   1.049   4.519  11.465  0.1786  0.1013  0.2084
    8SAPS   C13  938   1.100   4.695  11.561  0.2351 -0.5194  1.1654
    8SAPS  O13A  939   1.205   4.767  11.566 -0.5330 -0.3174 -0.3734
    8SAPS  O13B  940   1.017   4.680  11.659  0.6062 -0.2223  0.4266
    8SAPS   C11  941   0.937   4.687  11.379  0.9575 -0.1640 -0.2446
    8SAPS  H11A  942   0.957   4.796  11.368 -0.7002  0.3465  1.5779
    8SAPS  H11B  943   0.853   4.678  11.451  0.2529 -3.0364 -1.3558
    8SAPS     P  944   0.761   4.699  11.192 -0.4399 -0.4740 -0.4889
    8SAPS   O13  945   0.673   4.598  11.126  0.2082 -0.1963  0.1085
    8SAPS   O14  946   0.693   4.790  11.287  0.3971  0.5297 -0.6224
    8SAPS   O12  947   0.894   4.627  11.258  0.4223  0.1639 -0.8988
    8SAPS   O11  948   0.828   4.788  11.079 -0.6706  0.3473  0.3261
    8SAPS    C1  949   0.939   4.751  10.990  1.1167 -0.0296  0.1153
    8SAPS    HA  950   1.011   4.836  10.985  1.4321 -0.2921  0.2022
    8SAPS    HB  951   0.989   4.658  11.025  0.4494 -1.1970 -1.9421
    8SAPS    C2  952   0.889   4.725  10.846 -0.1115 -0.2301 -0.1452
    8SAPS    HS  953   0.816   4.809  10.838  0.9854  0.7290 -0.3335
    8SAPS   O21  954   0.828   4.597  10.843  0.4500  0.0403 -0.5933
    8SAPS   C21  955   0.725   4.589  10.765  0.0979 -0.2174 -0.0224
    8SAPS   O22  956   0.677   4.686  10.705 -0.1183 -0.1372  0.4519
    8SAPS   C22  957   0.657   4.456  10.776 -0.7800  0.8018 -0.2201
    8SAPS   H2R  958   0.737   4.379  10.778  0.9064  2.4863 -0.7787
    8SAPS   H2S  959   0.613   4.467  10.877 -0.3250  0.7785 -0.0185
    8SAPS    C3  960   1.005   4.724  10.747  0.6235  0.3474 -0.4168
    8SAPS    HX  961   1.066   4.634  10.770  0.5299  0.6682  1.1068
    8SAPS    HY  962   1.086   4.800  10.742 -0.3008  1.3436 -0.3139
    8SAPS   O31  963   0.947   4.702  10.616  0.2865 -0.1877 -0.2364
    8SAPS   C31  964   0.911   4.819  10.564  0.0715 -0.0222  0.3709
    8SAPS   O32  965   0.936   4.928  10.613 -0.3943 -0.7306  0.3685
    8SAPS   C32  966   0.850   4.791  10.431  0.5644  0.8075 -0.5551
    8SAPS   H2X  967   0.763   4.726  10.450  0.0101  1.1558 -1.8801
    8SAPS   H2Y  968   0.917   4.743  10.356 -1.3386 -2.7058 -0.0891
    8SAPS   C23  969   0.556   4.431  10.667 -0.7671 -0.5287  0.3970
    8SAPS   H3R  970   0.600   4.447  10.567 -2.3695 -1.2822 -0.4339
    8SAPS   H3S  971   0.463   4.488  10.684 -0.2184  0.9373 -1.3537
    8SAPS   C24  972   0.511   4.288  10.682 -0.2761  0.8838 -0.0953
    8SAPS   H4R  973   0.457   4.270  10.777  0.1044 -0.6319 -0.1569
    8SAPS   H4S  974   0.600   4.221  10.684 -1.4805 -0.9077 -3.2213
    8SAPS   C25  975   0.418   4.245  10.563  0.3925  0.5604 -0.5075
    8SAPS   H5R  976   0.320   4.292  10.578  0.3258 -0.3034  2.0346
    8SAPS   C26  977   0.446   4.162  10.461  0.1073  0.1497 -0.5812
    8SAPS   H6R  978   0.358   4.135  10.402  0.6340 -4.2699  0.4998
    8SAPS   C27  979   0.578   4.097  10.427 -0.5857  0.1059 -0.0339
    8SAPS   H7R  980   0.654   4.095  10.508 -0.7946  1.6892  0.2197
    8SAPS   H7S  981   0.636   4.160  10.358 -1.0610 -1.6050 -2.0695
    8SAPS   C28  982   0.578   3.956  10.387 -0.1895 -0.4370 -0.7157
    8SAPS   H8R  983   0.611   3.884  10.464 -3.0957 -0.2644  0.7236
    8SAPS   C29  984   0.548   3.915  10.260  0.6897 -0.7058 -0.7860
    8SAPS   H9R  985   0.571   3.810  10.236  0.5132 -0.3597 -2.5245
    8SAPS  C210  986   0.521   4.013  10.147 -1.3889 -0.1456  0.8075
    8SAPS  H10R  987   0.491   4.115  10.177  2.9047  1.4266  0.0188
    8SAPS  H10S  988   0.428   3.968  10.105 -1.8002  0.4934  1.0372
    8SAPS  C211  989   0.640   4.001  10.049  0.4926 -0.8296 -0.7294
    8SAPS  H11R  990   0.721   4.058  10.098 -0.6089 -1.4230  1.8568
    8SAPS  C212  991   0.643   3.941   9.926  0.9248 -0.3272 -0.0661
    8SAPS  H12R  992   0.733   3.950   9.864  0.5490  0.2866 -0.5271
    8SAPS  C213  993   0.531   3.865   9.857  0.2150 -0.4836 -0.3680
    8SAPS  H13R  994   0.443   3.895   9.918 -2.0221  0.1936 -3.7571
    8SAPS  H13S  995   0.546   3.755   9.852  0.8067 -0.3551 -1.6782
    8SAPS  C214  996   0.496   3.927   9.719  0.2213 -0.6937 -0.2586
    8SAPS  H14R  997   0.418   4.003   9.704  1.8507  0.4831 -3.2293
    8SAPS  C215  998   0.569   3.888   9.610  0.8886 -0.0096 -0.2847
    8SAPS  H15R  999   0.538   3.934   9.515 -2.0955  2.9004  1.9859
    8SAPS  C216 1000   0.674   3.781   9.610  0.1130  0.1749 -0.4418
    8SAPS  H16R 1001   0.631   3.698   9.550 -1.7375  1.5160 -1.0291
    8SAPS  H16S 1002   0.700   3.741   9.710 -1.7417 -1.3533 -0.5314
    8SAPS  C217 1003   0.799   3.829   9.535  0.3239 -0.3516 -0.0533
    8SAPS  H17R 1004   0.877   3.749   9.544 -0.1220 -0.5860  2.0427
    8SAPS  H17S 1005   0.835   3.925   9.577  0.2101 -0.9504  1.4362
    8SAPS  C218 1006   0.779   3.850   9.382  0.7428 -0.1798 -0.3234
    8SAPS  H18R 1007   0.681   3.898   9.363  1.9590  1.9852 -1.3866
    8SAPS  H18S 1008   0.780   3.755   9.326 -0.2613 -1.0364  1.0814
    8SAPS  C219 1009   0.889   3.933   9.326 -0.0304 -0.9650 -0.6775
    8SAPS  H19R 1010   0.990   3.892   9.348  0.1165  0.0975  0.6814
    8SAPS  H19S 1011   0.878   4.034   9.371 -0.7821  0.4484 -3.8504
    8SAPS  C220 1012   0.881   3.960   9.184 -0.5277  0.5279  0.6819
    8SAPS  H20R 1013   0.969   4.025   9.164  0.5273 -1.7007 -2.3840
    8SAPS  H20S 1014   0.784   4.010   9.166 -1.7042 -2.0646 -0.4698
    8SAPS  H20T 1015   0.894   3.861   9.134 -1.8808  0.4133  0.5428
    8SAPS   C33 1016   0.793   4.916  10.364  0.0390 -1.3709 -0.4277
    8SAPS   H3X 1017   0.872   4.990  10.340  0.4268 -1.1806  1.3854
    8SAPS   H3Y 1018   0.714   4.960  10.428 -0.1822 -0.0164 -1.6107
    8SAPS   C34 1019   0.722   4.895  10.227  0.1558  0.0332  0.1260
    8SAPS   H4X 1020   0.714   4.998  10.187  2.6573 -0.1598 -0.9860
    8SAPS   H4Y 1021   0.614   4.872  10.232 -0.0748  1.2975  1.3852
    8SAPS   C35 1022   0.799   4.817  10.130  0.0943  0.2548 -0.2308
    8SAPS   H5X 1023   0.795   4.709  10.157  0.9122 -0.1400 -1.6336
    8SAPS   H5Y 1024   0.904   4.854  10.133  0.8865 -1.4768 -3.5738
    8SAPS   C36 1025   0.750   4.819   9.983 -0.5326  0.1795  0.0629
    8SAPS   H6X 1026   0.735   4.926   9.956  0.7083  0.3341 -0.0637
    8SAPS   H6Y 1027   0.651   4.769   9.989 -1.5934  1.6207 -4.0463
    8SAPS   C37 1028   0.853   4.758   9.884 -0.1673 -0.4778  0.9039
    8SAPS   H7X 1029   0.859   4.648   9.892 -1.3043 -0.5768  0.5151
    8SAPS   H7Y 1030   0.952   4.801   9.908  1.0605 -1.3828 -2.3486
    8SAPS   C38 1031   0.826   4.819   9.740  0.2181 -0.4098  0.6793
    8SAPS   H8X 1032   0.909   4.778   9.679  0.5648  0.1519  0.7646
    8SAPS   H8Y 1033   0.843   4.929   9.743 -1.4704 -0.1273  0.2769
    8SAPS   C39 1034   0.687   4.785   9.685 -0.4122  0.4867  0.4929
    8SAPS   H9X 1035   0.615   4.840   9.749 -0.0516  0.9434  0.5017
    8SAPS   H9Y 1036   0.670   4.675   9.696  0.1519  0.3750  0.2507
    8SAPS  C310 1037   0.661   4.820   9.540 -0.1712  0.3240 -0.3796
    8SAPS  H10X 1038   0.663   4.931   9.547 -2.7985  0.3328  1.2196
    8SAPS  H10Y 1039   0.561   4.779   9.512 -0.6849  1.3397 -0.0741
    8SAPS  C311 1040   0.775   4.768   9.443 -0.2617  0.0369  0.2649
    8SAPS  H11X 1041   0.792   4.659   9.458 -2.1932 -0.5167 -1.3181
    8SAPS  H11Y 1042   0.857   4.830   9.482 -0.6511 -0.5993  2.1487
    8SAPS  C312 1043   0.760   4.786   9.294  0.0837 -0.4437  1.0324
    8SAPS  H12X 1044   0.720   4.888   9.272  1.0369  0.3563  2.9111
    8SAPS  H12Y 1045   0.690   4.708   9.256  2.2105 -0.8394 -2.2254
    8SAPS  C313 1046   0.889   4.775   9.214  0.4097 -0.2443  0.3497
    8SAPS  H13X 1047   0.949   4.683   9.229 -0.9583 -1.4630 -1.4163
    8SAPS  H13Y 1048   0.958   4.855   9.245  0.4600 -0.9074  1.9813
    8SAPS  C314 1049   0.863   4.789   9.060 -0.0431 -0.4726 -0.2327
    8SAPS  H14X 1050   0.810   4.886   9.045 -1.9059 -1.3138  0.6977
    8SAPS  H14Y 1051   0.780   4.722   9.026  0.9839 -1.5116 -0.7144
    8SAPS  C315 1052   0.983   4.769   8.964  0.4633 -0.0174 -0.0389
    8SAPS  H15X 1053   1.004   4.660   8.964  0.4843 -0.0954  4.1679
    8SAPS  H15Y 1054   1.062   4.824   9.019  1.2714 -2.0031  0.8133
    8SAPS  C316 1055   0.963   4.826   8.821  0.5581 -0.8325 -0.3314
    8SAPS  H16X 1056   0.998   4.931   8.815 -0.6370 -0.3653  0.6998
    8SAPS  H16Y 1057   0.858   4.812   8.787  0.8710  0.6616 -1.9963
    8SAPS  C317 1058   1.048   4.749   8.716 -0.0246 -0.0899 -0.2405
    8SAPS  H17X 1059   1.046   4.797   8.616 -1.7590 -0.7786 -0.5484
    8SAPS  H17Y 1060   1.000   4.650   8.703 -1.7562  0.7469 -0.4227
    8SAPS  C318 1061   1.187   4.735   8.770 -0.9013 -0.3181  0.0482
    8SAPS  H18X 1062   1.247   4.673   8.701  0.5893  0.0485  0.9943
    8SAPS  H18Y 1063   1.197   4.673   8.861  3.5626  0.1419 -0.0125
    8SAPS  H18Z 1064   1.222   4.839   8.786 -1.0400 -0.2020 -0.3996
    9SAPS     N 1065   3.265   0.663   6.240  0.1200  0.0125  0.6747
    9SAPS   HN1 1066   3.249   0.716   6.328  0.0763  1.1024  0.0255
    9SAPS   HN2 1067   3.180   0.662   6.179 -0.8034  0.5200  1.9324
    9SAPS   HN3 1068   3.286   0.562   6.252  0.8193 -0.0743 -1.0559
    9SAPS   C12 1069   3.377   0.729   6.168 -0.2358 -0.0373 -0.5205
    9SAPS  H12A 1070   3.395   0.669   6.080 -0.2195  0.4772 -0.8709
    9SAPS   C13 1071   3.355   0.874   6.134  0.3080  0.0567  0.6649
    9SAPS  O13A 1072   3.258   0.936   6.189  0.2572 -0.1257 -0.0420
    9SAPS  O13B 1073   3.442   0.925   6.054  0.3082  0.5707 -0.3219
    9SAPS   C11 1074   3.502   0.714   6.263 -0.8133  0.8138 -1.0148
    9SAPS  H11A 1075   3.485   0.783   6.349 -1.6608  0.3831 -0.8349
    9SAPS  H11B 1076   3.589   0.749   6.203  0.5562  1.8911  1.5299
    9SAPS     P 1077   3.661   0.544   6.386  0.2727 -0.0274 -0.3543
    9SAPS   O13 1078   3.646   0.420   6.467 -0.3380  0.0641 -0.0070
    9SAPS   O14 1079   3.765   0.531   6.283  0.2346 -0.0835 -0.4280
    9SAPS   O12 1080   3.525   0.579   6.310 -0.2584 -0.0440 -0.1563
    9SAPS   O11 1081   3.678   0.670   6.475  0.2011  0.6759 -0.3460
    9SAPS    C1 1082   3.617   0.676   6.600  0.0086  0.1308 -0.0084
    9SAPS    HA 1083   3.508   0.660   6.588 -0.2578  0.5634  1.6918
    9SAPS    HB 1084   3.648   0.600   6.675  0.8042 -0.4933 -0.9529
    9SAPS    C2 1085   3.648   0.816   6.657 -0.0887 -0.6146 -0.5834
    9SAPS    HS 1086   3.754   0.831   6.631 -0.3130 -0.5461 -1.4860
    9SAPS   O21 1087   3.645   0.820   6.800 -0.7507 -0.7718  0.1080
    9SAPS   C21 1088   3.538   0.781   6.869 -0.3431 -0.3426 -0.3307
    9SAPS   O22 1089   3.434   0.748   6.816  0.0883  0.1928 -0.8674
    9SAPS   C22 1090   3.561   0.800   7.022  0.5785  0.6573  0.1611
    9SAPS   H2R 1091   3.635   0.719   7.036 -1.0096 -0.7566  0.5137
    9SAPS   H2S 1092   3.600   0.904   7.029 -0.0215  0.8293  1.0100
    9SAPS    C3 1093   3.557   0.923   6.594  0.1913 -0.5484  0.1107
    9SAPS    HX 1094   3.456   0.876   6.595  0.3434 -0.8755  0.3975
    9SAPS    HY 1095   3.580   0.917   6.486  0.2533 -0.4673  0.1198
    9SAPS   O31 1096   3.561   1.055   6.659  0.1365  0.8811 -0.0593
    9SAPS   C31 1097   3.666   1.135   6.628 -0.5468 -0.2496  0.3729
    9SAPS   O32 1098   3.750   1.111   6.540  0.6624 -0.2683 -0.0587
    9SAPS   C32 1099   3.668   1.266   6.696  0.2712 -0.2567  0.5673
    9SAPS   H2X 1100   3.591   1.255   6.775  0.1313 -1.0076  0.3274
    9SAPS   H2Y 1101   3.640   1.334   6.612 -1.2547 -1.9279 -0.3306
    9SAPS   C23 1102   3.440   0.783   7.120  0.3216  0.3767 -0.3699
    9SAPS   H3R 1103   3.368   0.704   7.091 -1.1750  1.5029  0.1850
    9SAPS   H3S 1104   3.378   0.876   7.116  1.2509  0.9434 -1.6948
    9SAPS   C24 1105   3.474   0.764   7.274  0.5171  1.0468 -0.0842
    9SAPS   H4R 1106   3.539   0.849   7.304  1.5886 -0.6432  2.6054
    9SAPS   H4S 1107   3.531   0.669   7.285 -0.3295  0.3804 -1.2654
    9SAPS   C25 1108   3.339   0.762   7.350  0.0686  0.2569 -0.4313
    9SAPS   H5R 1109   3.271   0.683   7.316 -1.1310  0.4657  1.4114
    9SAPS   C26 1110   3.302   0.838   7.457 -0.6936 -0.3916 -0.2762
    9SAPS   H6R 1111   3.202   0.822   7.501 -0.9047  0.8093 -0.2915
    9SAPS   C27 1112   3.383   0.948   7.513  0.3613  0.3084 -0.2577
    9SAPS   H7R 1113   3.321   1.039   7.505 -0.1438 -0.3234 -4.3634
    9SAPS   H7S 1114   3.473   0.966   7.451  0.0655  1.4504 -0.3496
    9SAPS   C28 1115   3.435   0.937   7.657 -0.3744 -0.0665  0.3806
    9SAPS   H8R 1116   3.532   0.887   7.665 -0.0665  0.7792  1.9293
    9SAPS   C29 1117   3.374   0.983   7.771 -0.5478  0.1289  0.5219
    9SAPS   H9R 1118   3.426   0.958   7.865  1.4880  1.7162 -0.1444
    9SAPS  C210 1119   3.241   1.060   7.787 -0.7549 -0.5305  0.7536
    9SAPS  H10R 1120   3.166   1.004   7.847  0.6180  0.3129  3.3432
    9SAPS  H10S 1121   3.201   1.094   7.689  1.6556 -0.7984 -0.3657
    9SAPS  C211 1122   3.274   1.190   7.856 -0.2558 -0.2535 -0.2237
    9SAPS  H11R 1123   3.278   1.275   7.787  0.7011  0.1512  0.3208
    9SAPS  C212 1124   3.279   1.220   7.983  0.3501 -0.1410  0.3024
    9SAPS  H12R 1125   3.300   1.322   8.019 -3.1469  0.7732 -0.0621
    9SAPS  C213 1126   3.253   1.112   8.089  0.1918  0.1600  0.0327
    9SAPS  H13R 1127   3.355   1.093   8.130  0.5462 -0.0425 -0.9389
    9SAPS  H13S 1128   3.214   1.021   8.040  0.4200  1.2072 -2.1296
    9SAPS  C214 1129   3.166   1.170   8.198 -0.4287  0.5818 -0.6343
    9SAPS  H14R 1130   3.059   1.156   8.175 -0.6491  1.3059 -0.0456
    9SAPS  C215 1131   3.212   1.225   8.309 -0.3433  0.1312  0.3604
    9SAPS  H15R 1132   3.133   1.271   8.370  0.3114  0.5239  0.9285
    9SAPS  C216 1133   3.354   1.252   8.346  0.2435 -0.8827 -0.2327
    9SAPS  H16R 1134   3.422   1.241   8.258 -1.1348 -0.9134 -1.3094
    9SAPS  H16S 1135   3.384   1.174   8.418 -0.9796 -1.6047 -0.4973
    9SAPS  C217 1136   3.374   1.394   8.398  0.3682  0.0120 -0.2470
    9SAPS  H17R 1137   3.324   1.473   8.339 -3.0120 -0.5020  1.7922
    9SAPS  H17S 1138   3.482   1.413   8.415  0.2446 -1.0103  1.8556
    9SAPS  C218 1139   3.324   1.411   8.551 -0.0378 -0.1986  0.8496
    9SAPS  H18R 1140   3.359   1.329   8.617  0.1191  0.2911  1.3792
    9SAPS  H18S 1141   3.213   1.407   8.552  0.0195 -3.5128 -0.5317
    9SAPS  C219 1142   3.381   1.539   8.612 -0.1172 -0.2312 -0.4088
    9SAPS  H19R 1143   3.489   1.546   8.586 -0.1558 -1.5977 -0.9989
    9SAPS  H19S 1144   3.370   1.533   8.722  0.8321  0.1254 -0.2862
    9SAPS  C220 1145   3.311   1.669   8.555 -0.4130 -0.0223 -0.3127
    9SAPS  H20R 1146   3.359   1.757   8.602 -0.3298  0.8990 -2.0894
    9SAPS  H20S 1147   3.201   1.656   8.573 -0.4168 -1.0489 -0.9997
    9SAPS  H20T 1148   3.319   1.671   8.444  0.0374  0.5162 -0.2707
    9SAPS   C33 1149   3.801   1.304   6.747 -0.1422 -0.8724  0.0978
    9SAPS   H3X 1150   3.799   1.410   6.780 -0.2274 -0.2379 -1.8738
    9SAPS   H3Y 1151   3.889   1.298   6.681  1.5969  1.5881  2.0927
    9SAPS   C34 1152   3.837   1.219   6.870  0.7765 -0.1175 -0.3319
    9SAPS   H4X 1153   3.946   1.220   6.893  0.7543 -1.7420 -0.1256
    9SAPS   H4Y 1154   3.820   1.115   6.836 -1.5743 -0.3987  1.5783
    9SAPS   C35 1155   3.756   1.235   6.996 -0.1905 -0.0561  0.6184
    9SAPS   H5X 1156   3.646   1.235   6.975  0.4870  1.2161 -3.3377
    9SAPS   H5Y 1157   3.776   1.337   7.034 -0.3734  0.4879 -0.6926
    9SAPS   C36 1158   3.795   1.132   7.104 -0.0919  0.0170 -0.0691
    9SAPS   H6X 1159   3.901   1.147   7.133 -0.7046  1.1425  1.6661
    9SAPS   H6Y 1160   3.788   1.025   7.074 -1.8480  0.1844 -0.3139
    9SAPS   C37 1161   3.711   1.148   7.232  0.1394  0.3391 -0.5074
    9SAPS   H7X 1162   3.757   1.080   7.307  2.1524  1.8580 -0.3202
    9SAPS   H7Y 1163   3.602   1.132   7.224 -0.3998  3.5611 -0.3517
    9SAPS   C38 1164   3.722   1.284   7.301 -0.1173 -0.3206  0.1125
    9SAPS   H8X 1165   3.677   1.360   7.233 -0.0974  0.6428  1.1684
    9SAPS   H8Y 1166   3.827   1.319   7.314 -0.7555  1.9285 -0.5848
    9SAPS   C39 1167   3.641   1.287   7.435 -0.0764 -0.3097  0.4995
    9SAPS   H9X 1168   3.537   1.250   7.429 -0.6809  1.5023 -0.4225
    9SAPS   H9Y 1169   3.638   1.393   7.466  1.7448  0.6918 -2.5983
    9SAPS  C310 1170   3.706   1.194   7.539 -1.1733 -0.1861  0.0645
    9SAPS  H10X 1171   3.813   1.218   7.520 -1.5849  0.3736 -1.6382
    9SAPS  H10Y 1172   3.694   1.087   7.512 -1.0085 -0.1270 -0.2415
    9SAPS  C311 1173   3.671   1.212   7.688 -0.3381 -0.5444  0.1517
    9SAPS  H11X 1174   3.703   1.115   7.733 -0.6719 -0.2013  1.1508
    9SAPS  H11Y 1175   3.560   1.211   7.691 -0.3041 -0.9456  2.4534
    9SAPS  C312 1176   3.721   1.347   7.752 -0.1404 -0.3786  0.0893
    9SAPS  H12X 1177   3.662   1.431   7.709 -0.4050 -0.2077  0.7792
    9SAPS  H12Y 1178   3.830   1.365   7.735 -0.2859  1.1146  0.6755
    9SAPS  C313 1179   3.698   1.350   7.907 -0.4322 -0.5455  0.2703
    9SAPS  H13X 1180   3.724   1.250   7.949  0.3535 -0.1008  0.8768
    9SAPS  H13Y 1181   3.593   1.376   7.929 -0.5429 -0.7184 -0.0609
    9SAPS  C314 1182   3.808   1.440   7.971  0.1308 -0.1370 -0.2694
    9SAPS  H14X 1183   3.792   1.544   7.935  1.4961 -0.3819 -1.6147
    9SAPS  H14Y 1184   3.912   1.415   7.942  0.0493 -0.1844 -0.5216
    9SAPS  C315 1185   3.805   1.450   8.122  0.5981  0.6488  0.0303
    9SAPS  H15X 1186   3.715   1.511   8.143 -0.8709 -1.1349 -1.0102
    9SAPS  H15Y 1187   3.888   1.515   8.158 -1.1817  1.3328  3.0300
    9SAPS  C316 1188   3.803   1.313   8.199  0.2657 -0.6918 -0.1881
    9SAPS  H16X 1189   3.896   1.258   8.173 -0.3715 -2.2737  0.7962
    9SAPS  H16Y 1190   3.712   1.260   8.165  0.5886 -2.7363  2.0014
    9SAPS  C317 1191   3.806   1.344   8.349 -0.2368 -0.4925  0.4472
    9SAPS  H17X 1192   3.719   1.407   8.376  1.2525  0.8420  2.3333
    9SAPS  H17Y 1193   3.896   1.404   8.374 -1.4857  0.5283  2.6310
    9SAPS  C318 1194   3.814   1.210   8.427  0.5701 -0.6770  0.1083
    9SAPS  H18X 1195   3.843   1.234   8.532 -1.0223 -2.0346  0.8820
    9SAPS  H18Y 1196   3.886   1.149   8.368  0.2669 -1.3067  0.3816
    9SAPS  H18Z 1197   3.721   1.150   8.424  1.4555 -2.0437 -0.4418
   10SAPS     N 1198   3.457   0.178   6.116 -0.3971 -0.5046  0.2547
   10SAPS   HN1 1199   3.474   0.076   6.114  1.3574 -0.2750  2.3527
   10SAPS   HN2 1200   3.400   0.198   6.031  0.8521  0.7338 -0.3020
   10SAPS   HN3 1201   3.548   0.228   6.111 -1.8208  1.9747 -2.2392
   10SAPS   C12 1202   3.376   0.208   6.237  0.1384 -0.5017  0.4957
   10SAPS  H12A 1203   3.445   0.218   6.321 -2.3182  1.7120  2.3333
   10SAPS   C13 1204   3.313   0.349   6.228 -0.8436 -0.3713 -0.4004
   10SAPS  O13A 1205   3.300   0.406   6.115  0.1307 -0.6506  0.5743
   10SAPS  O13B 1206   3.260   0.402   6.327 -0.6653  0.1986  0.4415
   10SAPS   C11 1207   3.264   0.099   6.251  0.2441  0.4548 -0.4313
   10SAPS  H11A 1208   3.208   0.102   6.156 -2.3236  1.0422  1.0464
   10SAPS  H11B 1209   3.206   0.120   6.344  1.5855  1.0524  0.2878
   10SAPS     P 1210   3.245  -0.145   6.345 -0.1965 -0.1558 -0.0950
   10SAPS   O13 1211   3.099  -0.144   6.312 -0.3464  0.0905  0.0721
   10SAPS   O14 1212   3.312  -0.268   6.320  0.0828  0.0999  0.1626
   10SAPS   O12 1213   3.315  -0.033   6.252 -0.3356 -0.1207 -0.1671
   10SAPS   O11 1214   3.269  -0.096   6.491 -0.7778 -0.2977 -0.6174
   10SAPS    C1 1215   3.369  -0.002   6.541 -0.6391  0.1324 -0.6595
   10SAPS    HA 1216   3.429   0.059   6.470 -2.0962  2.1236 -0.2137
   10SAPS    HB 1217   3.312   0.059   6.615 -0.0871 -0.5019  0.3067
   10SAPS    C2 1218   3.480  -0.078   6.622  0.2206  0.2226  0.0846
   10SAPS    HS 1219   3.542  -0.134   6.549  2.3161  1.4808  0.8608
   10SAPS   O21 1220   3.404  -0.172   6.705 -0.1058  0.0662 -0.1903
   10SAPS   C21 1221   3.467  -0.275   6.756 -0.4099  0.0405 -0.0618
   10SAPS   O22 1222   3.590  -0.294   6.742  0.3878  0.3833 -0.8595
   10SAPS   C22 1223   3.368  -0.362   6.838  0.2935  0.0887 -0.0933
   10SAPS   H2R 1224   3.263  -0.329   6.819  0.7137  0.7750 -1.3511
   10SAPS   H2S 1225   3.370  -0.461   6.789 -0.9224  0.4241 -0.8608
   10SAPS    C3 1226   3.571   0.010   6.708 -0.4900 -0.1773 -0.0522
   10SAPS    HX 1227   3.636   0.070   6.641  0.7447 -0.1107  1.1717
   10SAPS    HY 1228   3.643  -0.050   6.767 -2.0313 -0.1725  1.8993
   10SAPS   O31 1229   3.501   0.099   6.795 -0.1116  0.2296  0.3253
   10SAPS   C31 1230   3.570   0.206   6.848  0.4025  0.2199  0.7076
   10SAPS   O32 1231   3.689   0.212   6.859  0.0182 -0.6463 -0.1324
   10SAPS   C32 1232   3.473   0.311   6.900  0.4488  0.1437  1.0345
   10SAPS   H2X 1233   3.387   0.270   6.957 -0.5849 -0.4893 -0.9184
   10SAPS   H2Y 1234   3.429   0.374   6.821  0.6966 -0.8600  0.0776
   10SAPS   C23 1235   3.410  -0.359   6.985  0.2403 -0.3141  0.0938
   10SAPS   H3R 1236   3.521  -0.366   6.983  0.3233 -0.5235  3.1936
   10SAPS   H3S 1237   3.375  -0.456   7.027  1.9622 -1.1394 -0.3045
   10SAPS   C24 1238   3.365  -0.244   7.082  0.5809  0.1597 -0.3137
   10SAPS   H4R 1239   3.357  -0.283   7.186  1.4976  1.0805  0.1024
   10SAPS   H4S 1240   3.259  -0.226   7.054  0.0534 -2.1534  0.0802
   10SAPS   C25 1241   3.444  -0.117   7.080  0.3800 -0.7231  0.0250
   10SAPS   H5R 1242   3.451  -0.068   6.982 -3.5679 -1.1634 -0.5409
   10SAPS   C26 1243   3.486  -0.040   7.185 -0.4250 -0.1212 -0.0749
   10SAPS   H6R 1244   3.542   0.053   7.171  2.7600 -1.5240  2.5908
   10SAPS   C27 1245   3.481  -0.071   7.333 -0.6007 -0.3589  0.5036
   10SAPS   H7R 1246   3.575  -0.032   7.377  0.4977 -0.6114 -1.5376
   10SAPS   H7S 1247   3.512  -0.178   7.340  1.1362  0.1407  0.5934
   10SAPS   C28 1248   3.350  -0.057   7.403 -0.0300 -0.5178  0.5611
   10SAPS   H8R 1249   3.262  -0.046   7.338  0.8858 -1.2079 -0.8151
   10SAPS   C29 1250   3.330  -0.066   7.538 -0.7887 -0.1553 -0.1020
   10SAPS   H9R 1251   3.226  -0.055   7.571 -1.1259  0.8381 -1.4182
   10SAPS  C210 1252   3.450  -0.073   7.641 -0.1158 -0.6300 -0.4172
   10SAPS  H10R 1253   3.516   0.015   7.657 -0.7433 -0.0475 -0.9911
   10SAPS  H10S 1254   3.519  -0.150   7.601  0.0002 -0.4338 -0.5977
   10SAPS  C211 1255   3.413  -0.106   7.782 -0.2660  0.8314 -0.1331
   10SAPS  H11R 1256   3.305  -0.108   7.801 -0.1242  0.8603  0.6701
   10SAPS  C212 1257   3.494  -0.139   7.885 -0.0881  0.7900 -0.6561
   10SAPS  H12R 1258   3.442  -0.176   7.976 -0.6663  0.8613 -0.9515
   10SAPS  C213 1259   3.645  -0.147   7.876 -0.3007 -0.2704  0.3679
   10SAPS  H13R 1260   3.680  -0.169   7.773 -2.3944  2.0127 -0.8827
   10SAPS  H13S 1261   3.690  -0.231   7.933  2.0204 -1.3544 -2.9405
   10SAPS  C214 1262   3.704  -0.017   7.926 -0.2068  0.8135 -0.1284
   10SAPS  H14R 1263   3.672   0.015   8.026 -0.4703 -0.7477  0.3137
   10SAPS  C215 1264   3.777   0.071   7.860  0.7102 -0.1896  0.3251
   10SAPS  H15R 1265   3.829   0.147   7.920  0.5103 -1.2005  1.7922
   10SAPS  C216 1266   3.830   0.084   7.718 -0.0030 -0.5045  0.8030
   10SAPS  H16R 1267   3.746   0.068   7.647 -1.1772  0.2473  1.9962
   10SAPS  H16S 1268   3.906   0.003   7.706 -0.9293 -0.9940 -2.1829
   10SAPS  C217 1269   3.902   0.217   7.667  0.1769  0.1583  0.9315
   10SAPS  H17R 1270   4.006   0.219   7.705  0.8796  1.6389 -1.0283
   10SAPS  H17S 1271   3.855   0.303   7.719 -1.1725  0.2910 -0.4793
   10SAPS  C218 1272   3.889   0.226   7.516 -0.1343 -0.3911  0.3439
   10SAPS  H18R 1273   3.957   0.305   7.479 -0.6658 -0.9555 -1.9120
   10SAPS  H18S 1274   3.782   0.250   7.499  0.1026  1.7063  1.6460
   10SAPS  C219 1275   3.908   0.094   7.434  0.1419  0.7448 -0.8121
   10SAPS  H19R 1276   3.825   0.026   7.465  0.5950  0.6312  0.1673
   10SAPS  H19S 1277   4.010   0.051   7.442 -0.5661 -0.6220  1.4744
   10SAPS  C220 1278   3.894   0.134   7.287  0.1776 -0.5758  0.4691
   10SAPS  H20R 1279   3.972   0.211   7.270 -0.1480 -0.3905 -0.1915
   10SAPS  H20S 1280   3.804   0.177   7.238  2.2845  1.7611 -1.4552
   10SAPS  H20T 1281   3.916   0.046   7.224 -1.1118  1.1796 -2.5698
   10SAPS   C33 1282   3.542   0.425   6.984  0.0299  0.2715  0.3774
   10SAPS   H3X 1283   3.473   0.511   6.997 -0.1578  0.2023 -0.1541
   10SAPS   H3Y 1284   3.628   0.465   6.927  2.0239 -4.2920 -0.0531
   10SAPS   C34 1285   3.598   0.385   7.124  0.5099 -0.0002 -0.0936
   10SAPS   H4X 1286   3.663   0.468   7.161 -1.6863  1.2757  1.0217
   10SAPS   H4Y 1287   3.648   0.287   7.110 -0.5762 -0.4450 -0.9377
   10SAPS   C35 1288   3.485   0.358   7.225 -0.8775  0.0897  0.0611
   10SAPS   H5X 1289   3.425   0.273   7.188 -1.1759  0.9108 -1.3797
   10SAPS   H5Y 1290   3.435   0.455   7.245 -1.5125 -0.4237  0.9980
   10SAPS   C36 1291   3.535   0.323   7.369  0.2478 -0.7643  0.1391
   10SAPS   H6X 1292   3.607   0.400   7.401 -0.0911 -0.0103 -0.8836
   10SAPS   H6Y 1293   3.595   0.231   7.351 -1.8992 -2.1196 -0.2942
   10SAPS   C37 1294   3.430   0.308   7.481 -0.2432  0.3363 -0.5175
   10SAPS   H7X 1295   3.394   0.203   7.483 -0.4404  0.3957 -0.8520
   10SAPS   H7Y 1296   3.352   0.384   7.457 -1.1966  0.0312  1.5280
   10SAPS   C38 1297   3.494   0.335   7.615 -0.6671  0.7596 -0.1412
   10SAPS   H8X 1298   3.529   0.441   7.623 -1.3026  0.8593  1.5128
   10SAPS   H8Y 1299   3.585   0.276   7.640 -0.7995  0.4072 -0.4902
   10SAPS   C39 1300   3.401   0.326   7.729 -0.1415 -0.3934 -0.6029
   10SAPS   H9X 1301   3.363   0.223   7.714 -1.9906  0.3206 -0.9686
   10SAPS   H9Y 1302   3.312   0.393   7.732 -1.8442 -2.6380  0.1054
   10SAPS  C310 1303   3.475   0.333   7.864  0.3198  0.2719 -0.1946
   10SAPS  H10X 1304   3.520   0.434   7.875  1.2361 -0.0071 -1.2778
   10SAPS  H10Y 1305   3.559   0.260   7.860  1.0556  1.0821  0.2759
   10SAPS  C311 1306   3.393   0.294   7.981 -0.3158  0.4964 -0.8837
   10SAPS  H11X 1307   3.324   0.211   7.953 -3.4060  2.7166 -0.1172
   10SAPS  H11Y 1308   3.330   0.384   7.997  3.5583  3.5941 -2.3455
   10SAPS  C312 1309   3.476   0.253   8.098  0.3699  0.0218 -0.0537
   10SAPS  H12X 1310   3.546   0.330   8.138 -1.0280  0.9502  0.6719
   10SAPS  H12Y 1311   3.534   0.168   8.057  1.1362  0.3778  0.2824
   10SAPS  C313 1312   3.389   0.210   8.224 -0.1684  0.4658 -0.3605
   10SAPS  H13X 1313   3.322   0.127   8.192  0.6728 -1.0787  1.7305
   10SAPS  H13Y 1314   3.336   0.303   8.252  1.5162  1.9840 -2.0626
   10SAPS  C314 1315   3.485   0.175   8.336 -0.5654 -0.7391  0.6508
   10SAPS  H14X 1316   3.550   0.260   8.365 -1.6943  0.7717 -1.1405
   10SAPS  H14Y 1317   3.545   0.090   8.297  2.1381  0.3344  2.3293
   10SAPS  C315 1318   3.420   0.135   8.467  0.4206 -0.1140  0.0557
   10SAPS  H15X 1319   3.334   0.067   8.451 -0.3941  0.8072  0.4498
   10SAPS  H15Y 1320   3.387   0.229   8.516 -2.6884  0.1993 -2.5233
   10SAPS  C316 1321   3.519   0.067   8.550 -0.8780  0.3701 -0.3281
   10SAPS  H16X 1322   3.612   0.128   8.542  1.5896 -3.1087  0.5034
   10SAPS  H16Y 1323   3.543  -0.036   8.517  2.7534 -0.3080  3.8331
   10SAPS  C317 1324   3.468   0.060   8.701 -0.0255 -0.5209  0.4150
   10SAPS  H17X 1325   3.372   0.004   8.702 -0.6715  0.4336 -2.5932
   10SAPS  H17Y 1326   3.445   0.163   8.738  1.6734  1.0503 -2.7009
   10SAPS  C318 1327   3.557  -0.006   8.796 -0.3537 -0.4699  0.1629
   10SAPS  H18X 1328   3.549  -0.116   8.799 -0.0145 -0.4529  5.3828
   10SAPS  H18Y 1329   3.537   0.032   8.898 -0.8068  2.1015 -0.8379
   10SAPS  H18Z 1330   3.662   0.021   8.772 -0.2372 -0.5094  0.6204
   11SAPS     N 1331   5.497   2.300   5.828  0.0726 -0.0834 -0.2520
   11SAPS   HN1 1332   5.537   2.206   5.809 -2.0919 -1.2483  0.7365
   11SAPS   HN2 1333   5.530   2.336   5.920  0.9317  2.0826 -1.3703
   11SAPS   HN3 1334   5.393   2.296   5.828 -0.0085  1.4917  0.4047
   11SAPS   C12 1335   5.551   2.400   5.728 -0.3042  0.2715 -0.4801
   11SAPS  H12A 1336   5.657   2.381   5.728 -0.1841  0.8774 -2.4026
   11SAPS   C13 1337   5.499   2.369   5.591  0.5801 -0.2580  0.7925
   11SAPS  O13A 1338   5.425   2.270   5.567 -0.1734 -0.0436 -0.0750
   11SAPS  O13B 1339   5.550   2.429   5.488  0.0072 -0.0141 -0.4019
   11SAPS   C11 1340   5.520   2.545   5.780  0.1958  0.5697  0.6378
   11SAPS  H11A 1341   5.415   2.575   5.763 -0.6985 -2.1168  1.1843
   11SAPS  H11B 1342   5.588   2.609   5.719  0.7632  1.3129  2.0343
   11SAPS     P 1343   5.565   2.695   5.987  0.9958 -0.3966  0.4143
   11SAPS   O13 1344   5.691   2.692   6.063 -0.5753  0.4138  0.0243
   11SAPS   O14 1345   5.544   2.797   5.884  0.5008  0.4543  0.1682
   11SAPS   O12 1346   5.554   2.550   5.921  0.7578  0.4376 -0.3622
   11SAPS   O11 1347   5.433   2.691   6.086 -1.0347 -0.5400 -0.6199
   11SAPS    C1 1348   5.434   2.603   6.198 -0.0601  0.1316 -0.7691
   11SAPS    HA 1349   5.491   2.509   6.186 -1.1260 -0.2458 -3.1030
   11SAPS    HB 1350   5.474   2.659   6.286 -1.2448  1.1784 -0.8717
   11SAPS    C2 1351   5.290   2.572   6.240 -0.6296 -0.0094  0.6152
   11SAPS    HS 1352   5.232   2.554   6.146 -0.7868 -1.0362  0.9043
   11SAPS   O21 1353   5.236   2.691   6.292 -0.2858 -0.4514 -0.5335
   11SAPS   C21 1354   5.107   2.697   6.309  0.1758  0.1589  0.5919
   11SAPS   O22 1355   5.028   2.611   6.267  0.4297  0.1685 -0.5856
   11SAPS   C22 1356   5.075   2.819   6.385 -0.1322 -0.5278  0.4526
   11SAPS   H2R 1357   5.107   2.909   6.327 -2.8877 -0.9591 -1.8301
   11SAPS   H2S 1358   4.965   2.833   6.386 -0.0571  0.3362 -1.2869
   11SAPS    C3 1359   5.287   2.454   6.336  0.5521  0.1331  0.4677
   11SAPS    HX 1360   5.323   2.359   6.291  1.1681  0.7946 -0.4442
   11SAPS    HY 1361   5.179   2.434   6.351 -0.0842  1.3733 -2.1997
   11SAPS   O31 1362   5.346   2.486   6.471 -0.0036  0.2175  0.2856
   11SAPS   C31 1363   5.443   2.407   6.499  0.4907  0.1519  0.4092
   11SAPS   O32 1364   5.475   2.310   6.432 -0.0500 -0.4909 -0.7760
   11SAPS   C32 1365   5.516   2.436   6.633 -0.2308 -0.7353  0.5613
   11SAPS   H2X 1366   5.557   2.536   6.610  0.5495 -1.7153 -2.4875
   11SAPS   H2Y 1367   5.603   2.366   6.640  2.5008  2.6915  2.2467
   11SAPS   C23 1368   5.125   2.841   6.528  0.2955 -0.0026  0.5832
   11SAPS   H3R 1369   5.076   2.929   6.575  0.6043  0.9176 -0.7971
   11SAPS   H3S 1370   5.235   2.856   6.524  0.2229  0.1350 -0.9283
   11SAPS   C24 1371   5.106   2.721   6.624  0.4996 -0.0786 -0.0265
   11SAPS   H4R 1372   5.139   2.739   6.729  0.5374 -2.1541  0.3439
   11SAPS   H4S 1373   5.169   2.640   6.582 -0.8163 -0.6357 -0.9463
   11SAPS   C25 1374   4.965   2.671   6.619 -0.1025  0.5331  0.2830
   11SAPS   H5R 1375   4.942   2.623   6.523  2.7100  1.1350 -0.7241
   11SAPS   C26 1376   4.872   2.683   6.714  0.1016  0.4748 -0.5985
   11SAPS   H6R 1377   4.777   2.629   6.701 -0.1449 -0.3275  3.6597
   11SAPS   C27 1378   4.899   2.741   6.853 -0.2073  0.1131  0.0919
   11SAPS   H7R 1379   4.801   2.790   6.873  0.4438  1.3516  0.3048
   11SAPS   H7S 1380   4.973   2.824   6.849 -0.6044  0.6197  2.2661
   11SAPS   C28 1381   4.928   2.631   6.951 -0.3033  0.1683 -0.0085
   11SAPS   H8R 1382   5.013   2.564   6.930  0.6627  0.8298  1.6541
   11SAPS   C29 1383   4.866   2.602   7.076 -0.4570 -0.4704  0.6778
   11SAPS   H9R 1384   4.919   2.527   7.137  2.8379 -0.0554 -1.5450
   11SAPS  C210 1385   4.755   2.673   7.156  0.3006  0.0494  0.1716
   11SAPS  H10R 1386   4.787   2.779   7.167  0.0919  0.1742 -0.4278
   11SAPS  H10S 1387   4.763   2.645   7.264  1.7770  1.1792  0.3771
   11SAPS  C211 1388   4.615   2.656   7.111  0.1731  0.6224  0.0615
   11SAPS  H11R 1389   4.587   2.570   7.047  0.4171 -0.5324  1.4695
   11SAPS  C212 1390   4.513   2.738   7.146  0.0747  0.3180  0.1999
   11SAPS  H12R 1391   4.413   2.720   7.104 -0.9329  2.0170  1.7803
   11SAPS  C213 1392   4.524   2.861   7.232 -0.3926 -0.8772  0.4802
   11SAPS  H13R 1393   4.595   2.935   7.189  0.7269 -1.2277  1.6750
   11SAPS  H13S 1394   4.563   2.840   7.334  0.9795 -0.0743  0.1385
   11SAPS  C214 1395   4.389   2.929   7.245  0.7464  0.6744 -0.4638
   11SAPS  H14R 1396   4.344   2.992   7.167 -0.2506  0.9308  0.3085
   11SAPS  C215 1397   4.310   2.925   7.347 -0.6195  0.3968 -0.1728
   11SAPS  H15R 1398   4.221   2.990   7.344 -1.6289 -0.9661 -0.2118
   11SAPS  C216 1399   4.339   2.857   7.475 -0.0219 -0.0738 -1.0093
   11SAPS  H16R 1400   4.398   2.765   7.457 -0.0145 -0.4686  0.9458
   11SAPS  H16S 1401   4.237   2.833   7.514  0.7712 -0.7366  0.7066
   11SAPS  C217 1402   4.421   2.942   7.570 -0.6883 -0.5290 -0.5006
   11SAPS  H17R 1403   4.373   3.040   7.591 -0.4601 -0.6509  0.6463
   11SAPS  H17S 1404   4.516   2.966   7.517 -0.4813 -0.0933  0.0492
   11SAPS  C218 1405   4.438   2.879   7.704  0.0941  0.1572  0.2793
   11SAPS  H18R 1406   4.475   2.776   7.690  0.8277  0.6350 -1.3717
   11SAPS  H18S 1407   4.333   2.860   7.737 -0.2893  0.3194 -0.8113
   11SAPS  C219 1408   4.519   2.946   7.816  0.1721  0.1342  0.2286
   11SAPS  H19R 1409   4.626   2.962   7.789  1.1468  0.4016  3.8649
   11SAPS  H19S 1410   4.506   2.871   7.897  2.2997  0.6764  1.1148
   11SAPS  C220 1411   4.452   3.082   7.860  0.0081 -0.7999  0.2013
   11SAPS  H20R 1412   4.341   3.082   7.858  0.0003  0.3024  0.8141
   11SAPS  H20S 1413   4.494   3.165   7.800  2.2729 -1.5077  0.7524
   11SAPS  H20T 1414   4.489   3.102   7.963 -2.7210  1.6343  0.7669
   11SAPS   C33 1415   5.422   2.430   6.752 -0.5108 -0.3812 -0.5581
   11SAPS   H3X 1416   5.368   2.333   6.759 -0.5544 -0.4614 -1.7808
   11SAPS   H3Y 1417   5.353   2.515   6.733  1.5941  1.3915 -0.5295
   11SAPS   C34 1418   5.482   2.464   6.894  1.1793 -0.0065 -0.0962
   11SAPS   H4X 1419   5.551   2.550   6.880 -0.0652  1.2226  1.2468
   11SAPS   H4Y 1420   5.542   2.387   6.948  3.6022  0.7223 -1.6624
   11SAPS   C35 1421   5.369   2.488   6.998 -0.0798  0.3493  0.2502
   11SAPS   H5X 1422   5.286   2.415   6.986  0.5174 -0.2553 -0.2716
   11SAPS   H5Y 1423   5.318   2.584   6.974 -1.9654 -0.9835 -1.2890
   11SAPS   C36 1424   5.418   2.478   7.145 -1.0512 -0.4278 -0.6949
   11SAPS   H6X 1425   5.491   2.553   7.182 -0.9534 -0.4333 -0.8778
   11SAPS   H6Y 1426   5.468   2.379   7.153  2.5452  1.3471 -0.0554
   11SAPS   C37 1427   5.299   2.474   7.245  0.0765  0.4041 -0.0836
   11SAPS   H7X 1428   5.327   2.439   7.347 -2.0976  1.0026  0.7491
   11SAPS   H7Y 1429   5.229   2.393   7.213  1.1476  1.1325 -4.6438
   11SAPS   C38 1430   5.229   2.613   7.266  0.0423  0.3090  0.2096
   11SAPS   H8X 1431   5.176   2.634   7.170 -1.1940 -0.8162  0.6207
   11SAPS   H8Y 1432   5.308   2.690   7.276  0.4870 -0.2392  0.9718
   11SAPS   C39 1433   5.128   2.611   7.380 -0.0083  0.5345 -0.3005
   11SAPS   H9X 1434   5.048   2.546   7.340  0.3865  0.0912 -0.3837
   11SAPS   H9Y 1435   5.100   2.718   7.377 -1.2735  0.1877 -0.8885
   11SAPS  C310 1436   5.182   2.572   7.512  0.2520  0.0372 -0.1594
   11SAPS  H10X 1437   5.178   2.461   7.512  2.1186 -0.1017  3.1638
   11SAPS  H10Y 1438   5.107   2.606   7.586 -0.9412  0.8478 -1.7160
   11SAPS  C311 1439   5.321   2.620   7.551 -0.3252  0.2412  0.5604
   11SAPS  H11X 1440   5.339   2.721   7.510  0.7431 -0.2298 -0.1614
   11SAPS  H11Y 1441   5.404   2.556   7.513 -0.1925 -1.1609  3.1141
   11SAPS  C312 1442   5.340   2.613   7.701  0.5328  0.1568 -0.3550
   11SAPS  H12X 1443   5.447   2.639   7.713  0.7572 -1.6832  2.1243
   11SAPS  H12Y 1444   5.331   2.509   7.738  1.3465 -0.0710 -0.7807
   11SAPS  C313 1445   5.258   2.705   7.787  0.1124 -0.1114 -0.2118
   11SAPS  H13X 1446   5.154   2.668   7.798  0.6406 -1.6566 -0.2795
   11SAPS  H13Y 1447   5.252   2.804   7.737  0.2046  1.2916  2.4575
   11SAPS  C314 1448   5.326   2.728   7.920 -0.3082 -0.0842 -0.6820
   11SAPS  H14X 1449   5.269   2.804   7.977  0.1487  0.4025 -0.8692
   11SAPS  H14Y 1450   5.428   2.771   7.910 -1.0755  1.2918 -2.7765
   11SAPS  C315 1451   5.328   2.599   8.008 -0.3015  0.1135  0.1397
   11SAPS  H15X 1452   5.395   2.526   7.958 -0.2070  0.5376 -0.3633
   11SAPS  H15Y 1453   5.227   2.553   8.020  0.4401 -1.6149 -0.1092
   11SAPS  C316 1454   5.390   2.637   8.136  0.3888 -0.2214  0.1596
   11SAPS  H16X 1455   5.310   2.696   8.187 -0.7929 -0.3448 -1.4939
   11SAPS  H16Y 1456   5.485   2.694   8.132 -2.2477  4.5738  1.3572
   11SAPS  C317 1457   5.415   2.508   8.224  0.3147 -0.5976  0.0746
   11SAPS  H17X 1458   5.474   2.431   8.169  2.4584  1.9718 -1.3181
   11SAPS  H17Y 1459   5.323   2.459   8.263  0.6064 -1.6598 -0.5374
   11SAPS  C318 1460   5.503   2.551   8.350 -0.1834 -0.4998  0.8695
   11SAPS  H18X 1461   5.450   2.631   8.406  0.4846 -0.2525  1.1434
   11SAPS  H18Y 1462   5.598   2.599   8.320  0.8001 -0.5587  3.7850
   11SAPS  H18Z 1463   5.522   2.469   8.423 -0.2975  0.0995  1.5802
   12SAPS     N 1464   4.799   3.659   6.004  0.0831 -0.1955 -0.1947
   12SAPS   HN1 1465   4.743   3.620   5.925  1.7726 -3.8929  0.3370
   12SAPS   HN2 1466   4.901   3.639   5.996  0.1055  0.1614 -0.8117
   12SAPS   HN3 1467   4.764   3.620   6.094  0.4843  0.3747  0.2093
   12SAPS   C12 1468   4.780   3.804   6.011 -0.0729  0.5864 -0.2296
   12SAPS  H12A 1469   4.854   3.849   5.947  0.3599 -0.2977 -0.3482
   12SAPS   C13 1470   4.635   3.834   5.948  0.2980  0.9042  0.2073
   12SAPS  O13A 1471   4.562   3.748   5.894 -0.6214 -0.3731 -0.1235
   12SAPS  O13B 1472   4.583   3.945   5.975  0.4018 -0.0158  0.6150
   12SAPS   C11 1473   4.800   3.861   6.157 -0.4543  1.0940 -0.0689
   12SAPS  H11A 1474   4.732   3.811   6.229  0.2041  1.3441  0.7457
   12SAPS  H11B 1475   4.789   3.971   6.153 -0.3608  1.1393  0.8402
   12SAPS     P 1476   5.057   3.922   6.222 -0.1090  0.0501 -0.1387
   12SAPS   O13 1477   5.172   3.835   6.257 -0.3629 -0.5333  0.1934
   12SAPS   O14 1478   5.074   4.013   6.106 -0.0618  0.6706  0.0250
   12SAPS   O12 1479   4.935   3.832   6.189  0.2680  0.4942 -0.1726
   12SAPS   O11 1480   5.018   4.013   6.341  0.3027  0.4267 -0.0299
   12SAPS    C1 1481   5.107   4.092   6.410 -0.8721  0.5589  1.4816
   12SAPS    HA 1482   5.194   4.129   6.352  0.0021  1.4177  3.2884
   12SAPS    HB 1483   5.047   4.177   6.448 -1.3280  0.4703  0.9574
   12SAPS    C2 1484   5.161   4.016   6.534 -0.7550 -0.2847  0.1736
   12SAPS    HS 1485   5.179   3.913   6.497  1.2207  0.1302 -0.0695
   12SAPS   O21 1486   5.066   4.030   6.647  0.1911  0.0096  0.3709
   12SAPS   C21 1487   5.045   3.916   6.711  1.0724  0.1106  0.2118
   12SAPS   O22 1488   5.103   3.812   6.692  0.4887  0.3141  0.1838
   12SAPS   C22 1489   4.944   3.935   6.824  0.4047  0.2384 -0.2408
   12SAPS   H2R 1490   4.952   4.043   6.849 -1.3585  0.7645 -1.8567
   12SAPS   H2S 1491   4.847   3.905   6.779  0.4411  0.0897 -0.2194
   12SAPS    C3 1492   5.302   4.063   6.580 -0.6433 -0.4265 -0.0318
   12SAPS    HX 1493   5.302   4.174   6.583 -0.8131 -0.4589  2.1691
   12SAPS    HY 1494   5.371   4.027   6.501 -0.5903 -1.1752  0.3494
   12SAPS   O31 1495   5.342   4.015   6.716 -0.0104  0.2181 -0.5270
   12SAPS   C31 1496   5.465   3.987   6.731 -0.0737  0.3581 -0.3919
   12SAPS   O32 1497   5.555   4.011   6.649 -0.2408  0.0793 -0.0609
   12SAPS   C32 1498   5.497   3.922   6.871 -0.4152  0.6483  0.5390
   12SAPS   H2X 1499   5.483   4.010   6.937 -2.0530  0.5485  0.3444
   12SAPS   H2Y 1500   5.603   3.888   6.872 -1.2198 -2.1224 -1.6327
   12SAPS   C23 1501   4.980   3.840   6.939  0.2424  0.1867  0.4111
   12SAPS   H3R 1502   5.077   3.877   6.981 -1.4287  3.7898  1.3002
   12SAPS   H3S 1503   5.002   3.735   6.910 -0.9390 -0.0084  0.2261
   12SAPS   C24 1504   4.885   3.841   7.060  0.2587  0.1011 -0.5660
   12SAPS   H4R 1505   4.929   3.774   7.137  1.7940  1.7979  0.1020
   12SAPS   H4S 1506   4.784   3.807   7.029  0.2087 -0.9315  0.6999
   12SAPS   C25 1507   4.877   3.988   7.116 -0.1408 -0.9463 -0.9232
   12SAPS   H5R 1508   4.840   4.066   7.048 -2.5021  0.7570  2.2254
   12SAPS   C26 1509   4.924   4.030   7.235  0.9859  0.1271 -0.1507
   12SAPS   H6R 1510   4.913   4.136   7.262 -0.6037  0.0204 -0.3353
   12SAPS   C27 1511   4.990   3.944   7.344 -0.0842 -0.0613  0.4415
   12SAPS   H7R 1512   5.014   3.845   7.300 -0.3701 -0.3265  0.8788
   12SAPS   H7S 1513   4.907   3.914   7.412  0.3182  0.9479  1.3818
   12SAPS   C28 1514   5.109   4.001   7.420 -0.7056 -1.1539 -0.0220
   12SAPS   H8R 1515   5.187   4.036   7.351 -0.9158  2.8300  1.5940
   12SAPS   C29 1516   5.122   4.015   7.558 -0.3458  0.7028 -0.9741
   12SAPS   H9R 1517   5.220   4.051   7.594  0.6827 -0.4136 -2.5664
   12SAPS  C210 1518   5.018   3.981   7.657  0.0222 -0.4175  0.4673
   12SAPS  H10R 1519   5.068   3.983   7.756 -1.7870  2.8367  1.4101
   12SAPS  H10S 1520   4.980   3.878   7.642 -0.4553 -0.1317 -0.3278
   12SAPS  C211 1521   4.895   4.066   7.662  0.1889 -0.5184  0.3389
   12SAPS  H11R 1522   4.852   4.092   7.564 -2.6878 -1.4635  1.2955
   12SAPS  C212 1523   4.865   4.141   7.771 -0.0285  0.8932  0.0836
   12SAPS  H12R 1524   4.791   4.223   7.768  0.3591  1.2260 -0.4910
   12SAPS  C213 1525   4.943   4.153   7.901 -0.4226  0.8649 -0.0265
   12SAPS  H13R 1526   4.972   4.260   7.911  1.0197  0.5620 -0.8399
   12SAPS  H13S 1527   5.039   4.099   7.914 -1.0351  0.1434  1.8299
   12SAPS  C214 1528   4.859   4.117   8.014  0.1026  0.7778 -0.4734
   12SAPS  H14R 1529   4.816   4.198   8.075  0.4040 -0.0371  0.8345
   12SAPS  C215 1530   4.826   3.990   8.064 -0.6112  0.9536  0.0484
   12SAPS  H15R 1531   4.749   3.987   8.143  0.4912  2.0380  1.1684
   12SAPS  C216 1532   4.873   3.853   8.003  0.2230 -0.0708  0.0271
   12SAPS  H16R 1533   4.962   3.874   7.940 -0.5064  1.1604 -0.6026
   12SAPS  H16S 1534   4.796   3.798   7.944 -0.3348 -0.2692  0.9284
   12SAPS  C217 1535   4.923   3.752   8.106 -0.0264  0.1227 -0.1820
   12SAPS  H17R 1536   4.936   3.651   8.061  1.0946 -0.7594  2.0129
   12SAPS  H17S 1537   4.855   3.729   8.191 -0.2597  0.0425 -0.3928
   12SAPS  C218 1538   5.054   3.800   8.187 -0.5514  0.6395  0.3106
   12SAPS  H18R 1539   5.033   3.895   8.239 -3.5209 -0.8053  1.8870
   12SAPS  H18S 1540   5.131   3.826   8.111 -1.3510 -2.4992 -1.7070
   12SAPS  C219 1541   5.116   3.705   8.286 -0.2045 -0.2614 -0.5770
   12SAPS  H19R 1542   5.045   3.681   8.367  0.4194  0.5130  0.2002
   12SAPS  H19S 1543   5.206   3.750   8.332 -0.5850 -0.0916 -0.0068
   12SAPS  C220 1544   5.164   3.572   8.227  0.7054 -0.0076  0.6492
   12SAPS  H20R 1545   5.204   3.587   8.124  0.5326 -0.3594  0.5332
   12SAPS  H20S 1546   5.077   3.503   8.222 -0.4643  1.4834  0.1279
   12SAPS  H20T 1547   5.241   3.528   8.294 -0.1301 -0.3612  1.3925
   12SAPS   C33 1548   5.398   3.815   6.921  0.2090  0.5771  0.5590
   12SAPS   H3X 1549   5.416   3.722   6.863 -0.3393  0.7121  0.1702
   12SAPS   H3Y 1550   5.297   3.850   6.890  0.8832  1.6452 -0.4747
   12SAPS   C34 1551   5.406   3.797   7.074 -0.9814  0.0557 -0.2531
   12SAPS   H4X 1552   5.382   3.892   7.127 -1.8201  0.3669 -1.1797
   12SAPS   H4Y 1553   5.510   3.768   7.101 -1.0850 -0.3171 -0.2595
   12SAPS   C35 1554   5.313   3.687   7.128 -0.3062 -0.5378  0.9311
   12SAPS   H5X 1555   5.334   3.600   7.062 -2.7573 -0.7096  0.3229
   12SAPS   H5Y 1556   5.213   3.734   7.121  0.1014  0.1656 -0.4721
   12SAPS   C36 1557   5.335   3.660   7.272  0.0298 -0.2802 -0.0173
   12SAPS   H6X 1558   5.320   3.755   7.328  0.8080  0.6124 -1.2894
   12SAPS   H6Y 1559   5.442   3.635   7.285  0.2239  0.1813 -0.7013
   12SAPS   C37 1560   5.255   3.545   7.317  0.1809  0.0088 -0.3151
   12SAPS   H7X 1561   5.252   3.470   7.235  1.4254 -0.5258  0.1152
   12SAPS   H7Y 1562   5.148   3.570   7.330 -0.7478 -1.9676 -3.5074
   12SAPS   C38 1563   5.295   3.472   7.448 -1.2532 -0.1049  0.4378
   12SAPS   H8X 1564   5.392   3.421   7.433 -1.3166 -0.2066  0.3715
   12SAPS   H8Y 1565   5.220   3.392   7.465  0.2714 -1.4911  0.6311
   12SAPS   C39 1566   5.309   3.570   7.567 -1.4128 -0.5374 -0.0853
   12SAPS   H9X 1567   5.392   3.641   7.548 -0.1588 -2.2918 -1.3871
   12SAPS   H9Y 1568   5.335   3.505   7.653 -1.1014 -1.2323 -0.6919
   12SAPS  C310 1569   5.181   3.646   7.607 -0.3724  0.2071  0.5237
   12SAPS  H10X 1570   5.099   3.572   7.597 -0.3361  0.2694 -0.2130
   12SAPS  H10Y 1571   5.171   3.730   7.535  0.1710  0.9297  1.2834
   12SAPS  C311 1572   5.176   3.701   7.752  0.1729  0.1180 -0.2075
   12SAPS  H11X 1573   5.198   3.602   7.799  1.4394  1.6614  2.5567
   12SAPS  H11Y 1574   5.071   3.727   7.779  1.3351  3.6263  1.2138
   12SAPS  C312 1575   5.297   3.794   7.798  0.0958 -0.6013 -0.0785
   12SAPS  H12X 1576   5.266   3.891   7.842  0.1890  0.1107 -1.5579
   12SAPS  H12Y 1577   5.350   3.830   7.707  2.1661  1.1922  1.7625
   12SAPS  C313 1578   5.403   3.730   7.894 -0.0377  0.1378  0.0754
   12SAPS  H13X 1579   5.460   3.651   7.841 -1.2154 -0.4011 -0.4209
   12SAPS  H13Y 1580   5.351   3.682   7.981  0.0042  0.9397  0.5483
   12SAPS  C314 1581   5.498   3.835   7.951  0.2405  0.1588 -0.0830
   12SAPS  H14X 1582   5.437   3.928   7.963 -2.2851 -1.4496 -0.0784
   12SAPS  H14Y 1583   5.585   3.845   7.884  3.8537 -1.4725  4.1025
   12SAPS  C315 1584   5.550   3.795   8.088  0.3427 -0.2307 -0.2220
   12SAPS  H15X 1585   5.469   3.800   8.163  0.3802  0.0591 -0.2008
   12SAPS  H15Y 1586   5.618   3.879   8.114  0.8559 -0.5900 -0.4016
   12SAPS  C316 1587   5.629   3.666   8.085 -0.0929 -0.6689  0.0179
   12SAPS  H16X 1588   5.690   3.655   7.993 -1.6430 -1.1596 -0.9799
   12SAPS  H16Y 1589   5.551   3.587   8.085 -1.7570  0.9360 -0.4722
   12SAPS  C317 1590   5.723   3.643   8.201 -0.6226 -0.2950 -0.2633
   12SAPS  H17X 1591   5.658   3.671   8.287 -3.4248 -1.9582 -1.7472
   12SAPS  H17Y 1592   5.799   3.721   8.181  1.5868 -2.2538  0.3233
   12SAPS  C318 1593   5.781   3.503   8.221  0.2704  0.0496  0.3484
   12SAPS  H18X 1594   5.722   3.412   8.197  1.8367 -1.5374  2.3430
   12SAPS  H18Y 1595   5.814   3.493   8.326 -0.4229 -0.3748  0.5324
   12SAPS  H18Z 1596   5.869   3.495   8.153 -1.2322  1.2533 -1.8128
   13SAPS     N 1597   5.728   0.586   5.754  0.0044 -0.7686 -0.0707
   13SAPS   HN1 1598   5.725   0.527   5.840  1.0114  2.1859  2.0455
   13SAPS   HN2 1599   5.664   0.542   5.685 -0.2459 -1.3504  0.5230
   13SAPS   HN3 1600   5.824   0.598   5.716  0.9414 -0.2423  2.4070
   13SAPS   C12 1601   5.671   0.718   5.799 -0.3047  0.3644 -0.1508
   13SAPS  H12A 1602   5.709   0.799   5.739  0.7246  0.1735  0.2241
   13SAPS   C13 1603   5.516   0.734   5.810 -0.3653 -0.5114  0.5317
   13SAPS  O13A 1604   5.451   0.648   5.751 -0.2324  0.5086 -0.4047
   13SAPS  O13B 1605   5.476   0.853   5.818 -0.0525  0.0201 -0.6742
   13SAPS   C11 1606   5.735   0.746   5.946  0.5396  0.5359 -0.1805
   13SAPS  H11A 1607   5.712   0.853   5.966  1.3451  0.2492  2.4629
   13SAPS  H11B 1608   5.845   0.732   5.937  0.9021  0.4106  3.8285
   13SAPS     P 1609   5.711   0.668   6.194 -0.3088  0.3350  0.4004
   13SAPS   O13 1610   5.614   0.598   6.277 -0.4741 -0.1043  0.0971
   13SAPS   O14 1611   5.849   0.619   6.199  0.4838 -0.8065 -0.1308
   13SAPS   O12 1612   5.667   0.664   6.043 -0.0129  0.2268  0.1040
   13SAPS   O11 1613   5.704   0.822   6.222  0.4405 -0.1337 -0.4982
   13SAPS    C1 1614   5.659   0.880   6.342 -0.1348  0.2578 -0.0103
   13SAPS    HA 1615   5.651   0.991   6.344 -1.6221  0.2205 -2.0330
   13SAPS    HB 1616   5.558   0.843   6.370 -1.0403  4.2479  2.3991
   13SAPS    C2 1617   5.760   0.857   6.463  0.4993  0.0172 -0.5197
   13SAPS    HS 1618   5.747   0.753   6.499 -0.7090  1.6583  4.1190
   13SAPS   O21 1619   5.712   0.938   6.573 -0.0614  0.4319  0.2555
   13SAPS   C21 1620   5.615   0.878   6.646 -0.2559 -0.0070 -0.1216
   13SAPS   O22 1621   5.543   0.786   6.606  0.0815  0.2680  0.3956
   13SAPS   C22 1622   5.615   0.936   6.782 -0.0705  0.3978  0.3704
   13SAPS   H2R 1623   5.722   0.928   6.810  1.2290  1.9803 -3.7426
   13SAPS   H2S 1624   5.594   1.044   6.771  3.3793  1.0261 -0.8368
   13SAPS    C3 1625   5.903   0.898   6.429 -0.5056  0.2398  0.5756
   13SAPS    HX 1626   5.893   1.005   6.403 -0.8075  0.4730  1.6200
   13SAPS    HY 1627   5.947   0.848   6.340 -0.6382 -0.0241  0.6583
   13SAPS   O31 1628   5.988   0.895   6.543 -0.8524  0.0460 -0.4537
   13SAPS   C31 1629   6.026   0.776   6.577  0.0891  0.2197 -0.8711
   13SAPS   O32 1630   6.005   0.670   6.513  0.2968 -0.1793 -0.6587
   13SAPS   C32 1631   6.097   0.773   6.707  0.4338 -0.0938 -0.0067
   13SAPS   H2X 1632   6.187   0.837   6.695  0.4238 -0.1162 -0.2043
   13SAPS   H2Y 1633   6.129   0.671   6.739 -1.1806 -0.4358  0.5630
   13SAPS   C23 1634   5.517   0.853   6.871  0.0411  0.1106 -0.2299
   13SAPS   H3R 1635   5.550   0.750   6.895 -1.3628 -0.3627 -0.3047
   13SAPS   H3S 1636   5.419   0.845   6.818  0.4614  1.6230 -1.2749
   13SAPS   C24 1637   5.502   0.930   7.001  0.9827 -0.2134  0.3609
   13SAPS   H4R 1638   5.480   1.035   6.973 -0.2419 -0.5887 -0.1745
   13SAPS   H4S 1639   5.604   0.926   7.043  1.4111 -0.6713 -0.7004
   13SAPS   C25 1640   5.393   0.879   7.101  0.0246 -0.0507 -0.3393
   13SAPS   H5R 1641   5.296   0.854   7.056 -0.2083 -3.1852  1.8038
   13SAPS   C26 1642   5.397   0.879   7.236  0.0188 -0.3178 -0.3098
   13SAPS   H6R 1643   5.311   0.847   7.296 -1.3337 -0.0005 -2.0477
   13SAPS   C27 1644   5.517   0.929   7.310 -0.1326 -0.4927 -0.2084
   13SAPS   H7R 1645   5.586   0.984   7.244  0.6420 -1.4414 -0.1995
   13SAPS   H7S 1646   5.574   0.840   7.345  1.7281  0.2145 -1.4028
   13SAPS   C28 1647   5.469   1.015   7.429 -0.1483  0.5073  0.8785
   13SAPS   H8R 1648   5.395   1.089   7.394  1.4860  1.0608 -1.5230
   13SAPS   C29 1649   5.501   1.000   7.561 -0.0491 -0.0155  0.1325
   13SAPS   H9R 1650   5.471   1.086   7.623  2.9555  3.0771 -2.4762
   13SAPS  C210 1651   5.596   0.900   7.618 -0.9783 -0.3205 -0.1106
   13SAPS  H10R 1652   5.672   0.950   7.682 -2.3262  0.7261  0.7054
   13SAPS  H10S 1653   5.657   0.845   7.544  0.2539  1.5140 -0.4926
   13SAPS  C211 1654   5.516   0.805   7.705 -0.8262 -0.6890 -0.0393
   13SAPS  H11R 1655   5.438   0.749   7.652 -1.1344 -1.1157  0.8536
   13SAPS  C212 1656   5.544   0.770   7.836 -0.4921 -0.1340 -0.4495
   13SAPS  H12R 1657   5.463   0.709   7.880 -0.9336 -1.5295 -3.0362
   13SAPS  C213 1658   5.651   0.826   7.934 -0.2818  0.2214  0.3566
   13SAPS  H13R 1659   5.602   0.908   7.991  0.9495  0.9995  0.3092
   13SAPS  H13S 1660   5.734   0.876   7.881 -0.9981  1.7002  0.6040
   13SAPS  C214 1661   5.728   0.717   8.016  0.5863  0.0212  0.5407
   13SAPS  H14R 1662   5.773   0.636   7.957  2.0488  1.8237 -0.8570
   13SAPS  C215 1663   5.753   0.717   8.148  0.2038 -0.2353  0.1640
   13SAPS  H15R 1664   5.820   0.642   8.194  0.3616  0.7075  1.4936
   13SAPS  C216 1665   5.700   0.821   8.245 -0.3702 -0.3253  0.1119
   13SAPS  H16R 1666   5.601   0.780   8.275  0.6242 -2.7965  0.1221
   13SAPS  H16S 1667   5.687   0.926   8.210  1.3706 -0.4147 -0.8159
   13SAPS  C217 1668   5.793   0.832   8.374  0.3970 -0.3656 -1.4921
   13SAPS  H17R 1669   5.897   0.854   8.344  1.5211 -2.4283  0.7587
   13SAPS  H17S 1670   5.807   0.736   8.429 -0.6587  1.1552  1.5816
   13SAPS  C218 1671   5.735   0.921   8.485  0.1870 -0.0327 -0.1775
   13SAPS  H18R 1672   5.628   0.896   8.496  0.2058 -0.5642 -1.1921
   13SAPS  H18S 1673   5.732   1.026   8.447 -3.1860  0.6566  1.8117
   13SAPS  C219 1674   5.809   0.912   8.616 -0.8443 -0.0240  0.0412
   13SAPS  H19R 1675   5.803   0.809   8.658 -1.3444 -0.8681 -2.0065
   13SAPS  H19S 1676   5.760   0.981   8.687 -1.4586 -1.7803  1.3546
   13SAPS  C220 1677   5.955   0.963   8.606 -0.9092 -0.3815 -0.4573
   13SAPS  H20R 1678   5.979   0.994   8.710  0.6092  1.7068 -1.3948
   13SAPS  H20S 1679   5.967   1.047   8.535 -1.4247  0.2574  0.2025
   13SAPS  H20T 1680   6.023   0.880   8.580 -1.9391 -1.0170 -1.1830
   13SAPS   C33 1681   5.998   0.815   6.822  0.4152 -0.7472  0.5893
   13SAPS   H3X 1682   5.902   0.759   6.822 -0.9080  1.4648  0.7335
   13SAPS   H3Y 1683   5.970   0.923   6.821 -1.3649 -1.1549  2.6260
   13SAPS   C34 1684   6.060   0.793   6.960  0.0588  0.1384 -0.0167
   13SAPS   H4X 1685   6.134   0.876   6.969  2.1449 -1.7294  0.4857
   13SAPS   H4Y 1686   6.119   0.699   6.960  0.7071  0.5242 -1.1956
   13SAPS   C35 1687   5.954   0.777   7.066 -0.2708 -0.2506  0.1584
   13SAPS   H5X 1688   5.909   0.680   7.036 -1.0622 -0.0294  0.6001
   13SAPS   H5Y 1689   5.878   0.858   7.065  0.1225  0.1192  0.0071
   13SAPS   C36 1690   6.008   0.755   7.215 -0.5779  0.4671  0.7310
   13SAPS   H6X 1691   6.088   0.830   7.233  0.6872 -0.5364 -0.4792
   13SAPS   H6Y 1692   6.073   0.664   7.213 -2.4383 -0.8866  0.9289
   13SAPS   C37 1693   5.898   0.726   7.311 -0.1417  0.2865 -0.3174
   13SAPS   H7X 1694   5.828   0.655   7.262 -1.2490  2.7480 -2.4128
   13SAPS   H7Y 1695   5.840   0.821   7.322 -1.3435 -0.4221 -0.4732
   13SAPS   C38 1696   5.952   0.692   7.452  0.4390  0.0429 -0.0719
   13SAPS   H8X 1697   6.021   0.605   7.452 -0.8759 -1.0285  1.5201
   13SAPS   H8Y 1698   5.865   0.647   7.504 -0.4393  0.6384 -0.9924
   13SAPS   C39 1699   6.013   0.813   7.532 -0.1858  0.4166 -0.3992
   13SAPS   H9X 1700   5.931   0.887   7.522 -0.2523  0.4169  0.1694
   13SAPS   H9Y 1701   6.102   0.846   7.474 -0.6448 -0.2710 -1.5121
   13SAPS  C310 1702   6.057   0.775   7.677 -0.1482 -0.7087 -0.0869
   13SAPS  H10X 1703   6.097   0.671   7.676  1.3913 -0.1498  1.4423
   13SAPS  H10Y 1704   5.975   0.760   7.751  1.1509 -2.1239  1.1195
   13SAPS  C311 1705   6.157   0.856   7.754 -0.1641 -0.0909 -0.1987
   13SAPS  H11X 1706   6.144   0.966   7.753 -0.0170 -0.0756 -2.3026
   13SAPS  H11Y 1707   6.258   0.836   7.712 -0.1964 -2.6325  0.8655
   13SAPS  C312 1708   6.159   0.817   7.906  0.4464 -0.4758 -0.5232
   13SAPS  H12X 1709   6.193   0.712   7.919  1.1577  0.0830  2.4503
   13SAPS  H12Y 1710   6.060   0.837   7.952 -0.2000 -2.3927 -1.0061
   13SAPS  C313 1711   6.264   0.897   7.983  0.1154  0.0743  0.8145
   13SAPS  H13X 1712   6.250   1.007   7.975  1.9321  0.2305 -0.3065
   13SAPS  H13Y 1713   6.364   0.882   7.937  0.0783 -1.1966  1.1151
   13SAPS  C314 1714   6.264   0.844   8.128 -0.3441  0.6179 -0.4651
   13SAPS  H14X 1715   6.258   0.734   8.116  0.8383  0.3811  0.8937
   13SAPS  H14Y 1716   6.172   0.882   8.177 -0.6030  0.5783 -0.9213
   13SAPS  C315 1717   6.393   0.895   8.204 -0.2171  0.3990 -0.5455
   13SAPS  H15X 1718   6.406   1.000   8.171  1.3573  0.4570  0.2220
   13SAPS  H15Y 1719   6.480   0.833   8.173 -0.2269 -0.3966  0.9865
   13SAPS  C316 1720   6.371   0.901   8.353 -0.1560 -0.7954  0.0529
   13SAPS  H16X 1721   6.279   0.959   8.376  0.5772 -0.9038  3.4673
   13SAPS  H16Y 1722   6.462   0.955   8.384 -0.9138  0.4932  0.0488
   13SAPS  C317 1723   6.359   0.761   8.415  0.8502  0.3647  0.4288
   13SAPS  H17X 1724   6.295   0.703   8.346 -1.0040 -0.3833  2.7268
   13SAPS  H17Y 1725   6.312   0.774   8.515  0.6099  2.2852  0.0841
   13SAPS  C318 1726   6.488   0.689   8.416  0.0480 -0.4450  0.6075
   13SAPS  H18X 1727   6.470   0.582   8.441 -1.3101 -0.4708 -0.4098
   13SAPS  H18Y 1728   6.563   0.737   8.483  0.4851  1.3486 -1.1084
   13SAPS  H18Z 1729   6.530   0.683   8.313  1.3935 -2.6475  1.2528
   14SAPS     N 1730   5.732   2.864   5.706  0.3074  0.2724  0.1961
   14SAPS   HN1 1731   5.724   2.814   5.615  0.2126  3.0916 -1.3999
   14SAPS   HN2 1732   5.821   2.836   5.753  1.6352  0.4007 -2.1848
   14SAPS   HN3 1733   5.652   2.837   5.766  1.1700 -1.0731  0.7723
   14SAPS   C12 1734   5.713   3.005   5.668 -0.6500  0.7684  0.3665
   14SAPS  H12A 1735   5.807   3.033   5.623  0.6969 -1.3130  1.8550
   14SAPS   C13 1736   5.591   3.030   5.575 -0.5046 -0.3606  0.0212
   14SAPS  O13A 1737   5.530   2.925   5.532  0.5510 -0.0561  0.5598
   14SAPS  O13B 1738   5.562   3.144   5.537 -0.0378  0.5513  0.7842
   14SAPS   C11 1739   5.713   3.097   5.794 -0.2920 -0.4497  0.2151
   14SAPS  H11A 1740   5.626   3.075   5.859  0.2621  0.3493  1.2422
   14SAPS  H11B 1741   5.703   3.203   5.759 -0.6722 -0.8001 -0.7660
   14SAPS     P 1742   5.879   3.149   5.992 -0.0541 -0.0791 -0.1478
   14SAPS   O13 1743   5.971   3.062   6.066 -0.0553  0.2122 -0.4343
   14SAPS   O14 1744   5.914   3.288   5.967 -0.3370 -0.4587  0.2294
   14SAPS   O12 1745   5.838   3.085   5.855 -0.3602 -1.0437  0.3765
   14SAPS   O11 1746   5.747   3.159   6.079  0.5525  0.2948  0.2086
   14SAPS    C1 1747   5.693   3.035   6.129  0.9864 -0.4157 -0.8305
   14SAPS    HA 1748   5.615   2.992   6.064 -0.5960  0.2570  0.5853
   14SAPS    HB 1749   5.763   2.954   6.157  0.4719 -1.2135 -1.8301
   14SAPS    C2 1750   5.625   3.064   6.270 -0.2248  0.1457  0.9032
   14SAPS    HS 1751   5.569   3.159   6.261  2.7247  1.6801 -2.3515
   14SAPS   O21 1752   5.729   3.064   6.366 -0.3550  0.2863  0.7113
   14SAPS   C21 1753   5.775   3.184   6.394 -1.1190 -0.2693  0.3273
   14SAPS   O22 1754   5.732   3.294   6.357 -0.3702  0.5567  0.1069
   14SAPS   C22 1755   5.895   3.162   6.493  0.5161 -0.3470  0.3156
   14SAPS   H2R 1756   5.935   3.060   6.472 -1.7227 -1.6922  2.2753
   14SAPS   H2S 1757   5.969   3.242   6.470 -0.4901 -0.0789 -2.1943
   14SAPS    C3 1758   5.522   2.945   6.300 -0.1813 -0.8039 -0.2452
   14SAPS    HX 1759   5.567   2.845   6.282 -0.2749 -0.9854  0.5019
   14SAPS    HY 1760   5.435   2.964   6.233  1.2548 -0.1832 -1.9809
   14SAPS   O31 1761   5.471   2.952   6.436 -0.3449 -0.1094  0.3940
   14SAPS   C31 1762   5.542   2.881   6.525 -0.5210  0.0410 -0.6885
   14SAPS   O32 1763   5.628   2.800   6.501 -0.5795  0.2801  0.6826
   14SAPS   C32 1764   5.482   2.908   6.663  0.0123  1.1121 -0.0332
   14SAPS   H2X 1765   5.387   2.851   6.668  1.1834 -0.9986 -0.6144
   14SAPS   H2Y 1766   5.471   3.017   6.677 -2.2496  0.8667  0.2191
   14SAPS   C23 1767   5.837   3.185   6.632  0.4534  0.7716  0.2437
   14SAPS   H3R 1768   5.759   3.108   6.649  0.8478  0.9207  2.9442
   14SAPS   H3S 1769   5.788   3.282   6.654 -1.8561 -0.6954  1.7839
   14SAPS   C24 1770   5.949   3.163   6.737 -0.2668 -0.2887  0.9119
   14SAPS   H4R 1771   5.918   3.189   6.841  0.7692  4.0987  0.2279
   14SAPS   H4S 1772   6.026   3.238   6.709 -0.7379 -0.2513 -0.2597
   14SAPS   C25 1773   6.013   3.024   6.746  0.1995 -0.2802 -0.0576
   14SAPS   H5R 1774   5.949   2.935   6.737 -2.8317  1.8848 -0.7538
   14SAPS   C26 1775   6.143   2.997   6.771 -0.5141 -0.2407  0.5262
   14SAPS   H6R 1776   6.183   2.895   6.779 -0.2249 -0.0052  2.2091
   14SAPS   C27 1777   6.251   3.102   6.790 -0.5693 -0.1905 -0.2220
   14SAPS   H7R 1778   6.221   3.208   6.804  0.3685 -0.0968  1.2349
   14SAPS   H7S 1779   6.312   3.091   6.698 -0.5514  0.6610 -0.3197
   14SAPS   C28 1780   6.337   3.075   6.909 -0.1025  0.1275 -0.1411
   14SAPS   H8R 1781   6.445   3.066   6.892  0.0029  0.4004  0.3670
   14SAPS   C29 1782   6.303   3.070   7.036  0.4021  0.0942 -0.3034
   14SAPS   H9R 1783   6.381   3.075   7.112 -0.0642  1.0832  0.1190
   14SAPS  C210 1784   6.166   3.097   7.093  0.4167 -0.5579 -0.4569
   14SAPS  H10R 1785   6.091   3.147   7.028  0.8481 -0.2495 -0.7147
   14SAPS  H10S 1786   6.189   3.170   7.174  2.3551 -0.2639 -1.2544
   14SAPS  C211 1787   6.088   2.971   7.130  0.0127 -0.2450 -0.2528
   14SAPS  H11R 1788   6.103   2.888   7.058 -1.3624 -1.3789  0.7385
   14SAPS  C212 1789   6.031   2.930   7.247 -0.1068  0.9554 -0.0031
   14SAPS  H12R 1790   5.975   2.837   7.262 -0.2951  0.8892 -1.1201
   14SAPS  C213 1791   6.016   3.026   7.371  0.1338 -0.5293  0.2420
   14SAPS  H13R 1792   5.907   3.045   7.385  0.0277 -0.2591 -0.9266
   14SAPS  H13S 1793   6.067   3.120   7.342 -1.2777 -0.3255 -1.6352
   14SAPS  C214 1794   6.070   2.967   7.497 -0.1352  0.5175  0.7120
   14SAPS  H14R 1795   6.063   2.858   7.506 -2.7113  0.7173  1.5623
   14SAPS  C215 1796   6.125   3.034   7.601  0.0212  0.3026 -0.4470
   14SAPS  H15R 1797   6.156   2.990   7.696 -0.0120 -2.3370 -1.6275
   14SAPS  C216 1798   6.144   3.186   7.600  0.1881  0.3231 -0.1005
   14SAPS  H16R 1799   6.096   3.244   7.518  0.1148 -1.2016 -1.1580
   14SAPS  H16S 1800   6.254   3.198   7.602  0.1211  0.9823 -0.4675
   14SAPS  C217 1801   6.099   3.243   7.737  1.3179  0.3999 -0.0434
   14SAPS  H17R 1802   6.163   3.197   7.814 -0.2223 -0.0528  0.9843
   14SAPS  H17S 1803   5.992   3.221   7.755  0.5475  2.0027 -2.3028
   14SAPS  C218 1804   6.100   3.393   7.752  0.0298  0.0413  0.3346
   14SAPS  H18R 1805   6.035   3.451   7.683 -1.2977 -1.8853 -0.1044
   14SAPS  H18S 1806   6.206   3.419   7.734  0.2904 -0.0727  1.6688
   14SAPS  C219 1807   6.063   3.430   7.896  0.4323  0.0966  0.1453
   14SAPS  H19R 1808   6.135   3.378   7.963  0.6835  0.3959  0.1108
   14SAPS  H19S 1809   5.960   3.392   7.912  0.0066  0.2017 -2.2359
   14SAPS  C220 1810   6.068   3.583   7.919  0.4040  0.6345 -0.0388
   14SAPS  H20R 1811   6.046   3.639   7.826  2.3177 -1.4913 -1.8170
   14SAPS  H20S 1812   6.172   3.616   7.938  0.1741  0.5605  1.4638
   14SAPS  H20T 1813   6.017   3.633   8.004  4.2863  3.5134  0.7296
   14SAPS   C33 1814   5.559   2.852   6.783 -0.0640 -0.4134 -0.8436
   14SAPS   H3X 1815   5.665   2.879   6.770 -0.2231 -0.1804 -1.7362
   14SAPS   H3Y 1816   5.555   2.741   6.794  0.1761 -0.2932  0.5289
   14SAPS   C34 1817   5.500   2.905   6.917  0.6978 -0.8580 -0.0532
   14SAPS   H4X 1818   5.400   2.861   6.936  1.4692 -1.2440  3.4428
   14SAPS   H4Y 1819   5.483   3.013   6.901  1.0871 -0.9800 -1.4106
   14SAPS   C35 1820   5.603   2.888   7.034  0.1464 -0.5382 -0.3015
   14SAPS   H5X 1821   5.693   2.953   7.027 -0.2691  0.1334  0.6377
   14SAPS   H5Y 1822   5.633   2.781   7.039  0.4992 -0.5317 -1.8359
   14SAPS   C36 1823   5.541   2.922   7.169  0.0224 -0.0361 -0.2067
   14SAPS   H6X 1824   5.451   2.862   7.193 -0.6195  1.1290  0.3228
   14SAPS   H6Y 1825   5.493   3.021   7.171  2.1614  1.0234  1.3148
   14SAPS   C37 1826   5.631   2.895   7.289 -0.1745 -0.6800  0.3533
   14SAPS   H7X 1827   5.696   2.982   7.270 -1.0632  0.5907  2.8071
   14SAPS   H7Y 1828   5.673   2.792   7.286  2.1488  0.2471  0.6494
   14SAPS   C38 1829   5.561   2.918   7.423 -0.5075 -0.4961  0.2739
   14SAPS   H8X 1830   5.478   2.844   7.430  0.5068 -1.6822 -0.0239
   14SAPS   H8Y 1831   5.510   3.016   7.424  0.9351  0.2942 -1.5639
   14SAPS   C39 1832   5.649   2.906   7.554 -0.7963  0.5305 -0.0467
   14SAPS   H9X 1833   5.737   2.973   7.564 -0.3931 -0.3060  2.1712
   14SAPS   H9Y 1834   5.684   2.801   7.562 -2.6690  0.0128  1.6193
   14SAPS  C310 1835   5.570   2.929   7.681 -0.0556  0.8875  0.1997
   14SAPS  H10X 1836   5.620   2.880   7.767  0.2045  0.2348 -0.3211
   14SAPS  H10Y 1837   5.472   2.881   7.661  0.9869 -0.9264 -0.6775
   14SAPS  C311 1838   5.549   3.078   7.715  1.1508  0.8517 -0.0044
   14SAPS  H11X 1839   5.446   3.091   7.675 -0.2861 -3.8738  1.8958
   14SAPS  H11Y 1840   5.635   3.123   7.661 -0.1392 -0.3056 -3.1178
   14SAPS  C312 1841   5.565   3.091   7.867  0.5775  0.3772  0.0206
   14SAPS  H12X 1842   5.673   3.086   7.891  0.8747  2.1045 -0.8640
   14SAPS  H12Y 1843   5.517   3.004   7.917  0.4525  1.2058  1.3676
   14SAPS  C313 1844   5.487   3.213   7.924  0.6703 -0.2763  0.5129
   14SAPS  H13X 1845   5.388   3.181   7.962  0.2550 -1.6117 -1.6042
   14SAPS  H13Y 1846   5.462   3.285   7.843  0.2185 -1.2793 -0.2566
   14SAPS  C314 1847   5.569   3.271   8.048 -0.1266  0.1483 -0.0072
   14SAPS  H14X 1848   5.518   3.364   8.082 -2.2521 -0.1312 -2.2966
   14SAPS  H14Y 1849   5.668   3.299   8.007  1.6328 -3.1882  1.7509
   14SAPS  C315 1850   5.578   3.178   8.171  0.1551 -0.2063 -0.2053
   14SAPS  H15X 1851   5.629   3.243   8.245 -1.0070  0.9102 -0.3633
   14SAPS  H15Y 1852   5.643   3.092   8.143 -0.7410 -0.6191 -1.0534
   14SAPS  C316 1853   5.438   3.137   8.236 -0.5081  0.2613 -0.1035
   14SAPS  H16X 1854   5.379   3.073   8.168  2.2221 -0.2451 -2.1132
   14SAPS  H16Y 1855   5.379   3.231   8.231 -0.2493  0.3903 -0.7813
   14SAPS  C317 1856   5.457   3.076   8.380  0.2268 -0.3714 -0.8184
   14SAPS  H17X 1857   5.357   3.067   8.426  0.7836 -0.4523  0.4083
   14SAPS  H17Y 1858   5.511   3.150   8.443 -0.7376 -2.2633  2.2888
   14SAPS  C318 1859   5.544   2.946   8.375 -0.3067 -0.0567 -0.0607
   14SAPS  H18X 1860   5.637   2.975   8.322 -0.3971 -0.5231 -0.4702
   14SAPS  H18Y 1861   5.496   2.876   8.304 -2.4129  1.3615 -0.0729
   14SAPS  H18Z 1862   5.569   2.888   8.467  1.4288  2.8097  1.3496
   15SAPS     N 1863   5.889   2.518   6.025  0.4929  0.1539  0.0733
   15SAPS   HN1 1864   5.842   2.444   6.081 -0.9518  0.2243 -1.0172
   15SAPS   HN2 1865   5.982   2.531   6.069  1.0798 -1.7667 -0.5693
   15SAPS   HN3 1866   5.835   2.607   6.037 -0.8331 -0.9393  2.6929
   15SAPS   C12 1867   5.916   2.480   5.882  0.3665  0.0114 -0.0367
   15SAPS  H12A 1868   5.830   2.420   5.859  0.1509  0.2109  0.2436
   15SAPS   C13 1869   5.924   2.595   5.777 -0.1598  0.2333  0.1595
   15SAPS  O13A 1870   5.921   2.718   5.817  0.2904 -0.1817  0.3708
   15SAPS  O13B 1871   5.935   2.562   5.655 -0.2883 -0.0943  0.4775
   15SAPS   C11 1872   6.047   2.389   5.880  0.0996 -0.1545 -0.4559
   15SAPS  H11A 1873   6.041   2.338   5.781  2.7088  0.9762 -1.2304
   15SAPS  H11B 1874   6.034   2.312   5.959 -0.5506  1.4389  1.0148
   15SAPS     P 1875   6.257   2.446   6.023 -0.0875 -0.1547  0.3381
   15SAPS   O13 1876   6.280   2.302   6.052 -0.0316 -0.0472 -0.0627
   15SAPS   O14 1877   6.371   2.541   6.018 -0.2042 -0.5105 -0.0669
   15SAPS   O12 1878   6.178   2.453   5.884 -0.2883  0.2270 -0.1975
   15SAPS   O11 1879   6.151   2.492   6.122 -0.4303 -0.3533 -0.4146
   15SAPS    C1 1880   6.186   2.559   6.243 -0.4552  0.0896  0.9381
   15SAPS    HA 1881   6.253   2.647   6.227 -0.1237 -0.2742  0.2947
   15SAPS    HB 1882   6.095   2.594   6.297  0.8098  1.5184  2.1853
   15SAPS    C2 1883   6.245   2.457   6.339  0.0924  0.3579 -0.8723
   15SAPS    HS 1884   6.335   2.412   6.292 -0.6669 -0.1749 -1.8379
   15SAPS   O21 1885   6.142   2.357   6.365 -0.5819 -0.7513 -0.1566
   15SAPS   C21 1886   6.186   2.253   6.426  0.9008  0.2411  0.3183
   15SAPS   O22 1887   6.310   2.234   6.439 -0.2888 -0.1474 -0.1595
   15SAPS   C22 1888   6.073   2.165   6.473  0.3576  0.4473 -0.1765
   15SAPS   H2R 1889   5.982   2.228   6.471  0.2507  0.2472 -1.9403
   15SAPS   H2S 1890   6.063   2.083   6.398 -2.1667  0.9393 -0.4156
   15SAPS    C3 1891   6.296   2.532   6.471  0.2529 -0.7441  0.0864
   15SAPS    HX 1892   6.388   2.590   6.447  1.2082 -2.6792 -1.0183
   15SAPS    HY 1893   6.329   2.457   6.546 -3.5484 -0.8018  1.8495
   15SAPS   O31 1894   6.197   2.621   6.528  0.1785  0.1422  0.0887
   15SAPS   C31 1895   6.101   2.566   6.605  0.7729  0.8709  0.5225
   15SAPS   O32 1896   6.117   2.457   6.648  0.9824  0.3836  0.1536
   15SAPS   C32 1897   5.982   2.659   6.605  0.9435 -0.6964  0.1782
   15SAPS   H2X 1898   5.950   2.658   6.499 -0.5885  0.8708  0.6070
   15SAPS   H2Y 1899   5.999   2.762   6.643 -1.3333 -0.7965  1.5197
   15SAPS   C23 1900   6.083   2.099   6.617 -0.0727 -0.1837  0.1011
   15SAPS   H3R 1901   6.130   2.165   6.693 -0.5660 -0.7326  0.8981
   15SAPS   H3S 1902   6.158   2.019   6.601  1.2942  0.9730  0.6294
   15SAPS   C24 1903   5.946   2.051   6.670  1.2697 -0.5014 -0.5624
   15SAPS   H4R 1904   5.965   1.971   6.745  0.3021 -1.8441 -1.7284
   15SAPS   H4S 1905   5.900   1.993   6.587  2.8482 -1.0221 -1.0974
   15SAPS   C25 1906   5.847   2.148   6.719  0.4167  0.5711 -0.3778
   15SAPS   H5R 1907   5.801   2.209   6.639  0.3013 -0.2955 -0.9840
   15SAPS   C26 1908   5.811   2.160   6.848  0.2754 -0.3322 -0.2277
   15SAPS   H6R 1909   5.752   2.247   6.879  0.7047 -0.5740  1.2873
   15SAPS   C27 1910   5.873   2.080   6.967 -0.7097  0.7228  0.6045
   15SAPS   H7R 1911   5.901   1.975   6.945 -1.4759  0.3371  1.4380
   15SAPS   H7S 1912   5.794   2.069   7.045 -0.9605  1.5832  0.4782
   15SAPS   C28 1913   5.988   2.157   7.033  0.6523  0.2957  0.4894
   15SAPS   H8R 1914   6.049   2.223   6.970 -1.9997  0.5805 -1.8772
   15SAPS   C29 1915   6.008   2.175   7.160 -0.2254  0.5756  0.4686
   15SAPS   H9R 1916   6.100   2.233   7.176  1.0631 -1.7049  1.5784
   15SAPS  C210 1917   5.932   2.118   7.277  0.8542  0.3808 -0.2507
   15SAPS  H10R 1918   5.927   2.007   7.270 -0.3503  0.4130 -0.0640
   15SAPS  H10S 1919   5.825   2.139   7.254  0.7357 -0.5968 -0.6622
   15SAPS  C211 1920   5.962   2.164   7.416  0.5435 -0.1020  0.7128
   15SAPS  H11R 1921   6.038   2.243   7.422  1.2727 -0.6859 -0.5125
   15SAPS  C212 1922   5.900   2.132   7.534 -0.2042  0.3786 -0.2923
   15SAPS  H12R 1923   5.937   2.178   7.626  2.6238  0.1990 -1.2817
   15SAPS  C213 1924   5.782   2.035   7.548  0.3660  0.1300 -0.4481
   15SAPS  H13R 1925   5.816   1.940   7.594  0.4930  0.8867  1.0392
   15SAPS  H13S 1926   5.753   2.006   7.445 -1.1148  0.1588 -0.0515
   15SAPS  C214 1927   5.676   2.086   7.640 -0.2062 -0.1539 -0.3611
   15SAPS  H14R 1928   5.610   2.159   7.591 -0.1398  0.5048  0.5328
   15SAPS  C215 1929   5.663   2.076   7.780  0.3329  0.7560 -0.5401
   15SAPS  H15R 1930   5.582   2.135   7.826 -0.8443 -2.3358  1.5012
   15SAPS  C216 1931   5.747   1.999   7.878  0.5436  0.6604  0.0890
   15SAPS  H16R 1932   5.840   2.049   7.910  1.2062  0.9309 -2.1426
   15SAPS  H16S 1933   5.777   1.902   7.832 -0.9262 -0.0082  0.4945
   15SAPS  C217 1934   5.671   1.984   8.012  0.6626  0.1808 -0.1527
   15SAPS  H17R 1935   5.569   1.951   7.982  0.3373 -0.8775  2.0445
   15SAPS  H17S 1936   5.670   2.089   8.048 -0.6266  0.0429  0.2447
   15SAPS  C218 1937   5.735   1.885   8.106  0.8576 -0.5546  0.3897
   15SAPS  H18R 1938   5.846   1.897   8.100  0.5411  2.3219 -0.8123
   15SAPS  H18S 1939   5.717   1.783   8.066 -0.5629 -0.0839 -0.2018
   15SAPS  C219 1940   5.664   1.899   8.246 -0.5667  0.6077  0.0695
   15SAPS  H19R 1941   5.554   1.896   8.232 -0.4957  1.2280 -0.6442
   15SAPS  H19S 1942   5.678   2.005   8.275  2.3948  0.4361 -0.5937
   15SAPS  C220 1943   5.700   1.785   8.345 -0.2430 -0.4846  0.1495
   15SAPS  H20R 1944   5.807   1.770   8.374 -0.2597  0.8840  0.9317
   15SAPS  H20S 1945   5.660   1.690   8.303  2.1428 -1.8242  0.7864
   15SAPS  H20T 1946   5.635   1.808   8.432 -0.3801 -0.8594  0.1496
   15SAPS   C33 1947   5.855   2.603   6.684 -0.6512 -0.0491  0.2000
   15SAPS   H3X 1948   5.825   2.497   6.672  2.4962 -1.0694  0.8527
   15SAPS   H3Y 1949   5.771   2.667   6.650  0.4709  2.1273  1.3741
   15SAPS   C34 1950   5.859   2.632   6.834  0.9277 -0.5659 -0.6839
   15SAPS   H4X 1951   5.762   2.603   6.880  1.0634  1.3400  0.8774
   15SAPS   H4Y 1952   5.864   2.742   6.854  2.3093 -1.0267  1.6595
   15SAPS   C35 1953   5.967   2.560   6.910 -0.0970  0.1440 -0.4954
   15SAPS   H5X 1954   6.066   2.599   6.879  0.9682 -0.5909  1.8348
   15SAPS   H5Y 1955   5.961   2.451   6.891  2.4349 -0.5764  2.3567
   15SAPS   C36 1956   5.972   2.575   7.063  0.0148 -0.6382  0.6191
   15SAPS   H6X 1957   5.991   2.682   7.082 -0.0122 -0.3880 -0.6830
   15SAPS   H6Y 1958   6.063   2.526   7.105 -0.0910 -0.1276  1.4348
   15SAPS   C37 1959   5.849   2.529   7.138  0.4504  0.1017  0.0288
   15SAPS   H7X 1960   5.823   2.427   7.102 -3.9328  0.8059  0.9789
   15SAPS   H7Y 1961   5.756   2.582   7.108  0.9188  1.8608  1.6262
   15SAPS   C38 1962   5.869   2.530   7.286  0.4376  0.2368  0.0269
   15SAPS   H8X 1963   5.888   2.638   7.304 -1.1723  0.7262 -1.0989
   15SAPS   H8Y 1964   5.968   2.485   7.311 -0.0250 -1.0935 -0.5361
   15SAPS   C39 1965   5.746   2.494   7.375 -0.2339 -0.1763 -0.5020
   15SAPS   H9X 1966   5.715   2.390   7.349 -1.0965  0.1877 -0.9154
   15SAPS   H9Y 1967   5.657   2.559   7.362 -1.0218 -1.4682 -1.7351
   15SAPS  C310 1968   5.782   2.487   7.525  0.3914 -0.5242 -0.3768
   15SAPS  H10X 1969   5.843   2.575   7.555 -1.2218  1.3681 -2.5146
   15SAPS  H10Y 1970   5.838   2.393   7.543 -1.3301 -1.3826  0.5552
   15SAPS  C311 1971   5.656   2.500   7.614 -0.7976  0.8833 -0.3471
   15SAPS  H11X 1972   5.582   2.423   7.584  0.7518 -0.9570  0.4778
   15SAPS  H11Y 1973   5.633   2.609   7.615 -1.1896  0.8014  1.8093
   15SAPS  C312 1974   5.700   2.457   7.759  0.7067 -0.0349 -0.3024
   15SAPS  H12X 1975   5.744   2.355   7.754  0.6792 -0.0495 -0.2419
   15SAPS  H12Y 1976   5.602   2.446   7.810 -0.0739 -1.7034 -2.1097
   15SAPS  C313 1977   5.797   2.557   7.825 -0.2029  0.5084 -0.2057
   15SAPS  H13X 1978   5.755   2.656   7.798  1.2953  1.6581  1.5487
   15SAPS  H13Y 1979   5.894   2.555   7.770  0.4366  1.1429  0.8686
   15SAPS  C314 1980   5.799   2.560   7.975 -0.0416 -0.0844 -0.0124
   15SAPS  H14X 1981   5.693   2.571   8.008  0.1839  1.9442  0.0993
   15SAPS  H14Y 1982   5.844   2.657   8.002 -0.9699  0.8059 -1.5760
   15SAPS  C315 1983   5.858   2.438   8.044 -0.5799 -0.1796 -0.3514
   15SAPS  H15X 1984   5.966   2.435   8.019 -0.5390 -3.5223  0.0289
   15SAPS  H15Y 1985   5.811   2.341   8.016 -0.7618 -0.1315 -0.2202
   15SAPS  C316 1986   5.844   2.448   8.194 -0.9916 -0.0863  0.3192
   15SAPS  H16X 1987   5.749   2.500   8.217  0.9526  2.8027  2.1810
   15SAPS  H16Y 1988   5.936   2.498   8.232 -0.0842 -0.5153 -1.2472
   15SAPS  C317 1989   5.830   2.315   8.268  0.1672  0.5958  0.6483
   15SAPS  H17X 1990   5.736   2.265   8.238 -1.4704  1.9084  3.3893
   15SAPS  H17Y 1991   5.821   2.341   8.376 -3.1344 -1.0751  0.8400
   15SAPS  C318 1992   5.942   2.213   8.254  0.0841 -0.9686  0.3447
   15SAPS  H18X 1993   5.918   2.128   8.321 -1.5542 -2.2189 -1.7995
   15SAPS  H18Y 1994   6.043   2.244   8.289 -0.3215 -0.5515  1.1799
   15SAPS  H18Z 1995   5.959   2.186   8.148 -1.8715  0.2259 -0.3032
   16SAPS     N 1996   0.186   4.819   6.316 -0.5556  0.0931 -0.1881
   16SAPS   HN1 1997   0.245   4.866   6.388 -3.6152  0.5937  2.0958
   16SAPS   HN2 1998   0.112   4.884   6.283  1.3483  2.2247 -0.3748
   16SAPS   HN3 1999   0.139   4.742   6.368  0.7181 -0.7694 -0.2779
   16SAPS   C12 2000   0.284   4.773   6.216 -0.1438 -0.3395  0.3161
   16SAPS  H12A 2001   0.237   4.734   6.127  0.9384 -0.5331 -0.1775
   16SAPS   C13 2002   0.387   4.876   6.192 -0.2395 -0.1557  0.7148
   16SAPS  O13A 2003   0.384   4.982   6.253  0.8357  0.5682 -0.5473
   16SAPS  O13B 2004   0.485   4.844   6.117  0.5153 -0.4743  0.8963
   16SAPS   C11 2005   0.357   4.644   6.271 -0.4125  0.5010 -0.5713
   16SAPS  H11A 2006   0.442   4.616   6.205  1.0891 -0.7770  1.8333
   16SAPS  H11B 2007   0.285   4.559   6.264  0.2220 -0.1300  0.4093
   16SAPS     P 2008   0.482   4.546   6.474 -0.0064  0.0839  0.3404
   16SAPS   O13 2009   0.406   4.415   6.480 -0.4143 -0.0150  0.7803
   16SAPS   O14 2010   0.617   4.543   6.414 -0.6743  0.6637 -0.2929
   16SAPS   O12 2011   0.393   4.656   6.406 -0.2947  0.1189  0.1160
   16SAPS   O11 2012   0.495   4.602   6.620  0.0933  0.2230  0.0264
   16SAPS    C1 2013   0.385   4.613   6.713 -0.4994  0.3558  0.2620
   16SAPS    HA 2014   0.326   4.519   6.705 -0.0114 -0.0179  1.0277
   16SAPS    HB 2015   0.412   4.610   6.821 -1.4594  2.3603  0.5686
   16SAPS    C2 2016   0.294   4.738   6.684  0.5753  0.7938  0.4850
   16SAPS    HS 2017   0.255   4.724   6.580  2.3051 -3.5934  0.3028
   16SAPS   O21 2018   0.383   4.856   6.701  0.2774 -0.0487 -0.6222
   16SAPS   C21 2019   0.371   4.952   6.616  0.0013 -0.2115 -0.6840
   16SAPS   O22 2020   0.298   4.954   6.521  0.7068  0.4803  0.3258
   16SAPS   C22 2021   0.467   5.067   6.652  0.5756  0.6312 -0.0963
   16SAPS   H2R 2022   0.543   5.030   6.724  0.8685 -1.5555 -1.4589
   16SAPS   H2S 2023   0.509   5.100   6.554 -2.4292  3.6515 -0.4539
   16SAPS    C3 2024   0.176   4.750   6.778  0.6292  0.1373 -0.3510
   16SAPS    HX 2025   0.111   4.664   6.755 -0.7293  0.6228  1.5705
   16SAPS    HY 2026   0.113   4.840   6.758 -0.9780 -0.8956  0.0175
   16SAPS   O31 2027   0.219   4.756   6.916  0.0225  0.5138  0.3779
   16SAPS   C31 2028   0.118   4.743   7.001 -0.8326 -0.3097  1.1316
   16SAPS   O32 2029   0.002   4.726   6.972  0.6514  0.0259 -0.1510
   16SAPS   C32 2030   0.153   4.757   7.151 -0.1682  0.1382  0.1428
   16SAPS   H2X 2031   0.054   4.763   7.201 -1.1019  1.6980 -1.7941
   16SAPS   H2Y 2032   0.198   4.856   7.174  2.8765 -0.7295 -1.9350
   16SAPS   C23 2033   0.391   5.195   6.696  0.0824  0.4890  0.5369
   16SAPS   H3R 2034   0.325   5.221   6.611  2.3263  0.2053 -1.3523
   16SAPS   H3S 2035   0.474   5.269   6.692  1.5596 -1.1546 -0.3730
   16SAPS   C24 2036   0.338   5.186   6.841  0.3447  0.0172  0.9008
   16SAPS   H4R 2037   0.282   5.092   6.859 -1.5563  0.2838 -3.2100
   16SAPS   H4S 2038   0.280   5.278   6.866  1.3767  1.1714 -0.8609
   16SAPS   C25 2039   0.453   5.211   6.931 -0.1499  0.6369  0.3308
   16SAPS   H5R 2040   0.508   5.304   6.914  1.1738  0.0080  1.1060
   16SAPS   C26 2041   0.498   5.143   7.036 -0.4264 -1.3509  0.1223
   16SAPS   H6R 2042   0.579   5.193   7.091  0.6611 -2.0270 -0.8368
   16SAPS   C27 2043   0.443   5.008   7.092 -0.2736 -0.2669 -0.2084
   16SAPS   H7R 2044   0.332   5.010   7.091 -0.2792  0.0450  0.5630
   16SAPS   H7S 2045   0.475   4.990   7.197 -1.4386 -0.8158  0.0610
   16SAPS   C28 2046   0.501   4.896   7.014  0.3225  0.0972 -0.4524
   16SAPS   H8R 2047   0.457   4.888   6.914  3.3975  1.6700 -2.0173
   16SAPS   C29 2048   0.577   4.795   7.062 -0.8779  0.1064  0.5932
   16SAPS   H9R 2049   0.621   4.727   6.988  0.9726 -0.5996  2.3234
   16SAPS  C210 2050   0.635   4.788   7.201 -1.1023  0.4192  0.4461
   16SAPS  H10R 2051   0.557   4.796   7.280 -2.8124  3.5781 -1.4866
   16SAPS  H10S 2052   0.698   4.879   7.208  0.4251 -0.4084 -1.9050
   16SAPS  C211 2053   0.731   4.667   7.215  0.4940  0.2397 -0.4156
   16SAPS  H11R 2054   0.780   4.634   7.122 -0.3743 -1.2994 -0.3426
   16SAPS  C212 2055   0.736   4.595   7.330  0.7594  0.5993 -0.6955
   16SAPS  H12R 2056   0.794   4.501   7.329 -1.3394 -0.7266  0.2952
   16SAPS  C213 2057   0.667   4.613   7.462 -0.7830  0.2855  0.2252
   16SAPS  H13R 2058   0.561   4.644   7.449 -0.6996  0.2700 -0.5611
   16SAPS  H13S 2059   0.707   4.700   7.518 -3.2501  0.5338  1.6659
   16SAPS  C214 2060   0.670   4.498   7.558  0.4088 -0.3982  0.5610
   16SAPS  H14R 2061   0.611   4.408   7.534  0.8434 -0.1660 -1.4893
   16SAPS  C215 2062   0.729   4.497   7.678 -0.3295 -0.0991 -0.5592
   16SAPS  H15R 2063   0.741   4.396   7.720 -1.1245 -0.7393 -1.8452
   16SAPS  C216 2064   0.815   4.608   7.736 -0.4465 -0.1189 -0.3793
   16SAPS  H16R 2065   0.796   4.713   7.705  0.7703  0.4333  0.6652
   16SAPS  H16S 2066   0.921   4.583   7.714 -0.1345  0.5791  0.2902
   16SAPS  C217 2067   0.804   4.616   7.888 -0.3322  0.3682 -0.6204
   16SAPS  H17R 2068   0.696   4.643   7.899 -0.3129  0.2611 -0.1493
   16SAPS  H17S 2069   0.861   4.703   7.927  2.2374 -0.9966 -1.2546
   16SAPS  C218 2070   0.838   4.488   7.966  0.1437 -0.5938 -0.1072
   16SAPS  H18R 2071   0.947   4.480   7.947  0.1744 -0.4093 -0.0086
   16SAPS  H18S 2072   0.782   4.401   7.924 -1.7176  0.1307  0.8180
   16SAPS  C219 2073   0.808   4.515   8.117  0.2628  0.4060  0.0400
   16SAPS  H19R 2074   0.830   4.418   8.167 -1.7078  0.0329  0.2059
   16SAPS  H19S 2075   0.700   4.527   8.136 -0.1246 -1.4125 -0.8996
   16SAPS  C220 2076   0.886   4.624   8.184 -0.6180 -0.1819 -0.6637
   16SAPS  H20R 2077   0.869   4.618   8.294  1.8035 -0.2883 -0.2517
   16SAPS  H20S 2078   0.855   4.726   8.154  1.3142  0.2997 -1.0967
   16SAPS  H20T 2079   0.994   4.596   8.178 -0.0315  0.8831  3.1816
   16SAPS   C33 2080   0.253   4.647   7.183 -0.6076  0.4547  0.1508
   16SAPS   H3X 2081   0.355   4.675   7.149  0.7941 -0.7145  3.2347
   16SAPS   H3Y 2082   0.232   4.549   7.136  1.1334  0.2311 -0.2023
   16SAPS   C34 2083   0.259   4.633   7.333 -0.1109 -0.3865 -0.4856
   16SAPS   H4X 2084   0.268   4.734   7.379 -2.9845 -0.1654 -0.2907
   16SAPS   H4Y 2085   0.342   4.563   7.357  1.7235  1.7985 -0.2588
   16SAPS   C35 2086   0.134   4.572   7.396  0.3563  0.0646 -0.3606
   16SAPS   H5X 2087   0.107   4.481   7.339 -0.6380 -1.4972  2.5221
   16SAPS   H5Y 2088   0.043   4.632   7.377 -1.2543 -2.4998 -1.0508
   16SAPS   C36 2089   0.158   4.539   7.548 -0.0564  0.1546 -0.8220
   16SAPS   H6X 2090   0.179   4.638   7.594 -0.5656  1.2585 -2.9232
   16SAPS   H6Y 2091   0.242   4.467   7.558 -1.0992 -0.5909  3.5276
   16SAPS   C37 2092   0.038   4.467   7.611  0.4540 -0.4197  0.0640
   16SAPS   H7X 2093  -0.004   4.394   7.538  1.6972  0.7079 -1.8069
   16SAPS   H7Y 2094  -0.036   4.548   7.628  1.9432  0.8753  0.4870
   16SAPS   C38 2095   0.067   4.402   7.743  0.1362  0.3734  0.2693
   16SAPS   H8X 2096   0.125   4.308   7.740  1.4836  1.1317  1.6244
   16SAPS   H8Y 2097  -0.031   4.377   7.788  0.1573  1.4021  0.9175
   16SAPS   C39 2098   0.124   4.496   7.850 -0.1169  0.1141  0.1319
   16SAPS   H9X 2099   0.068   4.477   7.944  0.1734  0.6426  0.4095
   16SAPS   H9Y 2100   0.093   4.599   7.822 -2.4883 -0.0977  1.8333
   16SAPS  C310 2101   0.277   4.489   7.858 -0.0575  0.2461 -0.0393
   16SAPS  H10X 2102   0.321   4.591   7.861  0.8158 -0.0697 -1.3289
   16SAPS  H10Y 2103   0.330   4.440   7.773  0.9623  0.2778  0.5724
   16SAPS  C311 2104   0.317   4.403   7.984  0.2488  0.4093  0.6774
   16SAPS  H11X 2105   0.259   4.311   7.963  1.6957 -0.2751 -0.4131
   16SAPS  H11Y 2106   0.280   4.456   8.075  2.8654  2.6805  0.5079
   16SAPS  C312 2107   0.470   4.372   7.980  0.4080 -0.4049 -0.4697
   16SAPS  H12X 2108   0.531   4.465   7.987 -0.3931  0.1817 -1.1559
   16SAPS  H12Y 2109   0.485   4.333   7.877  0.5069 -0.2411 -0.5179
   16SAPS  C313 2110   0.507   4.271   8.084 -0.4611 -0.2892  0.3273
   16SAPS  H13X 2111   0.611   4.237   8.066 -0.4681  0.1787 -0.6661
   16SAPS  H13Y 2112   0.427   4.194   8.081 -0.0610 -0.7868  2.0664
   16SAPS  C314 2113   0.503   4.319   8.229  0.1639 -1.2593  0.2196
   16SAPS  H14X 2114   0.395   4.335   8.251  0.8268  2.5839  1.1148
   16SAPS  H14Y 2115   0.564   4.412   8.239  0.1835 -1.1557 -0.7794
   16SAPS  C315 2116   0.557   4.218   8.329  0.0587  0.1380 -0.5270
   16SAPS  H15X 2117   0.661   4.190   8.304  0.8298 -0.0767  2.6650
   16SAPS  H15Y 2118   0.494   4.126   8.327  0.4022 -0.0910 -0.8445
   16SAPS  C316 2119   0.561   4.281   8.471  0.7027  0.0308 -1.0392
   16SAPS  H16X 2120   0.571   4.200   8.546 -2.5077 -1.6340 -2.3093
   16SAPS  H16Y 2121   0.461   4.325   8.492  0.0357 -1.2359 -1.4978
   16SAPS  C317 2122   0.680   4.383   8.485 -0.1454 -0.6816 -0.8998
   16SAPS  H17X 2123   0.674   4.473   8.420 -1.5469  0.7251  1.0825
   16SAPS  H17Y 2124   0.773   4.327   8.462  0.3448  0.5247 -1.9065
   16SAPS  C318 2125   0.684   4.446   8.631  0.3920 -0.4558 -0.1799
   16SAPS  H18X 2126   0.705   4.366   8.706  2.1914 -0.5785 -0.8135
   16SAPS  H18Y 2127   0.593   4.508   8.645  2.0757  2.6422 -2.4211
   16SAPS  H18Z 2128   0.760   4.525   8.646 -0.5628  0.4144  0.1098
   17SAPC     N 2129   5.744   2.025  10.642 -0.0516  0.1418  0.0971
   17SAPC   C12 2130   5.766   1.912  10.735 -0.0934  0.0040  0.3276
   17SAPC  H12A 2131   5.687   1.916  10.808 -0.2157 -2.5863  0.3689
   17SAPC  H12B 2132   5.860   1.926  10.786  0.2254  0.7679 -0.4491
   17SAPC   C13 2133   5.750   2.160  10.711  0.5705 -0.1183  0.1597
   17SAPC  H13A 2134   5.676   2.152  10.789  1.7783 -1.2721  1.2115
   17SAPC  H13B 2135   5.847   2.181  10.754  0.5689  1.0586 -0.3877
   17SAPC  H13C 2136   5.737   2.240  10.639 -0.9226 -0.6132 -0.1318
   17SAPC   C14 2137   5.852   2.027  10.538  0.2343 -0.4581 -0.5683
   17SAPC  H14A 2138   5.823   2.076  10.446 -0.3964 -1.7672 -1.0826
   17SAPC  H14B 2139   5.944   2.070  10.575 -0.3774 -0.3098  0.8275
   17SAPC  H14C 2140   5.870   1.926  10.504 -2.7198 -1.0039 -0.6628
   17SAPC   C15 2141   5.620   2.004  10.564 -0.4986  0.3505  0.2811
   17SAPC  H15A 2142   5.602   2.089  10.501 -1.0282  0.8706  1.1172
   17SAPC  H15B 2143   5.633   1.913  10.507  0.7891 -0.0867  1.2271
   17SAPC  H15C 2144   5.537   1.987  10.631 -0.4832 -0.8881  0.0035
   17SAPC   C11 2145   5.772   1.763  10.685 -0.1018  0.6045 -0.1047
   17SAPC  H11A 2146   5.673   1.724  10.652  0.1386  0.1358 -0.2824
   17SAPC  H11B 2147   5.785   1.706  10.780 -1.1166  1.4280  0.5416
   17SAPC     P 2148   5.861   1.674  10.458  0.2018  0.4212  0.1038
   17SAPC   O13 2149   5.781   1.764  10.378  0.0464  0.7796  1.0068
   17SAPC   O14 2150   5.986   1.629  10.404  0.0315 -0.3390  0.1365
   17SAPC   O12 2151   5.878   1.747  10.595 -0.8296  0.0797  0.1745
   17SAPC   O11 2152   5.766   1.554  10.505  0.5934 -0.9512  0.0415
   17SAPC    C1 2153   5.788   1.421  10.465 -0.6263  0.3200 -0.3106
   17SAPC    HA 2154   5.898   1.404  10.468 -0.6794 -0.4037 -1.7936
   17SAPC    HB 2155   5.748   1.350  10.540  1.6338 -0.7972 -0.1091
   17SAPC    C2 2156   5.710   1.383  10.342 -0.7463 -0.1028 -0.8223
   17SAPC    HS 2157   5.714   1.276  10.315  0.2183 -0.2637 -0.0653
   17SAPC   O21 2158   5.731   1.474  10.232 -0.2361 -0.2000 -0.4073
   17SAPC   C21 2159   5.833   1.438  10.159 -0.5123  0.2445 -1.2456
   17SAPC   O22 2160   5.913   1.347  10.188  0.3365  0.2776  0.1457
   17SAPC   C22 2161   5.840   1.526  10.036 -0.3762  0.0567  0.4474
   17SAPC   H2R 2162   5.817   1.627  10.077 -0.9242  0.5899 -1.1510
   17SAPC   H2S 2163   5.941   1.517   9.990 -0.0005 -1.5701  1.5519
   17SAPC    C3 2164   5.560   1.402  10.376 -0.7656  0.5159  0.5500
   17SAPC    HX 2165   5.544   1.510  10.395  0.2937  0.8553 -0.4522
   17SAPC    HY 2166   5.545   1.344  10.470 -0.9357  1.4385  1.1053
   17SAPC   O31 2167   5.475   1.349  10.277 -0.4086  0.2898  0.3036
   17SAPC   C31 2168   5.404   1.437  10.207  0.4125  0.7081 -0.0511
   17SAPC   O32 2169   5.396   1.554  10.231  0.3419  0.1125 -0.7998
   17SAPC   C32 2170   5.327   1.369  10.087 -0.3356  0.2849 -0.4646
   17SAPC   H2X 2171   5.235   1.315  10.119 -0.3745  1.1234  0.8946
   17SAPC   H2Y 2172   5.401   1.305  10.035 -1.9917 -0.5361 -1.8355
   17SAPC   C23 2173   5.733   1.491   9.933  0.2455  0.5976  0.7167
   17SAPC   H3R 2174   5.739   1.565   9.850  1.1518  1.0530  1.1736
   17SAPC   H3S 2175   5.636   1.511   9.983 -0.4758 -0.3632 -0.2664
   17SAPC   C24 2176   5.735   1.346   9.878 -0.7349 -0.0520 -0.2750
   17SAPC   H4R 2177   5.635   1.328   9.834  0.4362 -0.3021 -2.8720
   17SAPC   H4S 2178   5.732   1.287   9.972  1.6708 -0.0704 -0.1715
   17SAPC   C25 2179   5.850   1.311   9.796 -0.2625 -0.0468  0.1945
   17SAPC   H5R 2180   5.940   1.291   9.855 -0.5751 -0.9780  0.3640
   17SAPC   C26 2181   5.868   1.312   9.662 -0.1581  0.6166  0.0960
   17SAPC   H6R 2182   5.969   1.297   9.621 -0.8488 -0.1819 -1.3461
   17SAPC   C27 2183   5.758   1.348   9.566  0.1616  0.4772 -0.5728
   17SAPC   H7R 2184   5.677   1.401   9.621  2.1165  1.6233  1.2847
   17SAPC   H7S 2185   5.702   1.263   9.522 -0.3890  0.7667 -0.4344
   17SAPC   C28 2186   5.806   1.424   9.438 -0.3278  0.0913  0.3198
   17SAPC   H8R 2187   5.793   1.534   9.437 -1.1221 -0.0007 -0.0229
   17SAPC   C29 2188   5.864   1.372   9.323 -0.0327  0.4932 -0.1364
   17SAPC   H9R 2189   5.890   1.432   9.235  0.4996  0.0307 -0.3010
   17SAPC  C210 2190   5.905   1.226   9.296  0.3048 -0.0769 -0.4427
   17SAPC  H10R 2191   5.884   1.168   9.389 -0.8115 -1.9226 -1.8127
   17SAPC  H10S 2192   6.015   1.225   9.279  0.0896 -1.0934 -1.8897
   17SAPC  C211 2193   5.818   1.156   9.187 -0.2853 -0.1635 -0.3790
   17SAPC  H11R 2194   5.719   1.123   9.222  0.6953 -0.5025  2.1996
   17SAPC  C212 2195   5.866   1.120   9.066  0.1378  0.6633 -0.3541
   17SAPC  H12R 2196   5.798   1.074   8.993  1.2726 -0.4077 -0.7594
   17SAPC  C213 2197   6.003   1.134   9.009  0.3309 -0.1802 -0.2688
   17SAPC  H13R 2198   5.999   1.104   8.902 -1.6552 -2.1624  0.3161
   17SAPC  H13S 2199   6.059   1.058   9.067  1.6042  2.5702  2.2726
   17SAPC  C214 2200   6.061   1.267   9.029 -0.0487 -0.7958 -0.3886
   17SAPC  H14R 2201   6.123   1.282   9.119  0.8893  3.2639 -1.5980
   17SAPC  C215 2202   6.015   1.386   8.974  1.1460  0.5646  0.2998
   17SAPC  H15R 2203   6.089   1.466   8.969  1.6497 -0.0481 -2.5537
   17SAPC  C216 2204   5.903   1.396   8.870 -0.6645 -0.5329  1.0275
   17SAPC  H16R 2205   5.807   1.440   8.903 -0.2709  0.0107  1.4401
   17SAPC  H16S 2206   5.888   1.289   8.842 -0.0926 -1.3421  3.7472
   17SAPC  C217 2207   5.935   1.473   8.743 -0.5665 -0.4004  0.5166
   17SAPC  H17R 2208   6.026   1.431   8.694 -1.9510 -2.9201  0.0180
   17SAPC  H17S 2209   5.947   1.579   8.775 -0.4113 -0.6895  1.4200
   17SAPC  C218 2210   5.827   1.469   8.639  0.1709  0.2517  0.0714
   17SAPC  H18R 2211   5.829   1.557   8.571  1.8406  2.2486  2.6220
   17SAPC  H18S 2212   5.724   1.464   8.680 -0.1331 -0.1445 -0.7202
   17SAPC  C219 2213   5.830   1.340   8.548 -0.1289  0.2092  0.7413
   17SAPC  H19R 2214   5.811   1.251   8.611  0.9478  1.5069  2.9390
   17SAPC  H19S 2215   5.929   1.322   8.500 -0.5239 -0.7544  0.2933
   17SAPC  C220 2216   5.728   1.342   8.436  0.2385  0.6100  0.3023
   17SAPC  H20R 2217   5.735   1.257   8.365 -1.6251  1.2405 -0.6821
   17SAPC  H20S 2218   5.729   1.436   8.376  1.9396  1.2315  1.2818
   17SAPC  H20T 2219   5.627   1.349   8.483  0.3222 -1.1251  0.7629
   17SAPC   C33 2220   5.262   1.476   9.992  0.3139 -0.2081 -0.0252
   17SAPC   H3X 2221   5.342   1.549   9.965 -0.7730  1.3960  0.9577
   17SAPC   H3Y 2222   5.180   1.527  10.046 -0.7162 -1.8182 -0.0559
   17SAPC   C34 2223   5.192   1.418   9.866  0.0404 -0.2265 -0.2438
   17SAPC   H4X 2224   5.162   1.507   9.807  0.6727 -1.0515 -1.8268
   17SAPC   H4Y 2225   5.111   1.347   9.893  1.2546 -0.2679  3.7150
   17SAPC   C35 2226   5.291   1.346   9.776  0.7761 -0.3242 -0.0832
   17SAPC   H5X 2227   5.329   1.249   9.813  4.7505 -0.6294 -4.4589
   17SAPC   H5Y 2228   5.380   1.412   9.761  0.0114  0.7901  0.2386
   17SAPC   C36 2229   5.235   1.328   9.640  0.1224 -0.7935 -0.1248
   17SAPC   H6X 2230   5.183   1.418   9.600 -0.7821 -0.8557  0.8994
   17SAPC   H6Y 2231   5.158   1.250   9.657 -1.1581  0.7937  1.5468
   17SAPC   C37 2232   5.350   1.284   9.551  0.0439  0.0258 -0.4220
   17SAPC   H7X 2233   5.394   1.183   9.567 -0.8053 -0.2348  0.3094
   17SAPC   H7Y 2234   5.444   1.338   9.575 -0.1852  1.0070 -1.7179
   17SAPC   C38 2235   5.311   1.296   9.408  0.9884  0.0786 -0.2328
   17SAPC   H8X 2236   5.307   1.404   9.383 -1.4883  0.0582 -0.0465
   17SAPC   H8Y 2237   5.212   1.247   9.395  1.0716 -1.9584  5.4755
   17SAPC   C39 2238   5.409   1.222   9.312 -0.1604 -0.1407 -0.4953
   17SAPC   H9X 2239   5.423   1.112   9.326 -0.3398 -0.2634 -1.2365
   17SAPC   H9Y 2240   5.506   1.275   9.316  1.0279 -2.2865  0.2960
   17SAPC  C310 2241   5.360   1.225   9.165 -0.1336 -0.3276 -0.5328
   17SAPC  H10X 2242   5.311   1.320   9.136 -0.5161 -0.5659 -0.6767
   17SAPC  H10Y 2243   5.278   1.149   9.169 -0.9304  0.5860  0.6414
   17SAPC  C311 2244   5.462   1.171   9.058  0.1349 -0.2227  0.3254
   17SAPC  H11X 2245   5.505   1.084   9.111 -0.5243  0.2542  1.6701
   17SAPC  H11Y 2246   5.546   1.242   9.040 -0.2935  0.4573  0.9659
   17SAPC  C312 2247   5.397   1.141   8.928 -0.1514 -0.1788  0.1727
   17SAPC  H12X 2248   5.358   1.235   8.885  0.6127  0.7948  1.5496
   17SAPC  H12Y 2249   5.312   1.072   8.947  2.0577 -3.1340 -0.3018
   17SAPC  C313 2250   5.495   1.059   8.843  1.3249  0.2292  0.6722
   17SAPC  H13X 2251   5.523   0.969   8.902  0.4619 -1.6417 -1.6472
   17SAPC  H13Y 2252   5.594   1.108   8.839  1.0602  0.6711 -0.9496
   17SAPC  C314 2253   5.448   1.037   8.700  0.5630  0.3737 -0.3197
   17SAPC  H14X 2254   5.520   0.967   8.651 -0.0373 -0.0305 -0.6353
   17SAPC  H14Y 2255   5.442   1.131   8.641  0.0748  0.5825  0.0667
   17SAPC  C315 2256   5.306   0.971   8.698  0.0542  0.8551  0.4096
   17SAPC  H15X 2257   5.235   1.044   8.743 -1.1249  0.5584 -0.9290
   17SAPC  H15Y 2258   5.290   0.897   8.779 -2.0849  1.9527  1.0231
   17SAPC  C316 2259   5.253   0.931   8.562 -0.1981 -0.4252 -0.0594
   17SAPC  H16X 2260   5.329   0.874   8.505 -0.6265 -2.5807  1.4829
   17SAPC  H16Y 2261   5.229   1.026   8.510 -1.2388  0.1349  1.4227
   17SAPC  C317 2262   5.118   0.846   8.555  0.1269  0.2724 -0.7111
   17SAPC  H17X 2263   5.104   0.809   8.452  4.2216 -2.7864 -0.2828
   17SAPC  H17Y 2264   5.028   0.908   8.572 -0.7430 -0.7263 -1.6332
   17SAPC  C318 2265   5.105   0.722   8.642 -0.3957 -0.6019 -0.0128
   17SAPC  H18X 2266   5.184   0.651   8.610 -0.5566 -0.1902 -1.3207
   17SAPC  H18Y 2267   5.119   0.758   8.747  0.0253  0.0413 -0.2871
   17SAPC  H18Z 2268   5.002   0.684   8.633 -1.2312  1.1540  1.6912
   18SAPC     N 2269   6.310   1.235  10.494  0.0458 -0.1426  0.0160
   18SAPC   C12 2270   6.392   1.145  10.585  0.1737 -0.8639 -0.2587
   18SAPC  H12A 2271   6.486   1.189  10.616  0.2245  0.4950 -2.2619
   18SAPC  H12B 2272   6.433   1.064  10.526  1.8917  0.2898 -0.6764
   18SAPC   C13 2273   6.382   1.251  10.365 -1.0609  0.2767 -0.1637
   18SAPC  H13A 2274   6.376   1.159  10.309  0.3067 -0.2934  0.6032
   18SAPC  H13B 2275   6.335   1.329  10.306 -1.1490  0.6964  0.4556
   18SAPC  H13C 2276   6.486   1.280  10.368 -0.8118 -0.7022  0.8268
   18SAPC   C14 2277   6.178   1.173  10.450  0.5604  1.1089 -0.1606
   18SAPC  H14A 2278   6.111   1.237  10.394  0.7681  1.4313 -0.0438
   18SAPC  H14B 2279   6.197   1.078  10.401  1.4143  0.5541  1.2076
   18SAPC  H14C 2280   6.115   1.145  10.533  1.9095 -2.4029 -0.2192
   18SAPC   C15 2281   6.281   1.364  10.552  0.4590 -0.4878 -0.7174
   18SAPC  H15A 2282   6.373   1.419  10.562  0.5432 -0.6582 -0.5333
   18SAPC  H15B 2283   6.224   1.425  10.484 -0.6816 -0.5491  0.1687
   18SAPC  H15C 2284   6.225   1.349  10.643  0.6646 -1.5921 -0.7672
   18SAPC   C11 2285   6.331   1.085  10.713 -0.2378 -0.7668  0.6712
   18SAPC  H11A 2286   6.287   1.163  10.779  2.1436  0.2229  1.1518
   18SAPC  H11B 2287   6.417   1.034  10.761 -1.4942  0.0453  3.9691
   18SAPC     P 2288   6.242   0.848  10.636  0.4821  0.0038 -0.2334
   18SAPC   O13 2289   6.314   0.762  10.731 -0.0987  0.1073 -0.6735
   18SAPC   O14 2290   6.104   0.816  10.600 -0.6146  0.1414 -0.2712
   18SAPC   O12 2291   6.229   0.991  10.696 -0.2286 -0.6625 -0.0045
   18SAPC   O11 2292   6.324   0.869  10.506  0.6439 -0.2379  0.1516
   18SAPC    C1 2293   6.447   0.801  10.484  0.6994 -0.2845  0.2488
   18SAPC    HA 2294   6.520   0.883  10.474 -0.2394  0.3008 -2.3699
   18SAPC    HB 2295   6.489   0.739  10.566 -0.4342  0.4684  1.4090
   18SAPC    C2 2296   6.455   0.707  10.364 -0.1658 -0.3388 -0.4586
   18SAPC    HS 2297   6.560   0.703  10.330  0.5465  1.6933  1.3702
   18SAPC   O21 2298   6.367   0.747  10.254 -0.0899 -0.0973 -0.9212
   18SAPC   C21 2299   6.401   0.862  10.199  0.4911 -0.4650 -0.6963
   18SAPC   O22 2300   6.485   0.943  10.241 -0.4391 -0.0460  0.7205
   18SAPC   C22 2301   6.313   0.877  10.077 -0.6576 -0.7992 -0.5690
   18SAPC   H2R 2302   6.311   0.782  10.020  2.2847  0.3152 -2.6191
   18SAPC   H2S 2303   6.208   0.898  10.108  0.6561  1.8709  2.3376
   18SAPC    C3 2304   6.422   0.560  10.401  0.4478  0.5459 -0.5906
   18SAPC    HX 2305   6.316   0.558  10.434  0.7001  1.4013  0.3169
   18SAPC    HY 2306   6.489   0.523  10.483  0.2355  3.3223  0.9151
   18SAPC   O31 2307   6.432   0.480  10.283  0.3082 -0.2114  0.0232
   18SAPC   C31 2308   6.499   0.363  10.289 -0.0395  0.2072 -0.4447
   18SAPC   O32 2309   6.554   0.320  10.389  0.4230  0.1342 -0.0183
   18SAPC   C32 2310   6.487   0.274  10.163 -0.0078 -0.4553 -0.0140
   18SAPC   H2X 2311   6.384   0.237  10.149  0.6743 -2.4193 -0.0666
   18SAPC   H2Y 2312   6.557   0.199  10.207  0.6755  0.8747  1.2156
   18SAPC   C23 2313   6.364   0.991   9.977 -0.6778  0.4163  0.2842
   18SAPC   H3R 2314   6.374   1.088  10.030 -1.6850 -0.2538  1.7283
   18SAPC   H3S 2315   6.294   1.009   9.893  0.5348  0.5604 -0.7174
   18SAPC   C24 2316   6.509   0.962   9.927 -0.3935  0.1497  0.0064
   18SAPC   H4R 2317   6.580   0.940  10.011 -1.1091 -0.6650  0.3992
   18SAPC   H4S 2318   6.560   1.051   9.883 -0.5134  0.0166 -0.4009
   18SAPC   C25 2319   6.522   0.855   9.831 -0.2313 -0.2058  0.0999
   18SAPC   H5R 2320   6.481   0.766   9.880 -0.4093  0.9784  2.1795
   18SAPC   C26 2321   6.561   0.841   9.704  0.5104 -0.6845  0.4688
   18SAPC   H6R 2322   6.563   0.739   9.662  0.7476 -0.1452 -0.8764
   18SAPC   C27 2323   6.618   0.949   9.611 -0.3978  0.4908  0.0423
   18SAPC   H7R 2324   6.638   1.047   9.659  1.1240  0.5176 -0.6443
   18SAPC   H7S 2325   6.550   0.983   9.530  1.0430  0.2545 -1.2854
   18SAPC   C28 2326   6.743   0.901   9.547  0.1250 -0.0060  0.1464
   18SAPC   H8R 2327   6.832   0.912   9.610  0.3436 -2.3731  0.2913
   18SAPC   C29 2328   6.769   0.868   9.422 -0.5635 -0.5398 -1.2046
   18SAPC   H9R 2329   6.873   0.834   9.411  0.1504  1.0690  0.3003
   18SAPC  C210 2330   6.672   0.841   9.310 -0.3192 -0.1238  0.3038
   18SAPC  H10R 2331   6.711   0.882   9.214 -2.0588  2.7185  0.7648
   18SAPC  H10S 2332   6.584   0.907   9.324  0.3600  0.5285  1.5346
   18SAPC  C211 2333   6.641   0.692   9.306 -0.6062 -0.1346  0.0617
   18SAPC  H11R 2334   6.592   0.651   9.396  1.5022  0.9399  1.7402
   18SAPC  C212 2335   6.656   0.607   9.198 -0.3007  0.4679  0.4337
   18SAPC  H12R 2336   6.602   0.512   9.194  1.6784 -0.6382 -1.2248
   18SAPC  C213 2337   6.719   0.645   9.059  0.3262  0.1267 -0.6557
   18SAPC  H13R 2338   6.676   0.741   9.024 -0.0858  0.7718  1.5846
   18SAPC  H13S 2339   6.680   0.581   8.976  1.1793 -1.2381 -0.0225
   18SAPC  C214 2340   6.864   0.642   9.044  0.2446 -0.6190 -0.0717
   18SAPC  H14R 2341   6.920   0.731   9.077  1.6183 -2.2560  2.1950
   18SAPC  C215 2342   6.942   0.538   8.991 -0.5367  0.1830  0.4728
   18SAPC  H15R 2343   7.050   0.555   9.003 -0.6446  1.0457  0.2696
   18SAPC  C216 2344   6.906   0.399   8.944 -0.9706  0.0522  0.0108
   18SAPC  H16R 2345   6.907   0.391   8.833  1.4046  0.5329 -0.0088
   18SAPC  H16S 2346   6.815   0.354   8.990 -1.2608 -0.9874 -1.5257
   18SAPC  C217 2347   7.030   0.315   8.993 -0.7043 -0.4523  0.1075
   18SAPC  H17R 2348   7.044   0.327   9.103  1.3388  0.4837 -0.2419
   18SAPC  H17S 2349   7.125   0.348   8.947 -0.4386  1.5093  2.0143
   18SAPC  C218 2350   7.008   0.170   8.952  0.3018  0.4703  0.7674
   18SAPC  H18R 2351   6.988   0.169   8.842 -1.0097 -0.2010  1.0110
   18SAPC  H18S 2352   6.914   0.132   8.996 -0.3424 -1.2435 -1.9652
   18SAPC  C219 2353   7.134   0.094   8.993  0.1501 -0.2637  0.4158
   18SAPC  H19R 2354   7.158   0.093   9.102 -1.7148 -2.4272  0.8571
   18SAPC  H19S 2355   7.224   0.135   8.943  1.9554 -2.0643  2.0726
   18SAPC  C220 2356   7.112  -0.057   8.949 -0.0809  0.4039 -0.6469
   18SAPC  H20R 2357   7.130  -0.058   8.840 -0.3039 -1.5714 -0.6708
   18SAPC  H20S 2358   7.009  -0.088   8.973  0.0853  0.1511 -0.2508
   18SAPC  H20T 2359   7.192  -0.113   9.002 -1.0877  0.1014  0.5843
   18SAPC   C33 2360   6.547   0.338  10.033  0.0816  0.1563 -0.7781
   18SAPC   H3X 2361   6.606   0.253   9.994 -0.6801  0.3313 -2.3204
   18SAPC   H3Y 2362   6.614   0.424  10.058 -0.7132 -0.1891  2.9052
   18SAPC   C34 2363   6.443   0.375   9.924 -0.4382  0.3823  0.2750
   18SAPC   H4X 2364   6.387   0.289   9.883 -0.7613  1.2247 -1.0794
   18SAPC   H4Y 2365   6.512   0.410   9.845  1.1925 -2.4872  0.3520
   18SAPC   C35 2366   6.344   0.488   9.961 -0.0270 -1.1137 -0.4541
   18SAPC   H5X 2367   6.406   0.579   9.975 -1.5058 -0.1649  0.0642
   18SAPC   H5Y 2368   6.311   0.456  10.062 -0.5478 -2.4537 -1.0301
   18SAPC   C36 2369   6.232   0.519   9.863  0.7893  0.2762  0.4272
   18SAPC   H6X 2370   6.174   0.602   9.908 -1.2907 -1.7700  1.6457
   18SAPC   H6Y 2371   6.175   0.424   9.856 -1.4758  1.6589 -0.5765
   18SAPC   C37 2372   6.273   0.552   9.723 -0.6100  0.1473  0.0154
   18SAPC   H7X 2373   6.348   0.635   9.722 -0.7871  0.3174 -1.6232
   18SAPC   H7Y 2374   6.182   0.598   9.679  0.2425 -0.5863 -2.6509
   18SAPC   C38 2375   6.310   0.433   9.637  0.2921 -0.2665  0.0955
   18SAPC   H8X 2376   6.222   0.366   9.648 -0.7291  1.4520  2.6596
   18SAPC   H8Y 2377   6.399   0.374   9.668  0.3133 -0.0438  0.4575
   18SAPC   C39 2378   6.317   0.471   9.487 -0.3976 -0.5577  0.7023
   18SAPC   H9X 2379   6.390   0.553   9.477 -1.0048  0.1802  2.2070
   18SAPC   H9Y 2380   6.222   0.518   9.453 -1.0836 -1.4337  1.3737
   18SAPC  C310 2381   6.354   0.359   9.389  0.5708  0.4598 -0.1989
   18SAPC  H10X 2382   6.287   0.271   9.396  1.5848 -0.2249  1.1116
   18SAPC  H10Y 2383   6.463   0.335   9.396  1.0778  2.3798 -1.0355
   18SAPC  C311 2384   6.344   0.412   9.247 -0.0752 -0.1442 -0.6394
   18SAPC  H11X 2385   6.383   0.515   9.246  0.0149 -0.1864 -1.2700
   18SAPC  H11Y 2386   6.236   0.422   9.223 -0.1512  2.5503  0.6624
   18SAPC  C312 2387   6.407   0.317   9.144  0.1498  0.0516  0.6215
   18SAPC  H12X 2388   6.389   0.209   9.164  3.0683  0.1262  4.2501
   18SAPC  H12Y 2389   6.516   0.336   9.141  0.1749 -0.0633  0.8027
   18SAPC  C313 2390   6.356   0.344   9.002 -0.0330 -0.6995  1.1121
   18SAPC  H13X 2391   6.347   0.455   9.001 -1.1112 -0.7926 -0.0969
   18SAPC  H13Y 2392   6.257   0.297   8.988 -0.2280  0.7452 -3.4162
   18SAPC  C314 2393   6.451   0.306   8.893  0.6388 -0.1565  0.3655
   18SAPC  H14X 2394   6.468   0.197   8.880  0.7424  0.0088 -0.9108
   18SAPC  H14Y 2395   6.551   0.348   8.916  1.2494 -1.6390  0.4554
   18SAPC  C315 2396   6.397   0.363   8.762  0.3046 -0.7252  1.0067
   18SAPC  H15X 2397   6.355   0.464   8.781  1.8954 -0.1898  1.7532
   18SAPC  H15Y 2398   6.323   0.290   8.722  2.8896 -1.3894 -2.9265
   18SAPC  C316 2399   6.504   0.381   8.652 -0.5191  0.0365 -0.1792
   18SAPC  H16X 2400   6.567   0.465   8.689  0.8443 -1.6125  1.4016
   18SAPC  H16Y 2401   6.453   0.427   8.565 -2.6337 -1.1215  0.4183
   18SAPC  C317 2402   6.592   0.256   8.621 -0.1489  0.3267  0.2008
   18SAPC  H17X 2403   6.658   0.231   8.706  0.0407  1.0266  0.2597
   18SAPC  H17Y 2404   6.671   0.289   8.551 -1.6847 -2.5072 -3.0101
   18SAPC  C318 2405   6.518   0.122   8.580  0.1046  0.3024  0.6779
   18SAPC  H18X 2406   6.591   0.038   8.587  1.2802  1.3117  0.7244
   18SAPC  H18Y 2407   6.481   0.131   8.476 -0.9064 -2.4093  0.7723
   18SAPC  H18Z 2408   6.433   0.103   8.648 -0.7273  1.1431 -0.1151
   19SAPC     N 2409   4.312   2.905  10.669  1.0804  0.0583 -0.2246
   19SAPC   C12 2410   4.425   2.913  10.566  0.2727  0.2210 -0.5783
   19SAPC  H12A 2411   4.513   2.950  10.616  0.0095 -0.1381  0.1483
   19SAPC  H12B 2412   4.391   2.990  10.498 -1.0047  0.7950  0.6768
   19SAPC   C13 2413   4.340   2.795  10.761  0.5856  0.1251  0.0580
   19SAPC  H13A 2414   4.434   2.812  10.811  0.2952 -1.6891  1.2825
   19SAPC  H13B 2415   4.265   2.776  10.837  3.2146 -0.2120  2.6474
   19SAPC  H13C 2416   4.343   2.702  10.705 -1.8925  0.2563 -0.3566
   19SAPC   C14 2417   4.309   3.033  10.743  1.0303  0.1832 -0.1141
   19SAPC  H14A 2418   4.273   3.112  10.680  1.3977  0.1171 -0.4086
   19SAPC  H14B 2419   4.246   3.022  10.830 -0.8917 -0.1739 -1.5182
   19SAPC  H14C 2420   4.404   3.048  10.793  0.4525  1.7192  0.5324
   19SAPC   C15 2421   4.185   2.877  10.603  0.0552  0.0292 -0.3971
   19SAPC  H15A 2422   4.161   2.945  10.522  0.7973 -1.1285 -1.6181
   19SAPC  H15B 2423   4.187   2.777  10.563 -0.5525 -0.0201 -0.3095
   19SAPC  H15C 2424   4.100   2.873  10.669  0.6550 -0.5624  0.3396
   19SAPC   C11 2425   4.471   2.794  10.488 -0.1945  0.9063 -1.1822
   19SAPC  H11A 2426   4.512   2.823  10.389 -2.7267 -1.0813 -2.8901
   19SAPC  H11B 2427   4.384   2.727  10.468  0.8487 -1.3964  1.5707
   19SAPC     P 2428   4.648   2.602  10.488  0.1455  0.2673 -0.3986
   19SAPC   O13 2429   4.741   2.540  10.588 -0.6172  0.0466  0.4178
   19SAPC   O14 2430   4.541   2.513  10.434 -0.2220 -0.3734  0.0651
   19SAPC   O12 2431   4.569   2.718  10.565  0.3553 -0.1226  0.4382
   19SAPC   O11 2432   4.719   2.678  10.367 -0.0742  0.0175 -0.5466
   19SAPC    C1 2433   4.854   2.722  10.382 -0.2371 -0.0802  0.0326
   19SAPC    HA 2434   4.853   2.806  10.454 -1.8184 -1.1121  1.2607
   19SAPC    HB 2435   4.923   2.641  10.416 -1.3281 -1.7811 -1.7186
   19SAPC    C2 2436   4.904   2.782  10.247  0.4435 -0.8787  0.2754
   19SAPC    HS 2437   4.992   2.846  10.266 -1.0229  1.2104  0.1683
   19SAPC   O21 2438   4.795   2.864  10.189 -0.0244 -0.0687 -0.0347
   19SAPC   C21 2439   4.766   2.980  10.253  0.4327 -0.2677 -0.2353
   19SAPC   O22 2440   4.829   3.024  10.345  0.2558 -0.0575 -0.5702
   19SAPC   C22 2441   4.653   3.062  10.181  1.2511  0.2198  0.0918
   19SAPC   H2R 2442   4.554   3.026  10.215  0.8734  1.2780  0.1242
   19SAPC   H2S 2443   4.661   3.170  10.207  1.9837 -0.5567  3.2673
   19SAPC    C3 2444   4.947   2.674  10.142  0.0614  0.1635  0.4930
   19SAPC    HX 2445   4.861   2.604  10.154 -0.0847  0.5385  1.7548
   19SAPC    HY 2446   5.043   2.628  10.174  0.6781  2.2327  1.7676
   19SAPC   O31 2447   4.958   2.705  10.002 -0.4870 -0.5604 -0.1254
   19SAPC   C31 2448   5.029   2.813   9.966  0.0345  0.1806 -0.5476
   19SAPC   O32 2449   5.090   2.881  10.042 -0.1622  0.2024  0.4411
   19SAPC   C32 2450   5.007   2.832   9.820  0.1304  0.4903 -0.7084
   19SAPC   H2X 2451   5.036   2.736   9.771  1.0763  0.4287 -0.0386
   19SAPC   H2Y 2452   5.078   2.911   9.784 -0.3126  1.4297  0.4668
   19SAPC   C23 2453   4.656   3.035  10.023 -0.1341 -0.0710 -0.0812
   19SAPC   H3R 2454   4.668   2.930   9.991  4.7180  0.4914 -0.5683
   19SAPC   H3S 2455   4.743   3.085   9.975  1.8965 -0.6361  2.8877
   19SAPC   C24 2456   4.527   3.087   9.946  0.1211 -0.8280 -0.3324
   19SAPC   H4R 2457   4.546   3.087   9.836  0.4100  2.2951 -0.3167
   19SAPC   H4S 2458   4.503   3.194   9.963 -0.1619 -0.7059 -1.4337
   19SAPC   C25 2459   4.401   3.010   9.975 -0.7421  0.6382  0.7382
   19SAPC   H5R 2460   4.354   3.011  10.075 -2.0559 -2.1754  0.2103
   19SAPC   C26 2461   4.319   2.960   9.879  0.3527  1.0878 -0.5310
   19SAPC   H6R 2462   4.230   2.906   9.915  0.8462 -0.6073 -1.8197
   19SAPC   C27 2463   4.335   2.952   9.733  0.0983 -0.4547  0.3027
   19SAPC   H7R 2464   4.433   2.911   9.701  0.7200  2.0412 -1.1800
   19SAPC   H7S 2465   4.340   3.056   9.694 -2.5140  0.6118  2.6315
   19SAPC   C28 2466   4.231   2.862   9.666 -0.5602 -0.0453  0.4973
   19SAPC   H8R 2467   4.160   2.813   9.734  1.0204 -3.2363 -0.0387
   19SAPC   C29 2468   4.221   2.833   9.536 -0.9979  0.4401 -0.4164
   19SAPC   H9R 2469   4.134   2.776   9.500 -0.9143  1.1233 -1.7564
   19SAPC  C210 2470   4.319   2.883   9.427  0.1717 -0.1138  0.1738
   19SAPC  H10R 2471   4.424   2.857   9.456  0.2502 -1.0046 -0.8670
   19SAPC  H10S 2472   4.312   2.993   9.426  0.2828 -0.1008  0.7921
   19SAPC  C211 2473   4.302   2.827   9.287 -0.1464 -0.0462 -0.0632
   19SAPC  H11R 2474   4.257   2.727   9.281  1.6985 -0.9980  1.4478
   19SAPC  C212 2475   4.332   2.895   9.174  0.1152  0.4069  0.1315
   19SAPC  H12R 2476   4.315   2.850   9.075  0.0151  0.6849  0.0200
   19SAPC  C213 2477   4.387   3.036   9.172 -0.4601  0.0886 -0.1012
   19SAPC  H13R 2478   4.472   3.043   9.101 -0.6093  1.8528 -0.1116
   19SAPC  H13S 2479   4.432   3.064   9.269 -1.1815 -0.5262  0.4213
   19SAPC  C214 2480   4.282   3.139   9.140  0.8872  0.1047  0.2676
   19SAPC  H14R 2481   4.223   3.161   9.230 -0.0504 -0.6202 -0.1635
   19SAPC  C215 2482   4.257   3.200   9.021 -0.2937 -0.4278  0.7308
   19SAPC  H15R 2483   4.178   3.276   9.015  0.7870  0.7271  0.7821
   19SAPC  C216 2484   4.334   3.177   8.888  0.3621 -0.3979  0.2177
   19SAPC  H16R 2485   4.428   3.123   8.914  0.7671  0.6261  0.9477
   19SAPC  H16S 2486   4.377   3.274   8.855  0.8824 -1.3695 -1.9971
   19SAPC  C217 2487   4.261   3.120   8.765 -0.2461  0.1157  0.0305
   19SAPC  H17R 2488   4.206   3.028   8.794  1.1149 -1.0481 -0.9815
   19SAPC  H17S 2489   4.321   3.080   8.680 -0.4893 -1.3487  0.5435
   19SAPC  C218 2490   4.156   3.210   8.707  0.1764 -0.0040 -0.0624
   19SAPC  H18R 2491   4.066   3.218   8.770  1.1787 -1.2355  1.5515
   19SAPC  H18S 2492   4.117   3.149   8.623 -2.4070  1.1405  0.2538
   19SAPC  C219 2493   4.208   3.338   8.651  0.6585  0.0503 -0.1942
   19SAPC  H19R 2494   4.319   3.341   8.647  0.5893  1.2021 -1.2057
   19SAPC  H19S 2495   4.181   3.418   8.724  1.8420  1.1735 -0.9713
   19SAPC  C220 2496   4.143   3.380   8.519  0.3671  0.2706 -0.0522
   19SAPC  H20R 2497   4.164   3.484   8.485  0.5129  0.0966 -0.5017
   19SAPC  H20S 2498   4.036   3.349   8.523  0.7600 -1.2955 -1.2234
   19SAPC  H20T 2499   4.181   3.317   8.436  2.1572  2.0381 -0.6299
   19SAPC   C33 2500   4.871   2.879   9.784 -0.6063  0.4694  0.4025
   19SAPC   H3X 2501   4.850   2.984   9.814  0.9790  1.6224 -2.3131
   19SAPC   H3Y 2502   4.796   2.821   9.840  1.2507 -0.4024  2.0396
   19SAPC   C34 2503   4.839   2.859   9.633  0.8733 -0.1976 -0.0418
   19SAPC   H4X 2504   4.868   2.755   9.607  1.9457 -0.9879  4.0614
   19SAPC   H4Y 2505   4.911   2.932   9.590  1.2857 -0.5161  0.1126
   19SAPC   C35 2506   4.695   2.897   9.614 -0.2548  0.4183 -0.3271
   19SAPC   H5X 2507   4.651   2.933   9.710  0.9835 -0.8084  0.7258
   19SAPC   H5Y 2508   4.638   2.810   9.573 -0.5306  0.6202 -0.3703
   19SAPC   C36 2509   4.674   3.017   9.519  0.1981 -0.0439  0.6050
   19SAPC   H6X 2510   4.725   3.099   9.574  0.7349  0.3470 -0.4718
   19SAPC   H6Y 2511   4.566   3.039   9.502  0.3353 -2.6921 -4.5684
   19SAPC   C37 2512   4.731   2.990   9.381 -0.9196  0.1788  0.5469
   19SAPC   H7X 2513   4.666   2.926   9.317  1.3254 -2.4422  0.7881
   19SAPC   H7Y 2514   4.831   2.943   9.384 -0.8415  0.3392  0.4710
   19SAPC   C38 2515   4.754   3.122   9.305 -0.3696  0.0888 -0.2746
   19SAPC   H8X 2516   4.837   3.174   9.358  0.5336  0.3800 -1.9319
   19SAPC   H8Y 2517   4.666   3.188   9.312 -0.6938 -0.4307  0.5775
   19SAPC   C39 2518   4.786   3.091   9.161  0.4246 -0.1305  0.5974
   19SAPC   H9X 2519   4.705   3.027   9.119  0.3707  0.7682 -0.7021
   19SAPC   H9Y 2520   4.878   3.029   9.172  0.2312 -0.4564  0.3964
   19SAPC  C310 2521   4.811   3.212   9.074 -0.3888  0.2499  0.2189
   19SAPC  H10X 2522   4.918   3.240   9.078 -0.7587  1.6492  0.5646
   19SAPC  H10Y 2523   4.741   3.295   9.096 -0.0266  0.0892  2.0457
   19SAPC  C311 2524   4.791   3.179   8.922  0.1112  0.0986  0.0565
   19SAPC  H11X 2525   4.682   3.167   8.904  0.0721 -0.0311  0.3857
   19SAPC  H11Y 2526   4.856   3.097   8.884 -2.2868 -1.2054 -1.4148
   19SAPC  C312 2527   4.810   3.304   8.842 -0.1227  0.5810  0.4596
   19SAPC  H12X 2528   4.914   3.344   8.842  0.1318 -0.0394 -1.5344
   19SAPC  H12Y 2529   4.748   3.387   8.882 -0.4160  1.2123 -1.2501
   19SAPC  C313 2530   4.774   3.281   8.694  0.3175  0.2608 -0.3949
   19SAPC  H13X 2531   4.670   3.240   8.692 -0.1483  1.3401  1.3339
   19SAPC  H13Y 2532   4.845   3.214   8.641  2.5051  0.1247  2.6041
   19SAPC  C314 2533   4.781   3.419   8.620 -0.5419  0.2899 -0.0408
   19SAPC  H14X 2534   4.816   3.410   8.515 -0.6830  2.7810 -0.3298
   19SAPC  H14Y 2535   4.850   3.490   8.671  0.7995 -0.7756 -0.3644
   19SAPC  C315 2536   4.642   3.484   8.626  0.7038 -0.3242  0.1841
   19SAPC  H15X 2537   4.617   3.478   8.734 -0.0879 -0.6853 -0.0180
   19SAPC  H15Y 2538   4.564   3.431   8.568  2.0974 -1.0334 -1.0846
   19SAPC  C316 2539   4.645   3.632   8.589 -0.1340 -0.1989 -0.0556
   19SAPC  H16X 2540   4.733   3.689   8.628  0.7538  1.4270 -4.2069
   19SAPC  H16Y 2541   4.557   3.684   8.632  1.1313  0.5029  1.7457
   19SAPC  C317 2542   4.635   3.655   8.436 -0.4908 -0.0920 -0.1227
   19SAPC  H17X 2543   4.544   3.605   8.396 -0.4015 -0.2349 -0.1464
   19SAPC  H17Y 2544   4.718   3.595   8.394 -0.4112  0.0915 -0.2309
   19SAPC  C318 2545   4.653   3.799   8.402  0.4803 -0.6015 -0.2093
   19SAPC  H18X 2546   4.655   3.813   8.292  0.0678  1.6934  0.0479
   19SAPC  H18Y 2547   4.745   3.847   8.442  1.1127 -1.5350 -0.5298
   19SAPC  H18Z 2548   4.566   3.857   8.441  0.7556  0.0138 -0.5047
   20SAPC     N 2549   4.253   5.569  10.902  0.2889 -0.0019 -0.5441
   20SAPC   C12 2550   4.287   5.620  10.766  0.7073 -0.2879 -0.4378
   20SAPC  H12A 2551   4.220   5.703  10.746  0.2540 -0.6995 -0.6231
   20SAPC  H12B 2552   4.262   5.552  10.686 -0.7126 -3.0338  2.2338
   20SAPC   C13 2553   4.364   5.479  10.954  0.3160  0.2497 -0.5044
   20SAPC  H13A 2554   4.376   5.385  10.902 -3.2136 -0.9692  0.6932
   20SAPC  H13B 2555   4.461   5.527  10.953  0.3871  0.0986 -1.9666
   20SAPC  H13C 2556   4.349   5.444  11.055 -1.0823 -1.1850 -1.1935
   20SAPC   C14 2557   4.242   5.685  10.994 -0.1802  0.3328  0.8075
   20SAPC  H14A 2558   4.227   5.650  11.095 -2.7900  0.4955  0.5070
   20SAPC  H14B 2559   4.336   5.738  10.993 -0.6326  1.1360 -1.1958
   20SAPC  H14C 2560   4.178   5.762  10.953  0.0924  0.4729  0.6475
   20SAPC   C15 2561   4.124   5.502  10.913 -0.5895 -0.1158 -0.1165
   20SAPC  H15A 2562   4.114   5.431  10.833 -0.2736  2.8027 -2.8251
   20SAPC  H15B 2563   4.107   5.443  11.002  0.2988  0.1498  0.2371
   20SAPC  H15C 2564   4.053   5.582  10.899 -0.4165 -0.2803 -1.9902
   20SAPC   C11 2565   4.433   5.662  10.735  0.8741 -0.8758  0.4775
   20SAPC  H11A 2566   4.452   5.689  10.629  2.7016  1.0441  1.2696
   20SAPC  H11B 2567   4.497   5.573  10.752  0.4389 -1.5254 -1.2270
   20SAPC     P 2568   4.621   5.777  10.888  0.0378 -0.2757  0.1761
   20SAPC   O13 2569   4.598   5.888  10.984  0.0723 -0.1916  0.3130
   20SAPC   O14 2570   4.646   5.644  10.940 -0.3189  0.3314 -0.0319
   20SAPC   O12 2571   4.484   5.770  10.806  0.6586 -0.0598 -0.1831
   20SAPC   O11 2572   4.731   5.823  10.791 -0.3669  0.1297 -0.0477
   20SAPC    C1 2573   4.704   5.915  10.687 -0.2669  0.6269  0.0665
   20SAPC    HA 2574   4.598   5.912  10.656 -0.5770  3.2722  0.7251
   20SAPC    HB 2575   4.717   6.019  10.725  3.0342 -0.0524  1.0243
   20SAPC    C2 2576   4.787   5.887  10.566  0.5922  0.3365  0.5255
   20SAPC    HS 2577   4.894   5.878  10.593  1.2813  2.5126 -1.3208
   20SAPC   O21 2578   4.764   5.986  10.468 -0.1080  0.2511 -0.2776
   20SAPC   C21 2579   4.850   6.087  10.471 -0.2892  0.2429 -0.2682
   20SAPC   O22 2580   4.950   6.092  10.542  0.4748  0.5698 -0.4984
   20SAPC   C22 2581   4.813   6.200  10.375 -0.0962  0.5583 -0.3241
   20SAPC   H2R 2582   4.837   6.160  10.274  0.9296 -0.1276  0.1842
   20SAPC   H2S 2583   4.703   6.208  10.363 -0.3047  0.1793  1.2239
   20SAPC    C3 2584   4.739   5.746  10.500  0.9158 -0.1268 -0.3684
   20SAPC    HX 2585   4.640   5.769  10.455  0.3773 -2.0781 -0.2129
   20SAPC    HY 2586   4.724   5.668  10.576  1.6522  0.1145  0.0349
   20SAPC   O31 2587   4.821   5.696  10.399 -1.0371  0.2868 -0.5698
   20SAPC   C31 2588   4.940   5.655  10.435 -0.2980 -0.0120 -0.2712
   20SAPC   O32 2589   4.978   5.646  10.552  0.2392  0.5874  0.6822
   20SAPC   C32 2590   5.018   5.620  10.315 -0.0057  0.2440  0.1276
   20SAPC   H2X 2591   4.977   5.524  10.280  1.2674 -0.2553 -0.0295
   20SAPC   H2Y 2592   5.118   5.587  10.352  0.2590  0.5821 -0.2850
   20SAPC   C23 2593   4.878   6.340  10.416 -0.2079 -0.3063 -0.2932
   20SAPC   H3R 2594   4.987   6.317  10.419 -0.3294 -0.7186  1.3468
   20SAPC   H3S 2595   4.844   6.370  10.517  0.3116 -0.8323  0.0388
   20SAPC   C24 2596   4.858   6.454  10.311  0.1440 -0.2237 -0.1652
   20SAPC   H4R 2597   4.930   6.427  10.232  0.9138  2.9611 -0.6018
   20SAPC   H4S 2598   4.893   6.552  10.350  2.9372 -1.5712  0.8458
   20SAPC   C25 2599   4.720   6.468  10.257 -0.1048  0.1334 -0.0440
   20SAPC   H5R 2600   4.653   6.519  10.329 -0.6298  0.2107 -0.5894
   20SAPC   C26 2601   4.662   6.417  10.149  0.0716  0.2775 -0.3354
   20SAPC   H6R 2602   4.558   6.449  10.131  0.1721  1.0489  0.4545
   20SAPC   C27 2603   4.728   6.316  10.056  0.6611  1.2669 -0.6441
   20SAPC   H7R 2604   4.733   6.221  10.114  0.0865  1.4186 -0.3383
   20SAPC   H7S 2605   4.832   6.348  10.034  1.3983 -1.1895 -0.8841
   20SAPC   C28 2606   4.658   6.293   9.923 -0.3864  1.0742 -0.6246
   20SAPC   H8R 2607   4.596   6.202   9.914  2.2125 -0.5998 -2.2460
   20SAPC   C29 2608   4.670   6.377   9.817  0.1498 -0.2136  0.2071
   20SAPC   H9R 2609   4.619   6.353   9.723 -2.2007  0.7798  1.1898
   20SAPC  C210 2610   4.751   6.504   9.806  0.3800 -0.2826 -0.1684
   20SAPC  H10R 2611   4.854   6.472   9.781  0.4341 -0.4222  0.2262
   20SAPC  H10S 2612   4.765   6.554   9.904  0.5075 -1.6165  0.5116
   20SAPC  C211 2613   4.694   6.597   9.699  0.6023  0.5395 -0.2397
   20SAPC  H11R 2614   4.644   6.542   9.617  0.4162 -0.9675  0.8647
   20SAPC  C212 2615   4.694   6.731   9.704  0.2833 -0.0874  0.1546
   20SAPC  H12R 2616   4.633   6.784   9.630 -1.9322 -2.9463 -0.1321
   20SAPC  C213 2617   4.754   6.813   9.816  0.3684  0.0268  0.4735
   20SAPC  H13R 2618   4.864   6.810   9.801  0.2452 -0.8728 -0.2876
   20SAPC  H13S 2619   4.738   6.766   9.915 -0.1258  0.4566  0.5983
   20SAPC  C214 2620   4.704   6.955   9.812  0.2349 -0.2331 -0.0680
   20SAPC  H14R 2621   4.621   6.976   9.881  0.4850  2.3170 -0.4652
   20SAPC  C215 2622   4.746   7.062   9.738 -0.2121  0.4394  0.1932
   20SAPC  H15R 2623   4.687   7.154   9.745  0.1822  0.6165  1.4350
   20SAPC  C216 2624   4.858   7.057   9.634  0.6046  0.3666 -1.0334
   20SAPC  H16R 2625   4.887   6.952   9.613  0.2091  0.2412 -0.9426
   20SAPC  H16S 2626   4.946   7.120   9.663  0.0156  0.3735  0.8009
   20SAPC  C217 2627   4.805   7.116   9.500 -0.4822 -0.4583 -0.5012
   20SAPC  H17R 2628   4.767   7.216   9.531  0.7660  0.4841 -1.9292
   20SAPC  H17S 2629   4.721   7.059   9.455  0.1092 -1.1700 -0.7261
   20SAPC  C218 2630   4.916   7.124   9.395  0.5361  0.1983 -0.2853
   20SAPC  H18R 2631   4.974   7.030   9.393  1.6080  0.8618 -0.8903
   20SAPC  H18S 2632   4.984   7.209   9.419 -1.1668  1.3094  0.7249
   20SAPC  C219 2633   4.864   7.139   9.247  0.1079 -0.1773 -0.6084
   20SAPC  H19R 2634   4.790   7.058   9.228  0.6105 -0.6017 -0.7542
   20SAPC  H19S 2635   4.949   7.121   9.178 -0.0647  0.4388 -0.9877
   20SAPC  C220 2636   4.801   7.273   9.219  0.3564 -0.1569 -0.6113
   20SAPC  H20R 2637   4.881   7.351   9.218  1.1664 -0.9615 -0.2345
   20SAPC  H20S 2638   4.721   7.289   9.294 -0.4226 -5.1411 -0.2162
   20SAPC  H20T 2639   4.752   7.276   9.120  0.1620 -0.0621 -0.5136
   20SAPC   C33 2640   5.017   5.717  10.201  0.5475 -0.4350 -0.7074
   20SAPC   H3X 2641   5.107   5.698  10.138  1.7109  1.5710  0.2981
   20SAPC   H3Y 2642   5.026   5.821  10.238  0.7924 -1.0450  1.0081
   20SAPC   C34 2643   4.889   5.706  10.109  0.0343 -0.2522 -0.8802
   20SAPC   H4X 2644   4.809   5.739  10.178  0.0452  0.9145 -1.4160
   20SAPC   H4Y 2645   4.868   5.599  10.089 -0.0676 -0.2520 -0.7740
   20SAPC   C35 2646   4.883   5.800   9.990  0.5359  0.2041 -0.0401
   20SAPC   H5X 2647   4.978   5.807   9.933 -0.0587  1.2635 -0.9406
   20SAPC   H5Y 2648   4.877   5.904  10.028  2.7305  1.0100 -1.7847
   20SAPC   C36 2649   4.777   5.766   9.885  0.7226  0.6943 -0.1887
   20SAPC   H6X 2650   4.681   5.804   9.929 -2.3082 -3.4018 -2.8891
   20SAPC   H6Y 2651   4.763   5.659   9.859  3.1367  0.2057  0.4814
   20SAPC   C37 2652   4.786   5.851   9.760 -0.4870  0.1715  0.2334
   20SAPC   H7X 2653   4.890   5.841   9.721 -1.5492 -0.7323 -2.4582
   20SAPC   H7Y 2654   4.757   5.955   9.785  0.7695  0.6471 -0.2385
   20SAPC   C38 2655   4.685   5.806   9.656 -0.3134 -0.2884  0.2159
   20SAPC   H8X 2656   4.582   5.827   9.694 -0.0237  2.1949 -0.3118
   20SAPC   H8Y 2657   4.697   5.697   9.637  0.9133 -0.2584  0.7798
   20SAPC   C39 2658   4.680   5.873   9.516  0.2934 -0.1564  0.1110
   20SAPC   H9X 2659   4.672   5.982   9.535 -1.3402 -0.3028  0.3499
   20SAPC   H9Y 2660   4.589   5.828   9.470 -1.1050  4.1455 -1.5215
   20SAPC  C310 2661   4.801   5.826   9.433 -0.4697 -0.7734 -0.5545
   20SAPC  H10X 2662   4.811   5.717   9.448 -1.4231 -0.8623 -0.5671
   20SAPC  H10Y 2663   4.898   5.873   9.463  1.1047 -1.3542 -4.4511
   20SAPC  C311 2664   4.770   5.840   9.282  0.6996  0.4422  0.2327
   20SAPC  H11X 2665   4.723   5.936   9.253  1.7161  1.1599  0.9171
   20SAPC  H11Y 2666   4.695   5.766   9.246 -0.5352  1.6663  0.2928
   20SAPC  C312 2667   4.889   5.810   9.192 -0.2280  0.6009  0.0443
   20SAPC  H12X 2668   4.935   5.710   9.205  0.5792  1.1122  1.1938
   20SAPC  H12Y 2669   4.970   5.879   9.223 -2.2897  1.9309  2.8058
   20SAPC  C313 2670   4.857   5.839   9.045  0.6171 -0.8482  0.8451
   20SAPC  H13X 2671   4.837   5.947   9.034 -3.7348 -1.7402 -1.1470
   20SAPC  H13Y 2672   4.761   5.784   9.036 -0.4698  1.0983  0.3429
   20SAPC  C314 2673   4.972   5.793   8.955  0.9870 -0.3408  0.2874
   20SAPC  H14X 2674   4.958   5.684   8.937 -4.7740  0.4289 -0.6179
   20SAPC  H14Y 2675   5.070   5.809   9.006  0.5178  0.0663  1.0719
   20SAPC  C315 2676   4.983   5.874   8.821 -0.0322 -0.3632  0.2617
   20SAPC  H15X 2677   4.981   5.983   8.843  1.4220 -0.2912  0.1150
   20SAPC  H15Y 2678   4.899   5.844   8.756 -0.6890  1.4168  0.2539
   20SAPC  C316 2679   5.110   5.839   8.737 -0.9684  0.1213  0.5484
   20SAPC  H16X 2680   5.125   5.730   8.721  1.7997  0.1652  2.4826
   20SAPC  H16Y 2681   5.195   5.886   8.791  0.8972 -0.9440 -1.3807
   20SAPC  C317 2682   5.114   5.901   8.596  0.0647 -0.3064  0.4789
   20SAPC  H17X 2683   5.084   6.008   8.606  0.3321 -0.1720 -0.1440
   20SAPC  H17Y 2684   5.025   5.866   8.540  0.1488 -0.1289  0.2342
   20SAPC  C318 2685   5.244   5.881   8.515  0.0809  0.6435  0.6134
   20SAPC  H18X 2686   5.333   5.910   8.576 -1.3279 -0.7527  3.4070
   20SAPC  H18Y 2687   5.249   5.931   8.416  0.5813 -0.2131  0.1921
   20SAPC  H18Z 2688   5.268   5.772   8.509 -0.6950  0.4573  0.8107
   21SAPC     N 2689   4.292   4.940  10.723  0.5169 -0.1515 -0.5792
   21SAPC   C12 2690   4.270   5.090  10.746 -0.4867  0.1937 -0.3909
   21SAPC  H12A 2691   4.238   5.108  10.847  0.0454 -2.0838  0.2028
   21SAPC  H12B 2692   4.194   5.143  10.690 -0.2639 -2.3588 -3.2057
   21SAPC   C13 2693   4.383   4.880  10.831  0.8936 -0.4060 -0.2609
   21SAPC  H13A 2694   4.489   4.899  10.824  0.9854 -0.5503  0.7023
   21SAPC  H13B 2695   4.350   4.899  10.932 -0.4095 -2.2482 -0.3137
   21SAPC  H13C 2696   4.375   4.773  10.832 -0.3086 -0.3096  1.0340
   21SAPC   C14 2697   4.163   4.857  10.727  1.4719  0.5648 -0.1021
   21SAPC  H14A 2698   4.175   4.751  10.715  1.5502  0.6062 -0.3949
   21SAPC  H14B 2699   4.114   4.868  10.822  0.6040  0.1479 -0.5045
   21SAPC  H14C 2700   4.090   4.896  10.658  0.5107  0.3144  0.7597
   21SAPC   C15 2701   4.368   4.922  10.594  0.1768  0.1649  0.3689
   21SAPC  H15A 2702   4.465   4.968  10.610 -0.9898  3.3013 -1.0644
   21SAPC  H15B 2703   4.378   4.815  10.584  2.0304  0.3657 -0.0608
   21SAPC  H15C 2704   4.313   4.967  10.512 -1.5615 -3.8651 -0.7652
   21SAPC   C11 2705   4.393   5.181  10.735  0.7857 -0.4518 -0.3987
   21SAPC  H11A 2706   4.362   5.287  10.742 -1.2868 -1.0033 -0.8934
   21SAPC  H11B 2707   4.446   5.157  10.640  1.4457 -0.2798 -0.0809
   21SAPC     P 2708   4.639   5.118  10.821 -0.0143 -0.2239 -0.0270
   21SAPC   O13 2709   4.681   5.062  10.950 -0.0680  0.5942  1.0788
   21SAPC   O14 2710   4.649   5.029  10.706  0.3034 -0.2848 -0.4767
   21SAPC   O12 2711   4.487   5.167  10.849  0.1330  0.0667 -0.1024
   21SAPC   O11 2712   4.710   5.245  10.784 -0.0130  0.5023  0.2153
   21SAPC    C1 2713   4.674   5.337  10.685 -0.0807 -0.7146  0.5685
   21SAPC    HA 2714   4.564   5.346  10.675 -0.0474  0.4983  1.1676
   21SAPC    HB 2715   4.706   5.435  10.725 -0.3518 -0.1413 -0.6063
   21SAPC    C2 2716   4.751   5.321  10.552 -0.5025  0.3303  0.3679
   21SAPC    HS 2717   4.770   5.418  10.501 -2.1180  1.0485  1.0766
   21SAPC   O21 2718   4.674   5.237  10.466  0.5190  0.3571 -0.0415
   21SAPC   C21 2719   4.570   5.294  10.403  0.2264 -1.0599  0.3544
   21SAPC   O22 2720   4.529   5.407  10.424  0.1921 -0.6160 -0.3473
   21SAPC   C22 2721   4.515   5.191  10.304  0.7990  0.4732 -0.6430
   21SAPC   H2R 2722   4.477   5.095  10.345  0.3046 -0.4408 -3.1574
   21SAPC   H2S 2723   4.428   5.235  10.251  1.2628  1.8780 -0.2575
   21SAPC    C3 2724   4.890   5.255  10.567  1.5359  0.2151 -0.2310
   21SAPC    HX 2725   4.877   5.159  10.620  0.3523  1.2721  1.4268
   21SAPC    HY 2726   4.948   5.320  10.637  0.3739 -0.7478  1.6354
   21SAPC   O31 2727   4.967   5.265  10.444  0.5552 -0.2757 -0.2659
   21SAPC   C31 2728   4.970   5.150  10.374 -0.1722 -0.2031 -0.3278
   21SAPC   O32 2729   4.895   5.052  10.386  0.3873  0.2967 -0.3365
   21SAPC   C32 2730   5.098   5.157  10.289 -0.2849 -0.4941  0.0116
   21SAPC   H2X 2731   5.159   5.068  10.315 -0.9429 -1.3873 -1.4441
   21SAPC   H2Y 2732   5.161   5.239  10.329  0.2273 -0.2292 -1.3091
   21SAPC   C23 2733   4.614   5.143  10.195  0.3955  0.7539 -0.1328
   21SAPC   H3R 2734   4.549   5.081  10.130 -1.4825 -1.1040  3.3744
   21SAPC   H3S 2735   4.698   5.082  10.235  0.3245 -0.1286 -1.3114
   21SAPC   C24 2736   4.656   5.262  10.110  0.3973 -0.6266  0.1026
   21SAPC   H4R 2737   4.700   5.345  10.170 -0.9183 -0.8382  1.4029
   21SAPC   H4S 2738   4.561   5.304  10.070 -0.3966 -1.1995  1.3378
   21SAPC   C25 2739   4.761   5.225  10.010  0.0317  0.3251  0.2204
   21SAPC   H5R 2740   4.805   5.127  10.031 -2.5890 -1.1895 -1.1332
   21SAPC   C26 2741   4.777   5.276   9.887 -0.1814 -0.2538 -0.8426
   21SAPC   H6R 2742   4.840   5.231   9.809  0.4907 -0.8021  0.0119
   21SAPC   C27 2743   4.696   5.391   9.837  0.4909  0.0219 -0.4969
   21SAPC   H7R 2744   4.757   5.461   9.777 -0.9168  2.1857  0.5445
   21SAPC   H7S 2745   4.658   5.453   9.921 -0.4885 -1.5142  0.2186
   21SAPC   C28 2746   4.586   5.329   9.757 -0.5444 -0.0423 -0.8035
   21SAPC   H8R 2747   4.512   5.294   9.830 -0.0616 -1.7782 -1.1109
   21SAPC   C29 2748   4.558   5.312   9.630 -0.1200 -0.5178 -0.2181
   21SAPC   H9R 2749   4.464   5.261   9.604 -2.1511  2.6128  0.6978
   21SAPC  C210 2750   4.644   5.363   9.519 -0.5867 -0.3345  0.0956
   21SAPC  H10R 2751   4.703   5.281   9.473  0.5858  0.5065  0.0913
   21SAPC  H10S 2752   4.717   5.440   9.553 -2.0499  0.0236  2.5408
   21SAPC  C211 2753   4.547   5.412   9.419  0.3979 -0.5096  0.4615
   21SAPC  H11R 2754   4.439   5.406   9.436 -0.5195  4.7899 -2.2736
   21SAPC  C212 2755   4.584   5.447   9.291 -0.2314 -0.2221  0.4419
   21SAPC  H12R 2756   4.509   5.482   9.218  1.1246  0.7502 -0.5057
   21SAPC  C213 2757   4.728   5.454   9.243  0.2035 -0.0531 -0.0856
   21SAPC  H13R 2758   4.786   5.481   9.334  3.1179 -0.9227 -1.6214
   21SAPC  H13S 2759   4.740   5.549   9.188  0.6946  0.8581  1.5894
   21SAPC  C214 2760   4.785   5.326   9.183 -0.8411 -0.1999 -0.0164
   21SAPC  H14R 2761   4.823   5.251   9.253  0.8787  2.0629  1.5738
   21SAPC  C215 2762   4.807   5.302   9.053 -0.1340  0.0668 -0.0368
   21SAPC  H15R 2763   4.864   5.216   9.016  0.7628  1.3582 -1.7089
   21SAPC  C216 2764   4.786   5.383   8.926  0.9006  0.8958  0.9592
   21SAPC  H16R 2765   4.883   5.429   8.896  1.8494 -0.4641  1.8543
   21SAPC  H16S 2766   4.720   5.465   8.961 -0.2313 -0.0685  1.1073
   21SAPC  C217 2767   4.702   5.329   8.802  0.2124  0.3404  0.7369
   21SAPC  H17R 2768   4.603   5.292   8.836  0.4446 -1.0239 -0.0012
   21SAPC  H17S 2769   4.748   5.239   8.755  0.6252  1.1445 -0.4179
   21SAPC  C218 2770   4.676   5.440   8.693  0.4512 -0.4168  0.3832
   21SAPC  H18R 2771   4.587   5.499   8.723  2.1421  1.0969  2.5665
   21SAPC  H18S 2772   4.650   5.383   8.600  0.5233 -1.2207  0.8498
   21SAPC  C219 2773   4.786   5.546   8.664  0.5543  0.1843 -0.5445
   21SAPC  H19R 2774   4.883   5.496   8.643  0.7254  0.0488  0.5310
   21SAPC  H19S 2775   4.794   5.610   8.755 -1.1523 -0.4271  0.0584
   21SAPC  C220 2776   4.745   5.645   8.550  0.4340 -0.1506 -0.3882
   21SAPC  H20R 2777   4.736   5.600   8.449  0.7710  1.8129 -1.3202
   21SAPC  H20S 2778   4.811   5.734   8.560  1.0060 -0.5480 -0.6379
   21SAPC  H20T 2779   4.643   5.686   8.569  0.3187  0.3958 -2.1615
   21SAPC   C33 2780   5.074   5.172  10.135  0.2595  0.2930 -1.1015
   21SAPC   H3X 2781   5.020   5.268  10.125  0.2407  0.5042  0.8954
   21SAPC   H3Y 2782   5.017   5.090  10.087  2.5625 -0.9076 -1.8918
   21SAPC   C34 2783   5.212   5.180  10.060 -0.6197  0.7308  0.0356
   21SAPC   H4X 2784   5.265   5.084  10.079  1.6413  1.7946 -0.7054
   21SAPC   H4Y 2785   5.275   5.260  10.104 -1.0993  0.7169  0.7588
   21SAPC   C35 2786   5.202   5.198   9.910  0.2062 -0.4360  0.6323
   21SAPC   H5X 2787   5.140   5.114   9.871  0.8187 -1.3602  1.6266
   21SAPC   H5Y 2788   5.305   5.176   9.874  0.1719 -3.8852  2.4486
   21SAPC   C36 2789   5.140   5.326   9.856 -0.2378 -0.1887  0.8993
   21SAPC   H6X 2790   5.206   5.412   9.877  0.5246 -0.8212  1.1220
   21SAPC   H6Y 2791   5.046   5.342   9.913  1.2852 -1.5119  3.8924
   21SAPC   C37 2792   5.106   5.323   9.706  0.6828 -0.8248  0.0133
   21SAPC   H7X 2793   5.024   5.256   9.671 -1.0028  1.5321 -0.6759
   21SAPC   H7Y 2794   5.197   5.295   9.649  0.5216 -0.1742 -0.5659
   21SAPC   C38 2795   5.080   5.463   9.661  0.2197  0.6638  0.3035
   21SAPC   H8X 2796   5.168   5.530   9.676  0.2036  1.1736 -1.7898
   21SAPC   H8Y 2797   4.997   5.503   9.723 -0.9297 -2.4459  0.8681
   21SAPC   C39 2798   5.041   5.478   9.514  0.5156 -0.0303  0.8792
   21SAPC   H9X 2799   5.002   5.576   9.480 -0.8466 -1.2697 -1.2222
   21SAPC   H9Y 2800   4.956   5.413   9.486  0.6791 -1.5436  3.6497
   21SAPC  C310 2801   5.161   5.460   9.423 -0.1696  0.8609 -0.4829
   21SAPC  H10X 2802   5.192   5.353   9.425 -1.2491  0.5266 -1.0583
   21SAPC  H10Y 2803   5.249   5.522   9.451  1.1633  0.0968 -2.7937
   21SAPC  C311 2804   5.132   5.477   9.274  0.5453 -0.1258  0.3467
   21SAPC  H11X 2805   5.072   5.570   9.260  1.0814  0.1159 -0.4059
   21SAPC  H11Y 2806   5.075   5.388   9.239 -0.0380  0.8095 -1.1731
   21SAPC  C312 2807   5.258   5.490   9.194  0.8556  0.9984  0.5766
   21SAPC  H12X 2808   5.291   5.383   9.190  0.8610  0.9829  1.0327
   21SAPC  H12Y 2809   5.332   5.559   9.238  0.8795  2.0708 -1.0916
   21SAPC  C313 2810   5.219   5.527   9.055 -0.6705 -0.1771 -0.1479
   21SAPC  H13X 2811   5.179   5.631   9.054 -0.5087 -0.1177 -1.0249
   21SAPC  H13Y 2812   5.132   5.470   9.016 -1.1239  0.1547  0.3664
   21SAPC  C314 2813   5.338   5.495   8.965  0.5270 -0.3867 -0.0812
   21SAPC  H14X 2814   5.373   5.391   8.980  1.7514  0.0547  0.2301
   21SAPC  H14Y 2815   5.431   5.547   8.998 -0.1054  0.1116  0.9500
   21SAPC  C315 2816   5.318   5.538   8.814  0.3620 -0.4146  0.0294
   21SAPC  H15X 2817   5.410   5.508   8.760  1.6827  0.2029  1.8578
   21SAPC  H15Y 2818   5.308   5.649   8.820  0.2090 -0.5439  3.0538
   21SAPC  C316 2819   5.200   5.477   8.735  0.2409  0.0004 -0.2072
   21SAPC  H16X 2820   5.217   5.510   8.630 -3.0002  1.0918 -0.4598
   21SAPC  H16Y 2821   5.109   5.531   8.769 -0.0622 -0.5714 -0.1145
   21SAPC  C317 2822   5.172   5.325   8.731 -0.2353  0.3239 -0.6275
   21SAPC  H17X 2823   5.083   5.306   8.666 -3.1233  0.2934  3.1393
   21SAPC  H17Y 2824   5.151   5.295   8.835 -0.4367  2.6503  0.0241
   21SAPC  C318 2825   5.298   5.257   8.673 -0.0609  0.8318 -0.3552
   21SAPC  H18X 2826   5.371   5.229   8.751 -2.3803 -1.9695  0.9222
   21SAPC  H18Y 2827   5.345   5.316   8.592  1.5887  0.0994  0.0398
   21SAPC  H18Z 2828   5.270   5.161   8.624 -0.8454  1.2326 -0.6925
   22SAPC     N 2829   3.617   2.696  10.751  0.1912 -0.4059  0.1152
   22SAPC   C12 2830   3.730   2.761  10.835  0.2313 -0.4650 -0.0650
   22SAPC  H12A 2831   3.827   2.723  10.809  1.1690  0.9340  1.2899
   22SAPC  H12B 2832   3.718   2.727  10.937 -0.5679 -0.7877 -0.2654
   22SAPC   C13 2833   3.622   2.544  10.742  0.3135 -0.0620 -0.5061
   22SAPC  H13A 2834   3.596   2.498  10.836 -0.3187  1.7731  0.2384
   22SAPC  H13B 2835   3.568   2.521  10.651 -0.3494  0.2630 -0.1987
   22SAPC  H13C 2836   3.718   2.508  10.708 -1.2417 -2.9856 -1.9122
   22SAPC   C14 2837   3.483   2.712  10.807 -0.4471 -0.3569 -1.0752
   22SAPC  H14A 2838   3.400   2.653  10.772 -0.1623 -1.2043 -0.3134
   22SAPC  H14B 2839   3.497   2.698  10.913 -2.6030 -0.0695 -0.7348
   22SAPC  H14C 2840   3.461   2.818  10.803  0.5291 -0.0331  1.1571
   22SAPC   C15 2841   3.628   2.742  10.606 -0.5135  0.3309 -0.6175
   22SAPC  H15A 2842   3.583   2.840  10.610  0.3351  0.6722  1.0070
   22SAPC  H15B 2843   3.731   2.739  10.573 -0.2965  1.1885 -0.0249
   22SAPC  H15C 2844   3.572   2.680  10.538  1.4820  0.0675 -2.0599
   22SAPC   C11 2845   3.742   2.919  10.840  0.3778  0.1929 -1.0164
   22SAPC  H11A 2846   3.760   2.955  10.737  2.4871 -0.1212 -0.7729
   22SAPC  H11B 2847   3.830   2.957  10.896 -1.0131  2.9939 -0.6263
   22SAPC     P 2848   3.527   3.071  10.807  0.1107 -0.6111 -0.4035
   22SAPC   O13 2849   3.388   3.034  10.841 -0.4685 -0.0842 -0.3000
   22SAPC   O14 2850   3.565   3.212  10.820 -0.1782 -0.0582  0.8963
   22SAPC   O12 2851   3.617   2.971  10.888 -0.0992 -0.1428  0.2766
   22SAPC   O11 2852   3.554   3.026  10.660  1.1001  0.1686  0.6756
   22SAPC    C1 2853   3.444   3.048  10.562 -0.2775  0.0085 -0.5435
   22SAPC    HA 2854   3.389   2.951  10.572 -1.4453  0.8205  1.2552
   22SAPC    HB 2855   3.373   3.131  10.586 -1.5892 -1.4307  0.7370
   22SAPC    C2 2856   3.497   3.079  10.418  0.0702  0.0495 -0.2368
   22SAPC    HS 2857   3.419   3.125  10.354 -0.7393  0.5350  1.0815
   22SAPC   O21 2858   3.548   2.955  10.369 -0.0944  0.4353 -0.0247
   22SAPC   C21 2859   3.538   2.928  10.239  0.2173 -0.4433 -0.0447
   22SAPC   O22 2860   3.465   2.991  10.160 -0.1353 -0.3788  0.1473
   22SAPC   C22 2861   3.609   2.804  10.204 -0.3615  0.4475  0.4036
   22SAPC   H2R 2862   3.712   2.826  10.168 -0.7314 -0.6446 -1.3762
   22SAPC   H2S 2863   3.615   2.741  10.295  1.2482 -2.2867 -1.5147
   22SAPC    C3 2864   3.617   3.185  10.428  0.4020  0.2554  0.4598
   22SAPC    HX 2865   3.690   3.143  10.500  0.0935 -1.7092 -0.3290
   22SAPC    HY 2866   3.572   3.276  10.472  1.3256  0.6601  0.5868
   22SAPC   O31 2867   3.666   3.228  10.293 -0.5199  0.3243  0.4899
   22SAPC   C31 2868   3.783   3.178  10.260  0.5291 -0.6891  0.2748
   22SAPC   O32 2869   3.841   3.089  10.316  0.4785  0.6050  0.2595
   22SAPC   C32 2870   3.847   3.256  10.149 -0.4719  0.1324 -0.2460
   22SAPC   H2X 2871   3.944   3.208  10.122 -0.8036  0.4514 -2.0784
   22SAPC   H2Y 2872   3.868   3.357  10.188  1.3016  0.7165 -2.5994
   22SAPC   C23 2873   3.534   2.727  10.092 -0.6746  0.1520 -0.7438
   22SAPC   H3R 2874   3.501   2.804  10.019  1.9320 -0.2800 -2.4585
   22SAPC   H3S 2875   3.443   2.684  10.138 -1.7425  0.8573 -2.1765
   22SAPC   C24 2876   3.616   2.615  10.020  0.1806 -0.2281 -0.0881
   22SAPC   H4R 2877   3.713   2.663   9.995 -0.6878  0.0271 -3.1607
   22SAPC   H4S 2878   3.569   2.602   9.920  0.4086 -1.9401  0.0068
   22SAPC   C25 2879   3.639   2.486  10.102  0.0235 -0.0640 -0.3051
   22SAPC   H5R 2880   3.725   2.495  10.171 -0.9114  2.6379  0.5657
   22SAPC   C26 2881   3.562   2.379  10.085 -0.4084  0.0600 -0.8299
   22SAPC   H6R 2882   3.578   2.284  10.138 -1.5154 -0.0542 -0.6792
   22SAPC   C27 2883   3.441   2.372   9.995 -0.0418  0.8728 -0.6621
   22SAPC   H7R 2884   3.388   2.469   9.980 -0.8479  0.6309  0.5078
   22SAPC   H7S 2885   3.364   2.309  10.044  0.2188 -0.4083 -1.8686
   22SAPC   C28 2886   3.468   2.305   9.865  0.7618  0.1581  0.8747
   22SAPC   H8R 2887   3.470   2.374   9.779 -1.7001  1.8760  2.1485
   22SAPC   C29 2888   3.487   2.177   9.846  0.6462  0.1263 -0.1564
   22SAPC   H9R 2889   3.518   2.145   9.745  1.7365  2.3562 -0.5674
   22SAPC  C210 2890   3.487   2.065   9.953  0.1116 -0.0277  0.3535
   22SAPC  H10R 2891   3.504   2.102  10.056 -0.1280 -2.3966  1.2692
   22SAPC  H10S 2892   3.571   1.998   9.926  0.0969  0.7922 -1.9009
   22SAPC  C211 2893   3.355   1.992   9.951  0.3070  0.4690 -0.6477
   22SAPC  H11R 2894   3.279   2.033  10.020  0.6703  0.4679 -0.2449
   22SAPC  C212 2895   3.327   1.881   9.874 -0.3971  0.2783  0.4142
   22SAPC  H12R 2896   3.227   1.836   9.869 -0.3058  0.1021  0.1787
   22SAPC  C213 2897   3.424   1.809   9.781  0.2079  0.7076  0.0869
   22SAPC  H13R 2898   3.375   1.711   9.769  0.7335  0.3018  1.1299
   22SAPC  H13S 2899   3.522   1.791   9.830 -0.9319 -0.8838  1.8246
   22SAPC  C214 2900   3.450   1.880   9.650 -0.2754 -0.4138  0.3267
   22SAPC  H14R 2901   3.433   1.988   9.655 -1.3288 -0.4490 -1.7447
   22SAPC  C215 2902   3.484   1.819   9.536  0.6705 -0.5757 -0.1025
   22SAPC  H15R 2903   3.484   1.879   9.443  0.1241 -2.9363 -1.6565
   22SAPC  C216 2904   3.512   1.673   9.513  0.6804 -0.1292 -0.5380
   22SAPC  H16R 2905   3.451   1.608   9.579  0.1482  1.2299  0.3105
   22SAPC  H16S 2906   3.619   1.644   9.524  0.9180  0.8533 -0.1703
   22SAPC  C217 2907   3.472   1.622   9.376  0.3846 -0.3208 -0.1048
   22SAPC  H17R 2908   3.369   1.649   9.344  0.4505 -0.7032 -0.6423
   22SAPC  H17S 2909   3.481   1.511   9.368 -0.2811 -0.1525 -3.8920
   22SAPC  C218 2910   3.563   1.664   9.257  0.4827 -0.0027  1.2537
   22SAPC  H18R 2911   3.664   1.622   9.273  2.1355  2.7588 -1.3311
   22SAPC  H18S 2912   3.574   1.774   9.244  0.5372 -0.1958 -0.4086
   22SAPC  C219 2913   3.513   1.599   9.121  0.0840  0.0326 -0.6897
   22SAPC  H19R 2914   3.405   1.626   9.115 -0.3701 -2.1691 -3.1248
   22SAPC  H19S 2915   3.500   1.490   9.136 -2.1176  0.5290  1.3577
   22SAPC  C220 2916   3.596   1.643   9.003 -1.4848 -0.2471 -0.5702
   22SAPC  H20R 2917   3.700   1.615   9.032 -0.9329  0.1266 -2.1894
   22SAPC  H20S 2918   3.597   1.753   8.990  2.5350 -0.1859 -0.4256
   22SAPC  H20T 2919   3.562   1.604   8.905 -0.8563  1.1932 -1.3803
   22SAPC   C33 2920   3.764   3.262  10.016  0.3008 -0.0545 -0.5841
   22SAPC   H3X 2921   3.819   3.335   9.953 -0.4658 -0.1680 -1.3915
   22SAPC   H3Y 2922   3.670   3.313  10.047 -1.2626 -2.3576 -1.4346
   22SAPC   C34 2923   3.750   3.125   9.941  0.1847 -0.1233  0.1424
   22SAPC   H4X 2924   3.688   3.135   9.849  0.9119 -2.6436 -0.6736
   22SAPC   H4Y 2925   3.694   3.057  10.009 -0.1394  0.5661  0.5703
   22SAPC   C35 2926   3.881   3.071   9.903 -0.8887  0.8713  0.1107
   22SAPC   H5X 2927   3.913   3.012   9.992 -1.6636 -0.7501 -0.6607
   22SAPC   H5Y 2928   3.959   3.150   9.908  1.8261 -1.7758  1.4138
   22SAPC   C36 2929   3.879   2.988   9.775 -0.5437 -0.0753 -0.0051
   22SAPC   H6X 2930   3.980   2.974   9.731 -0.2018 -2.8873  1.5678
   22SAPC   H6Y 2931   3.816   3.046   9.704 -0.1356  1.7737  1.0937
   22SAPC   C37 2932   3.816   2.849   9.785  0.3419  0.1816  0.6596
   22SAPC   H7X 2933   3.716   2.847   9.833 -0.5488 -1.3903 -1.2254
   22SAPC   H7Y 2934   3.872   2.783   9.855 -1.2452  2.0773  3.8739
   22SAPC   C38 2935   3.802   2.770   9.660  0.0063 -0.7585  0.5957
   22SAPC   H8X 2936   3.901   2.741   9.619 -1.0031 -1.0669 -1.6898
   22SAPC   H8Y 2937   3.764   2.825   9.572  1.2185 -0.3877  0.2954
   22SAPC   C39 2938   3.721   2.638   9.671  0.2542  0.2066  1.3018
   22SAPC   H9X 2939   3.621   2.677   9.700 -0.3424 -1.5559  1.6921
   22SAPC   H9Y 2940   3.764   2.576   9.753 -0.0187 -1.9908 -0.1695
   22SAPC  C310 2941   3.702   2.545   9.551  0.2680  0.1073 -0.0090
   22SAPC  H10X 2942   3.642   2.456   9.577 -0.5001  0.3498 -0.9214
   22SAPC  H10Y 2943   3.805   2.519   9.520  0.9402  1.1075  1.3173
   22SAPC  C311 2944   3.637   2.612   9.429 -0.2109 -0.1613  0.9188
   22SAPC  H11X 2945   3.706   2.691   9.394 -0.7897  0.2936  0.7798
   22SAPC  H11Y 2946   3.547   2.665   9.469  1.6194  1.3530  3.1485
   22SAPC  C312 2947   3.614   2.513   9.316  0.3108 -0.7140  0.1505
   22SAPC  H12X 2948   3.572   2.419   9.359  2.6922 -1.2735  1.2926
   22SAPC  H12Y 2949   3.708   2.474   9.272 -0.0694 -1.9689  0.4407
   22SAPC  C313 2950   3.526   2.577   9.208 -0.7561 -0.3095  0.0793
   22SAPC  H13X 2951   3.564   2.676   9.177 -0.9343 -0.9798 -2.3919
   22SAPC  H13Y 2952   3.421   2.590   9.242 -1.9695 -0.1338 -3.5472
   22SAPC  C314 2953   3.538   2.508   9.067 -0.3650 -0.6987  0.2332
   22SAPC  H14X 2954   3.521   2.398   9.070 -1.4955 -0.5976 -1.7260
   22SAPC  H14Y 2955   3.648   2.507   9.053 -0.5417 -0.8397 -1.1943
   22SAPC  C315 2956   3.468   2.583   8.944 -0.5440  0.4593  0.1696
   22SAPC  H15X 2957   3.537   2.578   8.857  2.8192 -1.5500  2.8510
   22SAPC  H15Y 2958   3.471   2.692   8.968 -0.5806 -0.0320  2.5234
   22SAPC  C316 2959   3.327   2.548   8.899 -0.7830 -0.1038  1.1697
   22SAPC  H16X 2960   3.256   2.559   8.983 -0.7353 -0.1151  1.2111
   22SAPC  H16Y 2961   3.315   2.438   8.888  1.2635 -0.1480 -1.0456
   22SAPC  C317 2962   3.273   2.611   8.777 -0.3670  0.7939 -0.4626
   22SAPC  H17X 2963   3.320   2.556   8.692  2.1632  0.4739  1.0936
   22SAPC  H17Y 2964   3.308   2.715   8.763  1.2398  0.2810 -0.3284
   22SAPC  C318 2965   3.122   2.609   8.760  0.7921 -0.4845  0.1344
   22SAPC  H18X 2966   3.091   2.503   8.765  0.5266 -0.5639 -2.4145
   22SAPC  H18Y 2967   3.090   2.655   8.664  1.2056 -1.2085 -0.3498
   22SAPC  H18Z 2968   3.075   2.650   8.853 -1.1220  1.2627 -1.5416
   23SAPC     N 2969   6.086   4.497  11.009 -0.2909 -0.0819  0.8946
   23SAPC   C12 2970   6.039   4.359  11.048 -0.1359  0.1026  0.1013
   23SAPC  H12A 2971   5.933   4.341  11.047 -0.0262 -0.6074  0.3729
   23SAPC  H12B 2972   6.083   4.345  11.146 -1.4703  0.2451  0.7195
   23SAPC   C13 2973   6.028   4.551  10.882 -0.5715  0.9327  0.7026
   23SAPC  H13A 2974   5.922   4.529  10.884 -0.3222 -0.2722  1.2550
   23SAPC  H13B 2975   6.029   4.658  10.893 -0.0362  1.3710 -3.0425
   23SAPC  H13C 2976   6.074   4.512  10.793 -3.3906 -1.0620  0.0299
   23SAPC   C14 2977   6.033   4.582  11.124  0.5876 -0.1022 -0.4035
   23SAPC  H14A 2978   5.927   4.566  11.138  0.8545 -0.9663  0.7013
   23SAPC  H14B 2979   6.087   4.563  11.216 -0.0025  1.4958  0.3097
   23SAPC  H14C 2980   6.039   4.687  11.096 -1.6477  0.2657  0.4333
   23SAPC   C15 2981   6.242   4.508  11.004 -0.3731  0.2968  0.1880
   23SAPC  H15A 2982   6.278   4.610  11.013  2.0152 -0.4514 -0.6158
   23SAPC  H15B 2983   6.293   4.450  11.079 -0.1059  2.6411  1.8643
   23SAPC  H15C 2984   6.258   4.480  10.901 -0.5172  2.9270 -0.6119
   23SAPC   C11 2985   6.091   4.245  10.960 -0.7593 -0.2714  0.9295
   23SAPC  H11A 2986   6.064   4.144  10.997  0.9004 -1.8806 -2.0702
   23SAPC  H11B 2987   6.202   4.245  10.957 -0.7774 -1.3280 -0.3730
   23SAPC     P 2988   5.881   4.244  10.810  0.0867  0.3785 -0.0688
   23SAPC   O13 2989   5.813   4.246  10.944  0.4042  1.0682  0.0613
   23SAPC   O14 2990   5.838   4.339  10.711  0.5118 -0.9199 -0.2509
   23SAPC   O12 2991   6.036   4.261  10.829  0.1437 -0.6349 -0.0559
   23SAPC   O11 2992   5.860   4.101  10.747  0.3284  0.0310 -0.3137
   23SAPC    C1 2993   5.974   4.025  10.704 -0.3363 -0.0965  0.6641
   23SAPC    HA 2994   6.062   4.037  10.771  0.3493  1.1258 -0.4292
   23SAPC    HB 2995   5.951   3.918  10.686  0.4307 -0.0253 -0.7248
   23SAPC    C2 2996   6.025   4.073  10.561  0.1803  0.1252 -0.7920
   23SAPC    HS 2997   6.041   4.182  10.576 -1.7329  0.5450 -1.5832
   23SAPC   O21 2998   5.923   4.040  10.462  0.4236  0.0878  0.0323
   23SAPC   C21 2999   5.904   4.140  10.380  0.0711  0.2887 -0.2324
   23SAPC   O22 3000   5.973   4.241  10.368 -0.2762 -0.3634  0.5784
   23SAPC   C22 3001   5.779   4.129  10.294  0.7260 -0.9614 -0.0387
   23SAPC   H2R 3002   5.763   4.022  10.270  3.3835 -1.5210  0.4735
   23SAPC   H2S 3003   5.693   4.172  10.349  0.2853  0.4179 -1.7477
   23SAPC    C3 3004   6.147   3.985  10.525  0.0991  0.9807  0.7319
   23SAPC    HX 3005   6.093   3.889  10.519  0.3454  0.8973 -0.3131
   23SAPC    HY 3006   6.222   3.990  10.607 -1.2442 -1.1447  2.1338
   23SAPC   O31 3007   6.209   4.019  10.399  0.0168 -0.0387  0.6856
   23SAPC   C31 3008   6.276   4.135  10.398 -0.0451  0.0913 -0.4250
   23SAPC   O32 3009   6.305   4.202  10.492 -0.2129  0.4661 -0.3113
   23SAPC   C32 3010   6.336   4.146  10.257  0.1056  0.2298 -1.0957
   23SAPC   H2X 3011   6.364   4.045  10.222 -0.3468 -0.3306  0.1209
   23SAPC   H2Y 3012   6.428   4.207  10.258  0.7192 -0.7144  0.6885
   23SAPC   C23 3013   5.782   4.221  10.169  0.1457 -0.4254  0.0767
   23SAPC   H3R 3014   5.848   4.187  10.087 -0.4577 -0.6583 -0.3132
   23SAPC   H3S 3015   5.831   4.321  10.181  2.0424 -1.4067  0.7034
   23SAPC   C24 3016   5.641   4.224  10.118  0.3024 -0.0060  0.1491
   23SAPC   H4R 3017   5.577   4.259  10.202 -0.4847  0.8322 -0.7931
   23SAPC   H4S 3018   5.611   4.122  10.084 -1.4676  1.2753 -2.2507
   23SAPC   C25 3019   5.620   4.319  10.000  0.2478  0.2934 -0.5776
   23SAPC   H5R 3020   5.562   4.411  10.018 -1.5575 -1.1331  1.0285
   23SAPC   C26 3021   5.657   4.300   9.873 -0.8147  0.1191  0.2954
   23SAPC   H6R 3022   5.632   4.377   9.797  0.7269 -1.5527 -1.9739
   23SAPC   C27 3023   5.736   4.184   9.815  0.4196  0.6355  0.0963
   23SAPC   H7R 3024   5.753   4.114   9.900  1.4593  1.2707  0.4235
   23SAPC   H7S 3025   5.833   4.222   9.778  1.8436 -2.2370  0.7713
   23SAPC   C28 3026   5.655   4.102   9.710 -0.5974  0.1026 -0.6246
   23SAPC   H8R 3027   5.595   4.019   9.751 -0.3691 -0.3543 -1.2032
   23SAPC   C29 3028   5.670   4.103   9.572  0.2821 -0.3746  0.2192
   23SAPC   H9R 3029   5.616   4.032   9.508  0.3498  0.7053 -1.0381
   23SAPC  C210 3030   5.752   4.204   9.494  0.0169  0.6382  0.3538
   23SAPC  H10R 3031   5.797   4.154   9.405 -0.9733  0.4211 -0.0270
   23SAPC  H10S 3032   5.841   4.231   9.554 -1.1597  1.4680  1.7464
   23SAPC  C211 3033   5.675   4.323   9.437  0.0119  0.1423 -0.2162
   23SAPC  H11R 3034   5.633   4.382   9.520 -1.9545 -0.4473 -0.7895
   23SAPC  C212 3035   5.648   4.359   9.309 -0.1146  0.2318  0.4274
   23SAPC  H12R 3036   5.578   4.444   9.311 -0.4319 -0.0234  0.2634
   23SAPC  C213 3037   5.692   4.300   9.179 -0.3886  0.5946  0.0726
   23SAPC  H13R 3038   5.621   4.303   9.093 -1.4810 -0.6071  0.9023
   23SAPC  H13S 3039   5.717   4.192   9.185  0.3882  0.8251  1.0205
   23SAPC  C214 3040   5.821   4.376   9.143  0.1673 -0.2052  0.1267
   23SAPC  H14R 3041   5.909   4.367   9.209  0.5905 -1.3959 -0.5813
   23SAPC  C215 3042   5.846   4.453   9.029  0.0515 -0.5834 -0.4128
   23SAPC  H15R 3043   5.951   4.482   9.014  0.2289  0.3495  2.3136
   23SAPC  C216 3044   5.751   4.486   8.913 -0.2825 -0.5175 -0.3131
   23SAPC  H16R 3045   5.757   4.596   8.903  0.3127 -0.2640  2.4484
   23SAPC  H16S 3046   5.646   4.458   8.939  0.2495 -1.9793  0.3327
   23SAPC  C217 3047   5.801   4.427   8.782  0.2588  0.1178  0.1377
   23SAPC  H17R 3048   5.827   4.319   8.778 -0.1234  0.0390 -0.2756
   23SAPC  H17S 3049   5.890   4.488   8.759 -0.6220  1.0788 -0.7641
   23SAPC  C218 3050   5.692   4.448   8.676  0.5819 -0.0598  0.0217
   23SAPC  H18R 3051   5.642   4.547   8.685 -3.6421 -2.0943  0.0535
   23SAPC  H18S 3052   5.605   4.382   8.697  1.8102 -1.1524  1.7964
   23SAPC  C219 3053   5.735   4.419   8.532  0.1339 -0.2929  0.1801
   23SAPC  H19R 3054   5.643   4.432   8.471 -1.4896  3.0473  3.1462
   23SAPC  H19S 3055   5.768   4.313   8.537  2.4242  0.4273  0.6212
   23SAPC  C220 3056   5.854   4.502   8.483  0.0715 -0.2123 -0.4182
   23SAPC  H20R 3057   5.823   4.609   8.479  1.5299  0.2131 -0.4364
   23SAPC  H20S 3058   5.894   4.464   8.387 -0.5723 -0.0645 -0.7522
   23SAPC  H20T 3059   5.941   4.500   8.553  0.1391 -0.9985 -0.5255
   23SAPC   C33 3060   6.242   4.214  10.158 -0.0813 -0.2513  0.5078
   23SAPC   H3X 3061   6.223   4.315  10.199  2.1008  1.0556 -1.6114
   23SAPC   H3Y 3062   6.156   4.149  10.131  2.3050 -2.4917 -1.9487
   23SAPC   C34 3063   6.317   4.228  10.020 -0.0164 -0.0164 -0.3400
   23SAPC   H4X 3064   6.399   4.152  10.012 -0.0947 -0.0267 -1.1031
   23SAPC   H4Y 3065   6.376   4.322  10.018  0.9862 -0.6375 -0.9261
   23SAPC   C35 3066   6.218   4.232   9.899 -1.1646 -0.2440  0.0289
   23SAPC   H5X 3067   6.148   4.314   9.922 -1.4827  0.1832 -2.2989
   23SAPC   H5Y 3068   6.167   4.133   9.893 -0.7280 -0.4768  0.1067
   23SAPC   C36 3069   6.283   4.264   9.762 -0.5347 -0.1731 -0.2967
   23SAPC   H6X 3070   6.360   4.187   9.740 -0.7771 -0.0156 -1.8020
   23SAPC   H6Y 3071   6.331   4.363   9.779 -2.3831  0.7047  0.0377
   23SAPC   C37 3072   6.184   4.295   9.645 -0.0612 -0.1819 -0.1155
   23SAPC   H7X 3073   6.116   4.378   9.676 -0.1123 -0.5728  0.8367
   23SAPC   H7Y 3074   6.118   4.207   9.631  1.6475 -1.3929 -0.5862
   23SAPC   C38 3075   6.254   4.329   9.507  0.2630  0.5174  0.1653
   23SAPC   H8X 3076   6.334   4.255   9.489 -0.0305  0.4868 -1.0222
   23SAPC   H8Y 3077   6.305   4.428   9.504  1.0237  0.1927  1.5640
   23SAPC   C39 3078   6.159   4.340   9.392  1.0415  0.4891  0.0470
   23SAPC   H9X 3079   6.102   4.435   9.393 -0.0992 -0.0646 -3.7785
   23SAPC   H9Y 3080   6.084   4.258   9.388  3.1241 -1.4209 -0.8393
   23SAPC  C310 3081   6.228   4.348   9.254  0.0707  0.0406 -0.0990
   23SAPC  H10X 3082   6.335   4.326   9.276  0.9182  1.5116 -2.5724
   23SAPC  H10Y 3083   6.222   4.452   9.217 -0.3899  0.7373  1.8794
   23SAPC  C311 3084   6.187   4.249   9.149 -0.1170  0.0241 -0.1250
   23SAPC  H11X 3085   6.081   4.218   9.160  0.3297 -1.7074 -0.5769
   23SAPC  H11Y 3086   6.240   4.154   9.174 -1.8762 -1.5354 -2.1692
   23SAPC  C312 3087   6.227   4.283   9.007  0.3778  0.4760  0.5087
   23SAPC  H12X 3088   6.338   4.284   8.994  0.5602 -0.4884  1.8247
   23SAPC  H12Y 3089   6.194   4.386   8.981  1.2714  0.6038 -0.1391
   23SAPC  C313 3090   6.172   4.179   8.905  0.5640 -0.0542 -0.3239
   23SAPC  H13X 3091   6.069   4.158   8.940  1.2690  0.0051  1.8219
   23SAPC  H13Y 3092   6.237   4.090   8.915 -1.1319 -1.1309  1.3917
   23SAPC  C314 3093   6.197   4.236   8.762  0.1449 -0.0954 -0.5045
   23SAPC  H14X 3094   6.303   4.272   8.756  0.1314  0.1635  0.6685
   23SAPC  H14Y 3095   6.137   4.329   8.749  1.4530  0.7963 -0.3549
   23SAPC  C315 3096   6.168   4.138   8.647 -0.0156  0.0400 -0.0576
   23SAPC  H15X 3097   6.066   4.095   8.638  1.0807 -2.4357 -1.1688
   23SAPC  H15Y 3098   6.230   4.047   8.663 -2.9930 -2.3238 -1.2589
   23SAPC  C316 3099   6.181   4.192   8.507 -0.6255 -0.5429  0.3801
   23SAPC  H16X 3100   6.093   4.260   8.496  1.1428  2.1351  2.2001
   23SAPC  H16Y 3101   6.165   4.106   8.438 -3.4653 -1.2601  1.8525
   23SAPC  C317 3102   6.302   4.264   8.458 -0.4480  0.0391 -0.4357
   23SAPC  H17X 3103   6.390   4.203   8.491  0.6298  1.6207 -0.3306
   23SAPC  H17Y 3104   6.315   4.361   8.510  2.3701  0.8085 -2.4748
   23SAPC  C318 3105   6.321   4.272   8.309  0.3382  0.0207 -0.3732
   23SAPC  H18X 3106   6.277   4.362   8.261  0.2497  0.1634 -0.0186
   23SAPC  H18Y 3107   6.289   4.182   8.252  1.0608  0.3324 -1.2866
   23SAPC  H18Z 3108   6.431   4.270   8.292  0.5097  1.6264  0.4119
   24SAPC     N 3109   1.516   5.117  11.201  0.2793  0.4135 -1.1393
   24SAPC   C12 3110   1.534   5.245  11.132 -0.0222 -0.3880 -0.4178
   24SAPC  H12A 3111   1.537   5.325  11.205 -2.0506 -1.6780  1.1431
   24SAPC  H12B 3112   1.453   5.268  11.064 -0.3429 -1.3903 -0.3731
   24SAPC   C13 3113   1.375   5.114  11.258 -0.8871  0.9618 -0.0389
   24SAPC  H13A 3114   1.306   5.142  11.179  1.6620  2.6446 -1.7184
   24SAPC  H13B 3115   1.355   5.010  11.280 -2.6256  0.8114 -2.1262
   24SAPC  H13C 3116   1.375   5.168  11.351 -1.9120 -0.7644  0.9805
   24SAPC   C14 3117   1.535   5.011  11.098 -0.3547  0.1227  0.1465
   24SAPC  H14A 3118   1.634   5.017  11.055 -0.2195  0.0279  0.4423
   24SAPC  H14B 3119   1.538   4.906  11.125 -1.1724  0.0418 -0.0720
   24SAPC  H14C 3120   1.477   5.025  11.008  2.0261 -1.0018 -1.6466
   24SAPC   C15 3121   1.615   5.114  11.317  0.4231  0.9514  0.0795
   24SAPC  H15A 3122   1.602   5.023  11.373 -1.4404  1.0015 -0.2197
   24SAPC  H15B 3123   1.712   5.122  11.271  0.5754 -0.2783  0.1952
   24SAPC  H15C 3124   1.603   5.200  11.381  0.1697 -0.0005  1.3139
   24SAPC   C11 3125   1.658   5.257  11.033  0.7735 -1.3088 -0.0041
   24SAPC  H11A 3126   1.664   5.358  10.988  0.2235 -0.9888  0.6172
   24SAPC  H11B 3127   1.628   5.185  10.954  1.7585  0.0506 -1.6280
   24SAPC     P 3128   1.895   5.144  11.057 -0.2696 -0.2726 -0.2714
   24SAPC   O13 3129   2.013   5.233  11.053  0.1402  0.1419  0.8531
   24SAPC   O14 3130   1.898   5.032  11.146 -0.3799  0.0539  0.7719
   24SAPC   O12 3131   1.773   5.232  11.105 -0.5572  0.3136  0.2702
   24SAPC   O11 3132   1.846   5.094  10.916  0.4881 -0.4120  0.4049
   24SAPC    C1 3133   1.894   5.152  10.799 -0.5078  0.5288 -0.2850
   24SAPC    HA 3134   1.895   5.263  10.801 -2.5073  0.5499  0.5421
   24SAPC    HB 3135   1.991   5.102  10.777 -0.1230 -0.0633  2.5513
   24SAPC    C2 3136   1.799   5.115  10.677  0.2582  0.3920 -0.5210
   24SAPC    HS 3137   1.699   5.157  10.699  0.3874  0.1288  0.5932
   24SAPC   O21 3138   1.803   4.970  10.662 -0.2202 -0.2506  0.3245
   24SAPC   C21 3139   1.723   4.901  10.745  0.6063  0.8072 -0.1319
   24SAPC   O22 3140   1.619   4.947  10.787  0.4181  0.7015 -0.5315
   24SAPC   C22 3141   1.757   4.756  10.749  0.0702 -0.1183  0.2272
   24SAPC   H2R 3142   1.858   4.723  10.715  0.0525  0.5712 -0.5054
   24SAPC   H2S 3143   1.738   4.715  10.851  0.6232 -1.9070 -0.3661
   24SAPC    C3 3144   1.846   5.178  10.548 -0.4060 -0.3171 -0.2313
   24SAPC    HX 3145   1.943   5.132  10.522 -0.6836  0.7227 -3.2889
   24SAPC    HY 3146   1.888   5.279  10.563  2.4431 -1.6087  0.8838
   24SAPC   O31 3147   1.759   5.164  10.433  0.0989  0.4556 -0.0698
   24SAPC   C31 3148   1.663   5.256  10.445 -0.2324 -0.8791  0.3143
   24SAPC   O32 3149   1.656   5.340  10.532 -0.0025  0.1611  0.1232
   24SAPC   C32 3150   1.568   5.248  10.319 -0.3163  1.1052 -0.3063
   24SAPC   H2X 3151   1.616   5.186  10.240 -0.9695 -0.9738  0.8651
   24SAPC   H2Y 3152   1.548   5.352  10.289  3.1904  0.9461 -3.6008
   24SAPC   C23 3153   1.664   4.672  10.652  0.1654 -0.1241  0.0339
   24SAPC   H3R 3154   1.569   4.658  10.707 -0.7015 -0.7705 -1.6021
   24SAPC   H3S 3155   1.710   4.571  10.645  0.3513  0.0235 -1.1223
   24SAPC   C24 3156   1.631   4.735  10.519  1.3258  0.2189  0.8895
   24SAPC   H4R 3157   1.573   4.828  10.532  2.1723  0.9384 -0.3577
   24SAPC   H4S 3158   1.553   4.675  10.468  3.5866 -1.9790 -0.1394
   24SAPC   C25 3159   1.753   4.753  10.429  0.4521  0.4849 -0.1434
   24SAPC   H5R 3160   1.821   4.835  10.459  2.2067  0.7350 -4.3124
   24SAPC   C26 3161   1.794   4.677  10.325  0.1760  0.0594  0.3811
   24SAPC   H6R 3162   1.887   4.696  10.271  0.9510 -3.1005  0.5109
   24SAPC   C27 3163   1.729   4.554  10.269  0.3938  0.1013 -0.4492
   24SAPC   H7R 3164   1.620   4.567  10.290 -0.4456 -2.6784 -2.7572
   24SAPC   H7S 3165   1.768   4.466  10.324  2.0152  1.5852  0.8210
   24SAPC   C28 3166   1.748   4.516  10.124  0.2817 -0.2631  0.0633
   24SAPC   H8R 3167   1.777   4.413  10.098  0.7003  0.1398 -1.1373
   24SAPC   C29 3168   1.724   4.603  10.014  0.3538  0.1017  0.2842
   24SAPC   H9R 3169   1.740   4.578   9.909 -3.1549  1.7938 -0.7364
   24SAPC  C210 3170   1.676   4.747  10.030  0.1176  0.4939 -0.7657
   24SAPC  H10R 3171   1.768   4.807  10.041  0.5619 -0.3094 -0.0356
   24SAPC  H10S 3172   1.622   4.757  10.127 -0.6636 -0.9278 -1.0341
   24SAPC  C211 3173   1.586   4.792   9.917 -0.0154 -0.3611 -0.6763
   24SAPC  H11R 3174   1.551   4.713   9.849  1.6638 -1.5591 -0.1675
   24SAPC  C212 3175   1.542   4.911   9.892 -0.2479  0.4792  0.0416
   24SAPC  H12R 3176   1.470   4.911   9.809 -0.1249 -2.2264 -0.1264
   24SAPC  C213 3177   1.558   5.039   9.970 -1.0748  0.7155  0.2148
   24SAPC  H13R 3178   1.521   5.027  10.074  0.7027  3.5057  1.2195
   24SAPC  H13S 3179   1.492   5.116   9.923 -1.8594  0.1580  0.3888
   24SAPC  C214 3180   1.698   5.091   9.983 -0.8057  0.1611 -0.3131
   24SAPC  H14R 3181   1.741   5.076  10.083 -2.1840 -2.4656 -0.0601
   24SAPC  C215 3182   1.776   5.134   9.876 -0.2406  0.5721  0.4116
   24SAPC  H15R 3183   1.878   5.162   9.909  0.1457 -0.1393 -0.1554
   24SAPC  C216 3184   1.743   5.132   9.730  0.1770 -0.4248  0.6363
   24SAPC  H16R 3185   1.746   5.239   9.698  1.2963 -0.5170  0.4006
   24SAPC  H16S 3186   1.641   5.094   9.710 -0.7336  1.8437  0.8184
   24SAPC  C217 3187   1.835   5.046   9.640  0.6131  0.5855  0.1140
   24SAPC  H17R 3188   1.833   4.947   9.691 -0.0400  0.3978 -0.2679
   24SAPC  H17S 3189   1.940   5.080   9.649  0.3143  1.2685  1.2437
   24SAPC  C218 3190   1.797   5.028   9.493 -0.1606 -0.0953  0.9862
   24SAPC  H18R 3191   1.699   4.975   9.489  0.6126 -1.4760 -0.0109
   24SAPC  H18S 3192   1.864   4.962   9.434  2.3335  2.5608  0.7378
   24SAPC  C219 3193   1.783   5.161   9.408 -0.4116  0.1595 -0.3077
   24SAPC  H19R 3194   1.709   5.225   9.461 -1.7079 -2.7071  1.4416
   24SAPC  H19S 3195   1.744   5.141   9.306  1.1663  0.1780 -0.9217
   24SAPC  C220 3196   1.910   5.244   9.398  0.6478  0.6211  0.2159
   24SAPC  H20R 3197   1.945   5.270   9.500  1.0412 -0.7866  0.4461
   24SAPC  H20S 3198   1.886   5.342   9.352  0.5259  0.4966  0.0155
   24SAPC  H20T 3199   1.989   5.190   9.341 -0.0558  3.1170 -3.3314
   24SAPC   C33 3200   1.434   5.181  10.353  0.0058  0.7297  0.8919
   24SAPC   H3X 3201   1.358   5.204  10.275  1.1625  0.7095 -0.2690
   24SAPC   H3Y 3202   1.373   5.227  10.433 -1.8534 -0.1751  0.0302
   24SAPC   C34 3203   1.438   5.034  10.388  0.2846  0.3222 -0.1911
   24SAPC   H4X 3204   1.521   5.009  10.458  1.2919 -1.0099 -1.8234
   24SAPC   H4Y 3205   1.459   4.977  10.295  1.1857 -3.3506  2.1366
   24SAPC   C35 3206   1.300   4.994  10.447 -0.2023  0.0827 -0.1630
   24SAPC   H5X 3207   1.227   5.057  10.391 -0.0108 -0.3003 -0.8419
   24SAPC   H5Y 3208   1.293   5.034  10.551 -0.0450  0.0902 -0.1560
   24SAPC   C36 3209   1.267   4.844  10.445 -0.2672  0.0616 -0.5122
   24SAPC   H6X 3210   1.158   4.850  10.465 -0.1531 -4.0270  1.9578
   24SAPC   H6Y 3211   1.311   4.779  10.525 -1.0986 -0.6821 -0.6493
   24SAPC   C37 3212   1.296   4.782  10.310  0.2387 -0.0991  0.5857
   24SAPC   H7X 3213   1.407   4.780  10.303  0.3766  1.5072  1.8821
   24SAPC   H7Y 3214   1.252   4.841  10.226 -1.0508 -0.9029  0.6902
   24SAPC   C38 3215   1.243   4.640  10.306  0.3758 -0.5751  0.7765
   24SAPC   H8X 3216   1.132   4.648  10.304  0.3486 -0.8425  1.4721
   24SAPC   H8Y 3217   1.270   4.580  10.395 -0.7492 -0.9428  0.8715
   24SAPC   C39 3218   1.297   4.569  10.182 -0.6800 -0.7651 -0.5820
   24SAPC   H9X 3219   1.261   4.464  10.182 -2.4346 -0.1902 -0.6273
   24SAPC   H9Y 3220   1.407   4.557  10.192 -1.1080 -2.7681  2.3035
   24SAPC  C310 3221   1.242   4.629  10.053 -0.6206  0.1179  0.2443
   24SAPC  H10X 3222   1.274   4.734  10.042  1.9788 -0.7850 -1.3182
   24SAPC  H10Y 3223   1.131   4.627  10.047 -0.4898  2.0855 -4.1026
   24SAPC  C311 3224   1.275   4.546   9.931  0.9006  0.1179  0.7854
   24SAPC  H11X 3225   1.239   4.442   9.941  0.4957  0.2192  0.4212
   24SAPC  H11Y 3226   1.384   4.548   9.915  1.3758 -1.6431  3.4704
   24SAPC  C312 3227   1.215   4.588   9.793  0.1894 -0.5898  0.1940
   24SAPC  H12X 3228   1.268   4.682   9.767  0.8493 -1.0011  0.0160
   24SAPC  H12Y 3229   1.105   4.596   9.804  0.0502 -0.2107 -1.3054
   24SAPC  C313 3230   1.243   4.476   9.691  0.5414  0.3632  0.5684
   24SAPC  H13X 3231   1.191   4.387   9.732 -0.3850  0.2570 -0.8002
   24SAPC  H13Y 3232   1.353   4.461   9.693  0.3201 -1.2147  1.6590
   24SAPC  C314 3233   1.186   4.498   9.549  0.0641  0.9604  0.0457
   24SAPC  H14X 3234   1.261   4.552   9.487  0.2038 -0.0332 -0.6615
   24SAPC  H14Y 3235   1.087   4.547   9.548 -0.6658 -0.5210 -0.4308
   24SAPC  C315 3236   1.169   4.357   9.498  0.5219  0.4300  0.5540
   24SAPC  H15X 3237   1.100   4.297   9.561  0.8452  0.7701  1.2364
   24SAPC  H15Y 3238   1.264   4.301   9.511  0.6357  0.7480  1.1015
   24SAPC  C316 3239   1.117   4.361   9.346 -0.2252  0.1204  0.1737
   24SAPC  H16X 3240   1.122   4.257   9.307  1.3051  0.2566 -0.0615
   24SAPC  H16Y 3241   1.186   4.432   9.294 -1.5793 -0.5124 -2.5742
   24SAPC  C317 3242   0.976   4.404   9.330  0.1105 -0.2683 -0.8818
   24SAPC  H17X 3243   0.968   4.510   9.360 -0.5444 -0.5351 -0.0791
   24SAPC  H17Y 3244   0.915   4.335   9.393  2.6583 -1.8020 -0.0297
   24SAPC  C318 3245   0.936   4.379   9.188 -1.2167  0.8874 -0.4645
   24SAPC  H18X 3246   0.832   4.417   9.182 -1.9309 -0.2354  3.3927
   24SAPC  H18Y 3247   0.938   4.275   9.151  0.1747 -0.0414  2.0864
   24SAPC  H18Z 3248   0.991   4.452   9.126 -1.0031 -0.5289 -1.9712
   25SAPC     N 3249   4.189   2.571   5.806  0.4005  0.0920  0.3296
   25SAPC   C12 3250   4.344   2.558   5.832  0.3093 -0.7123  0.5845
   25SAPC  H12A 3251   4.385   2.564   5.732  0.4883  0.0783  0.7088
   25SAPC  H12B 3252   4.379   2.460   5.862 -0.0636 -1.5987 -1.7325
   25SAPC   C13 3253   4.156   2.713   5.771  0.1833 -0.3033  0.1391
   25SAPC  H13A 3254   4.197   2.763   5.684 -0.9025  0.5326  0.1014
   25SAPC  H13B 3255   4.049   2.727   5.767  0.3420  1.2834  1.3399
   25SAPC  H13C 3256   4.193   2.773   5.853  1.6175 -0.4455 -0.3782
   25SAPC   C14 3257   4.147   2.485   5.691  0.8008  0.7430  0.3939
   25SAPC  H14A 3258   4.168   2.381   5.710  1.0302  0.6163 -0.5196
   25SAPC  H14B 3259   4.041   2.499   5.681  0.6288 -0.6600  0.1846
   25SAPC  H14C 3260   4.195   2.506   5.596 -0.6478  1.1353 -0.2556
   25SAPC   C15 3261   4.113   2.526   5.921 -0.5898  0.0062  1.0177
   25SAPC  H15A 3262   4.006   2.533   5.910 -0.3579  0.7743 -1.0291
   25SAPC  H15B 3263   4.137   2.425   5.948 -1.8255 -1.3129 -2.5284
   25SAPC  H15C 3264   4.136   2.587   6.007 -1.1445  3.0744 -0.9159
   25SAPC   C11 3265   4.406   2.661   5.923  0.1026 -0.0825 -0.2169
   25SAPC  H11A 3266   4.381   2.757   5.873 -1.0420 -1.2443 -1.9437
   25SAPC  H11B 3267   4.515   2.644   5.931  0.3788  0.9279 -1.5374
   25SAPC     P 3268   4.398   2.584   6.174  0.0432 -0.1398  0.1089
   25SAPC   O13 3269   4.302   2.585   6.288 -0.0280 -0.3463 -0.2246
   25SAPC   O14 3270   4.434   2.447   6.129 -0.5728  0.0309  0.1607
   25SAPC   O12 3271   4.335   2.661   6.048  0.5205  0.3392  0.0528
   25SAPC   O11 3272   4.521   2.666   6.227 -0.2436  0.5417  0.8707
   25SAPC    C1 3273   4.527   2.800   6.271 -0.1629  0.0247 -0.7997
   25SAPC    HA 3274   4.602   2.861   6.216  0.9439  1.1003  1.8565
   25SAPC    HB 3275   4.424   2.841   6.266  0.8425  2.5013 -2.4202
   25SAPC    C2 3276   4.586   2.806   6.414  0.1924 -0.4256  0.2910
   25SAPC    HS 3277   4.696   2.793   6.410  0.0954 -0.9693 -1.3099
   25SAPC   O21 3278   4.523   2.707   6.498 -0.1482 -0.5027  0.6208
   25SAPC   C21 3279   4.582   2.584   6.492 -0.2682 -0.1011 -0.1390
   25SAPC   O22 3280   4.691   2.556   6.440  0.3213 -0.6650  0.4618
   25SAPC   C22 3281   4.495   2.480   6.572 -0.6889 -0.0183 -0.3518
   25SAPC   H2R 3282   4.419   2.530   6.636  0.6835  1.4642  0.1635
   25SAPC   H2S 3283   4.443   2.410   6.504  1.2667 -1.0145 -0.8605
   25SAPC    C3 3284   4.563   2.947   6.479 -0.9046 -0.5576 -0.3021
   25SAPC    HX 3285   4.453   2.961   6.471 -0.7502  1.6600  0.9324
   25SAPC    HY 3286   4.615   3.024   6.418 -0.3805 -0.4592  0.2620
   25SAPC   O31 3287   4.610   2.955   6.618  0.3860  0.1740  0.4257
   25SAPC   C31 3288   4.527   2.996   6.705  0.8643 -0.2642  0.4453
   25SAPC   O32 3289   4.412   3.029   6.689  0.0906  0.0876  0.0522
   25SAPC   C32 3290   4.605   3.006   6.836  0.8156  0.1246 -0.1453
   25SAPC   H2X 3291   4.639   2.904   6.861 -0.7840 -0.4999 -0.4475
   25SAPC   H2Y 3292   4.535   3.047   6.912  0.2803 -1.0417  0.0004
   25SAPC   C23 3293   4.583   2.391   6.664  0.0436  1.1448 -0.0194
   25SAPC   H3R 3294   4.655   2.441   6.732  0.2920  0.1711  0.4468
   25SAPC   H3S 3295   4.644   2.324   6.599 -0.3399 -1.2798  2.0335
   25SAPC   C24 3296   4.504   2.277   6.733 -0.0263  0.3935  0.7045
   25SAPC   H4R 3297   4.582   2.232   6.799  0.9345 -0.8861 -1.2814
   25SAPC   H4S 3298   4.473   2.207   6.653 -0.4354  0.7641  0.5398
   25SAPC   C25 3299   4.380   2.334   6.805  0.2329  0.3189 -0.0132
   25SAPC   H5R 3300   4.301   2.369   6.736  0.6447  0.7189 -0.2882
   25SAPC   C26 3301   4.363   2.343   6.941 -0.1614 -0.4703  0.8600
   25SAPC   H6R 3302   4.270   2.385   6.984 -0.1427 -1.3058  1.7339
   25SAPC   C27 3303   4.453   2.287   7.049 -0.4744 -0.3215 -0.0657
   25SAPC   H7R 3304   4.535   2.349   7.089 -1.3474 -0.4663  2.0152
   25SAPC   H7S 3305   4.511   2.208   6.997  1.0809  0.4279  0.5114
   25SAPC   C28 3306   4.394   2.228   7.173  0.3480  0.4994 -0.0259
   25SAPC   H8R 3307   4.325   2.147   7.146 -1.3720  1.3743  1.6183
   25SAPC   C29 3308   4.404   2.265   7.303  0.4539 -0.4463  0.2077
   25SAPC   H9R 3309   4.346   2.207   7.376 -2.7359  0.1909 -1.7532
   25SAPC  C210 3310   4.494   2.375   7.349  0.1580 -0.3103 -0.2097
   25SAPC  H10R 3311   4.421   2.446   7.393 -0.8591 -1.3403 -0.2129
   25SAPC  H10S 3312   4.552   2.427   7.269  0.8477 -0.8010 -0.0366
   25SAPC  C211 3313   4.587   2.326   7.455  0.5903  0.4892  0.0594
   25SAPC  H11R 3314   4.612   2.221   7.474  1.7387  0.2978 -2.3665
   25SAPC  C212 3315   4.649   2.409   7.540  0.4353  0.1925 -0.2560
   25SAPC  H12R 3316   4.715   2.362   7.615 -1.0295 -1.3677  0.1111
   25SAPC  C213 3317   4.630   2.554   7.548  0.0089  0.2227  0.2106
   25SAPC  H13R 3318   4.555   2.569   7.629 -2.8385 -4.0922 -1.4271
   25SAPC  H13S 3319   4.584   2.597   7.456 -2.5569 -0.2040  1.2455
   25SAPC  C214 3320   4.745   2.638   7.587 -0.5522  0.0247  0.3394
   25SAPC  H14R 3321   4.794   2.693   7.506 -3.3982  0.4116 -1.1915
   25SAPC  C215 3322   4.796   2.660   7.709 -0.1720 -0.0774  0.2060
   25SAPC  H15R 3323   4.876   2.734   7.723 -0.4125  0.3512 -0.6630
   25SAPC  C216 3324   4.754   2.596   7.836  0.8097 -0.1607 -0.1204
   25SAPC  H16R 3325   4.720   2.490   7.829 -1.6775  0.4451  1.9198
   25SAPC  H16S 3326   4.676   2.659   7.884  0.8996  0.6399 -1.0171
   25SAPC  C217 3327   4.872   2.594   7.936  0.0417  0.3932 -0.4389
   25SAPC  H17R 3328   4.914   2.697   7.939 -0.9911  0.7762  1.7417
   25SAPC  H17S 3329   4.952   2.533   7.889 -0.7512  0.0797 -1.3848
   25SAPC  C218 3330   4.834   2.540   8.076 -0.0876  0.0414 -0.4160
   25SAPC  H18R 3331   4.724   2.554   8.077  0.1638  2.4510 -1.6201
   25SAPC  H18S 3332   4.895   2.606   8.141  0.0243 -0.9108  0.4604
   25SAPC  C219 3333   4.875   2.388   8.093  0.3551  1.0473  0.3772
   25SAPC  H19R 3334   4.893   2.337   7.996  0.3062  0.0863  0.8672
   25SAPC  H19S 3335   4.782   2.339   8.129  1.0410 -0.4380  0.1356
   25SAPC  C220 3336   4.975   2.363   8.195  0.2452  0.4971 -0.4323
   25SAPC  H20R 3337   5.073   2.400   8.159  0.3830  1.5873  1.0281
   25SAPC  H20S 3338   4.983   2.257   8.229 -0.5294  0.8514  0.8569
   25SAPC  H20T 3339   4.951   2.407   8.293  0.5340  0.9816 -0.5779
   25SAPC   C33 3340   4.731   3.091   6.820 -0.0095 -0.1639  0.1301
   25SAPC   H3X 3341   4.721   3.166   6.738  1.1083  1.7024  1.6525
   25SAPC   H3Y 3342   4.816   3.040   6.769 -0.9207 -0.0739 -1.5115
   25SAPC   C34 3343   4.787   3.162   6.946 -0.6380 -0.0227 -0.2197
   25SAPC   H4X 3344   4.892   3.193   6.933 -1.4822  3.2882  0.2473
   25SAPC   H4Y 3345   4.784   3.079   7.020  1.6990  0.7921  0.8237
   25SAPC   C35 3346   4.709   3.284   6.994  0.4488  0.3466 -0.7468
   25SAPC   H5X 3347   4.609   3.252   7.028  2.3082 -2.8879  1.9569
   25SAPC   H5Y 3348   4.697   3.358   6.912  2.4162 -2.1391 -3.3588
   25SAPC   C36 3349   4.778   3.357   7.113 -0.4835  0.4263 -0.7634
   25SAPC   H6X 3350   4.877   3.387   7.072 -1.7036  3.0355 -1.9209
   25SAPC   H6Y 3351   4.797   3.283   7.194  0.2005 -0.6857 -1.9164
   25SAPC   C37 3352   4.697   3.476   7.164 -0.1631  0.0855  0.7418
   25SAPC   H7X 3353   4.617   3.455   7.239  0.3410  0.7678  1.4751
   25SAPC   H7Y 3354   4.645   3.521   7.077 -1.6479 -2.3285  0.3272
   25SAPC   C38 3355   4.788   3.574   7.231 -0.0391 -0.1175 -0.0160
   25SAPC   H8X 3356   4.737   3.672   7.241 -0.3886  0.1661 -3.8802
   25SAPC   H8Y 3357   4.880   3.589   7.170  0.1130 -0.6245  0.0813
   25SAPC   C39 3358   4.844   3.517   7.373 -1.0167  0.4248 -0.1071
   25SAPC   H9X 3359   4.886   3.602   7.431 -0.2738 -0.5735  0.8365
   25SAPC   H9Y 3360   4.930   3.455   7.340 -0.6435  0.2512  1.1459
   25SAPC  C310 3361   4.753   3.445   7.462  0.1552  0.0263 -0.0130
   25SAPC  H10X 3362   4.703   3.365   7.403  0.6587  0.3409 -0.8795
   25SAPC  H10Y 3363   4.668   3.509   7.493  0.6463  0.9833 -0.6108
   25SAPC  C311 3364   4.825   3.374   7.579  0.0996  0.3572  0.3835
   25SAPC  H11X 3365   4.898   3.446   7.621  0.4925  0.6591 -0.7995
   25SAPC  H11Y 3366   4.883   3.293   7.530  0.8595  0.0806  1.7510
   25SAPC  C312 3367   4.745   3.328   7.696  0.2716 -0.0295  0.3386
   25SAPC  H12X 3368   4.807   3.257   7.754  2.0713  1.2427  0.0449
   25SAPC  H12Y 3369   4.645   3.295   7.661 -0.8476  2.2999  1.2564
   25SAPC  C313 3370   4.733   3.445   7.801  0.3044 -1.1339  0.0428
   25SAPC  H13X 3371   4.712   3.542   7.750 -1.4629 -1.1194  0.7519
   25SAPC  H13Y 3372   4.828   3.454   7.858  0.6218 -0.0321 -0.6492
   25SAPC  C314 3373   4.612   3.416   7.898 -1.1352 -0.1125  0.6273
   25SAPC  H14X 3374   4.519   3.377   7.851 -1.4755  2.4339 -0.9458
   25SAPC  H14Y 3375   4.579   3.515   7.936  0.4892  0.7617 -0.1724
   25SAPC  C315 3376   4.663   3.324   8.008 -0.2624 -0.6215 -0.3431
   25SAPC  H15X 3377   4.753   3.361   8.062  0.5678 -0.4257 -1.8281
   25SAPC  H15Y 3378   4.683   3.223   7.967  0.2274 -1.5963  2.2010
   25SAPC  C316 3379   4.538   3.310   8.112 -0.6317  0.7575  0.3656
   25SAPC  H16X 3380   4.447   3.280   8.057 -1.3621  5.3873 -1.1577
   25SAPC  H16Y 3381   4.526   3.417   8.140  0.7100  0.8905  0.4721
   25SAPC  C317 3382   4.560   3.199   8.220  0.0841  0.1772  0.0974
   25SAPC  H17X 3383   4.659   3.219   8.266  1.5344 -0.4623 -2.6155
   25SAPC  H17Y 3384   4.561   3.102   8.166 -0.6721  0.7815 -1.0226
   25SAPC  C318 3385   4.446   3.192   8.321  0.0020 -0.5265 -0.6284
   25SAPC  H18X 3386   4.453   3.277   8.393 -0.8645 -0.9722 -0.0195
   25SAPC  H18Y 3387   4.453   3.104   8.388  0.2490  0.8143  1.1509
   25SAPC  H18Z 3388   4.346   3.198   8.275 -0.5417  2.2673  0.7646
   26SAPC     N 3389   4.093   4.635   6.405 -0.1729 -0.4793 -0.5831
   26SAPC   C12 3390   4.001   4.739   6.461 -0.2958 -0.3795  0.0850
   26SAPC  H12A 3391   4.054   4.794   6.537 -1.2131  0.6068  0.0321
   26SAPC  H12B 3392   3.921   4.691   6.515 -1.3286  0.4670 -0.6499
   26SAPC   C13 3393   4.031   4.532   6.310  0.0682  0.1994 -0.0615
   26SAPC  H13A 3394   4.017   4.577   6.213 -0.4895  1.2330  0.4945
   26SAPC  H13B 3395   4.099   4.449   6.295  0.4257  0.4275  0.3074
   26SAPC  H13C 3396   3.937   4.497   6.351  0.5235  0.1414  0.9464
   26SAPC   C14 3397   4.197   4.702   6.332 -0.4964 -0.2170 -0.4181
   26SAPC  H14A 3398   4.255   4.759   6.404  3.1600 -2.8238 -1.1216
   26SAPC  H14B 3399   4.267   4.633   6.287 -0.8841 -1.7330  1.2342
   26SAPC  H14C 3400   4.160   4.761   6.250  0.3168  1.5035  0.4264
   26SAPC   C15 3401   4.164   4.559   6.522 -0.3018  0.5149  0.1951
   26SAPC  H15A 3402   4.205   4.638   6.583 -0.9947 -0.6658  2.2575
   26SAPC  H15B 3403   4.092   4.516   6.590 -1.1832  0.8739 -0.5151
   26SAPC  H15C 3404   4.242   4.492   6.487  0.2411  2.3213 -2.1699
   26SAPC   C11 3405   3.930   4.844   6.369 -0.3555  0.1221 -0.2861
   26SAPC  H11A 3406   4.007   4.898   6.311  0.9025 -1.3666 -0.0365
   26SAPC  H11B 3407   3.886   4.921   6.435  0.1008 -1.2362  1.6526
   26SAPC     P 3408   3.678   4.761   6.341 -0.2548  0.0650  0.0705
   26SAPC   O13 3409   3.628   4.882   6.398  0.0105  0.0658 -0.0306
   26SAPC   O14 3410   3.597   4.694   6.236  0.2549  0.1846 -0.9174
   26SAPC   O12 3411   3.827   4.781   6.287  0.4101  0.2598 -0.8715
   26SAPC   O11 3412   3.691   4.658   6.461  0.3473  0.3475  0.4783
   26SAPC    C1 3413   3.699   4.514   6.439  0.8748  0.2574  0.1826
   26SAPC    HA 3414   3.600   4.466   6.447  0.6115  0.8473  0.4909
   26SAPC    HB 3415   3.737   4.471   6.344 -1.1015  1.4751 -1.1873
   26SAPC    C2 3416   3.775   4.455   6.564 -0.1948 -0.0236 -0.6041
   26SAPC    HS 3417   3.879   4.492   6.551  0.4254 -0.9728  1.4833
   26SAPC   O21 3418   3.755   4.311   6.556  0.4757 -0.2371 -1.3769
   26SAPC   C21 3419   3.869   4.244   6.557  0.1597 -1.1936 -0.2111
   26SAPC   O22 3420   3.979   4.295   6.541  0.1904 -0.3500 -0.7074
   26SAPC   C22 3421   3.831   4.102   6.581  1.0309 -0.0688 -0.3766
   26SAPC   H2R 3422   3.791   4.093   6.684 -1.0073 -1.7116 -1.2711
   26SAPC   H2S 3423   3.736   4.076   6.530  0.1427  1.0461  0.6762
   26SAPC    C3 3424   3.706   4.505   6.692  0.1789  0.1106 -0.2495
   26SAPC    HX 3425   3.602   4.466   6.691  0.1086  0.2605 -3.0857
   26SAPC    HY 3426   3.704   4.616   6.686  0.5019  0.2279  1.5486
   26SAPC   O31 3427   3.783   4.468   6.812 -0.2478 -0.2685 -0.2539
   26SAPC   C31 3428   3.917   4.514   6.825  0.0112  0.4384 -0.6995
   26SAPC   O32 3429   3.975   4.581   6.740  0.3602  0.4037  0.2972
   26SAPC   C32 3430   3.972   4.477   6.965 -0.0850 -0.1456  0.0720
   26SAPC   H2X 3431   4.076   4.515   6.961 -0.6106  1.1199 -4.1913
   26SAPC   H2Y 3432   3.972   4.366   6.963  0.3523 -0.1283 -2.0467
   26SAPC   C23 3433   3.934   3.987   6.564  0.3730  0.2394  0.4646
   26SAPC   H3R 3434   3.974   4.007   6.462 -0.2178 -1.5990 -0.1578
   26SAPC   H3S 3435   3.878   3.893   6.542 -0.8603  1.0800 -0.0524
   26SAPC   C24 3436   4.033   3.967   6.666  0.7954  0.3078  0.0225
   26SAPC   H4R 3437   4.063   4.069   6.699 -2.8546  1.8079 -0.9648
   26SAPC   H4S 3438   4.117   3.929   6.604 -1.4369 -1.3821 -2.0483
   26SAPC   C25 3439   3.982   3.879   6.774 -0.0314 -0.1927  0.6634
   26SAPC   H5R 3440   3.953   3.779   6.738 -1.8885  1.0887 -1.5114
   26SAPC   C26 3441   3.963   3.913   6.905 -0.1886 -0.4939 -0.7559
   26SAPC   H6R 3442   3.938   3.839   6.982  0.0291  4.2245  4.1940
   26SAPC   C27 3443   3.985   4.052   6.966 -0.4651  0.3724  0.2103
   26SAPC   H7R 3444   3.979   4.131   6.888 -3.8113 -0.8902 -0.8508
   26SAPC   H7S 3445   4.084   4.068   7.015  0.0427  1.2275 -1.0731
   26SAPC   C28 3446   3.880   4.083   7.066 -0.4122  0.1252 -0.6301
   26SAPC   H8R 3447   3.789   4.124   7.019 -0.0301 -1.1142 -2.4978
   26SAPC   C29 3448   3.882   4.070   7.202  0.7306 -0.2891 -0.2749
   26SAPC   H9R 3449   3.786   4.084   7.254  0.9694  0.4567 -0.0208
   26SAPC  C210 3450   4.000   4.031   7.288 -0.3338  0.3320 -0.3608
   26SAPC  H10R 3451   4.015   4.118   7.356 -2.6188  0.6650 -0.2334
   26SAPC  H10S 3452   4.091   4.021   7.225  1.4507  1.0582  2.0137
   26SAPC  C211 3453   3.964   3.905   7.368 -0.8784 -0.7570 -0.5123
   26SAPC  H11R 3454   3.953   3.807   7.319 -3.2032 -0.5290 -0.4974
   26SAPC  C212 3455   3.937   3.901   7.495 -0.3971 -0.2697 -1.1076
   26SAPC  H12R 3456   3.920   3.805   7.547 -0.3449  0.3833  0.1422
   26SAPC  C213 3457   3.944   4.012   7.596  0.3262  0.7168  0.6429
   26SAPC  H13R 3458   3.876   3.983   7.679  0.4461 -0.7893  0.2164
   26SAPC  H13S 3459   3.915   4.110   7.551  0.0441 -0.7413 -2.4341
   26SAPC  C214 3460   4.085   4.024   7.645  0.8197  0.7938  0.2179
   26SAPC  H14R 3461   4.161   3.995   7.572 -0.4856  1.1652 -1.3182
   26SAPC  C215 3462   4.122   4.063   7.773 -0.2323 -0.1952  0.6092
   26SAPC  H15R 3463   4.229   4.083   7.787 -0.4226 -0.7963  3.1006
   26SAPC  C216 3464   4.039   4.087   7.891 -0.1441  0.7860  1.0113
   26SAPC  H16R 3465   4.024   4.007   7.966 -2.3293  1.1643  0.9952
   26SAPC  H16S 3466   3.940   4.125   7.859  0.8113  1.2609 -1.4726
   26SAPC  C217 3467   4.109   4.190   7.982  0.4337 -0.4286 -0.4617
   26SAPC  H17R 3468   4.123   4.285   7.927 -2.2893 -0.4407 -1.2284
   26SAPC  H17S 3469   4.206   4.163   8.029 -1.4212 -2.5299  2.3326
   26SAPC  C218 3470   4.001   4.234   8.090 -0.2385  0.0154 -0.3578
   26SAPC  H18R 3471   3.949   4.144   8.129 -1.8129 -0.0743 -2.5184
   26SAPC  H18S 3472   3.929   4.303   8.041 -1.3030 -0.3775  0.6404
   26SAPC  C219 3473   4.073   4.323   8.200 -0.5846  0.0496 -0.3520
   26SAPC  H19R 3474   4.110   4.416   8.152 -1.0951  0.3974 -0.0712
   26SAPC  H19S 3475   4.165   4.279   8.244  1.2163  1.9041 -2.1879
   26SAPC  C220 3476   3.983   4.354   8.328  0.0447 -0.5724 -0.3344
   26SAPC  H20R 3477   4.030   4.436   8.387 -0.8640 -0.7462  0.6228
   26SAPC  H20S 3478   3.979   4.260   8.387 -0.3039 -0.9795 -0.9993
   26SAPC  H20T 3479   3.882   4.382   8.291 -0.1567 -0.0947  0.5488
   26SAPC   C33 3480   3.896   4.522   7.097 -0.1297  0.6781 -0.0917
   26SAPC   H3X 3481   3.785   4.516   7.093 -0.2688  3.0265 -0.5452
   26SAPC   H3Y 3482   3.916   4.629   7.120 -0.9669  0.5477  1.2852
   26SAPC   C34 3483   3.932   4.428   7.217 -0.2882  0.2162  0.1001
   26SAPC   H4X 3484   4.031   4.380   7.202 -0.0032  0.9958 -0.5496
   26SAPC   H4Y 3485   3.853   4.352   7.234  0.2104 -0.2669  0.2794
   26SAPC   C35 3486   3.940   4.512   7.348 -0.2702 -0.1637  0.0623
   26SAPC   H5X 3487   3.836   4.546   7.368  0.3737  2.4462 -0.7983
   26SAPC   H5Y 3488   4.004   4.604   7.349  1.2970 -1.2258 -0.1863
   26SAPC   C36 3489   3.982   4.434   7.476  0.8814  0.6717  0.4001
   26SAPC   H6X 3490   4.081   4.387   7.463  1.2814  1.7468 -0.5800
   26SAPC   H6Y 3491   3.901   4.360   7.495  1.3453  1.1170  4.6678
   26SAPC   C37 3492   3.978   4.517   7.602 -0.9843  0.0609 -0.9007
   26SAPC   H7X 3493   3.883   4.572   7.616 -0.4293  1.2915 -1.9077
   26SAPC   H7Y 3494   4.058   4.594   7.601 -1.7362  0.8673 -3.1834
   26SAPC   C38 3495   3.995   4.436   7.732 -0.3808  0.2766 -0.4910
   26SAPC   H8X 3496   4.081   4.366   7.722  1.7036  2.4967  1.3695
   26SAPC   H8Y 3497   3.906   4.376   7.761  0.3695  0.5905  2.7290
   26SAPC   C39 3498   4.035   4.528   7.850  0.0602 -0.2946  0.2151
   26SAPC   H9X 3499   4.118   4.597   7.826  0.4587 -0.4401  1.1771
   26SAPC   H9Y 3500   4.091   4.472   7.928  0.6512  1.2349  0.9109
   26SAPC  C310 3501   3.920   4.618   7.900  0.1556  0.1460  0.3408
   26SAPC  H10X 3502   3.823   4.564   7.907  0.7378 -0.9305  0.1925
   26SAPC  H10Y 3503   3.896   4.698   7.826 -0.1176  1.4570  1.8249
   26SAPC  C311 3504   3.952   4.686   8.031 -0.5846  0.1823 -0.3286
   26SAPC  H11X 3505   4.040   4.752   8.017 -1.9367  2.0204 -0.3037
   26SAPC  H11Y 3506   3.980   4.604   8.101 -3.2412 -0.2853  0.2293
   26SAPC  C312 3507   3.843   4.776   8.093  0.3834  0.5520 -0.1628
   26SAPC  H12X 3508   3.767   4.709   8.139  0.8919  0.0718 -0.0089
   26SAPC  H12Y 3509   3.793   4.836   8.014  0.8719  1.3512  0.1416
   26SAPC  C313 3510   3.879   4.863   8.212  0.1258  0.1251 -0.5818
   26SAPC  H13X 3511   3.793   4.926   8.244  0.9332  0.1873  1.5640
   26SAPC  H13Y 3512   3.955   4.939   8.181  2.6957 -1.7437  0.9166
   26SAPC  C314 3513   3.933   4.786   8.336  0.5382 -1.0900  0.6961
   26SAPC  H14X 3514   4.026   4.741   8.296  0.3009  0.5751 -1.8489
   26SAPC  H14Y 3515   3.869   4.700   8.362 -0.2159  0.3106  3.7654
   26SAPC  C315 3516   3.957   4.881   8.457  0.1092  0.0048 -0.3231
   26SAPC  H15X 3517   3.871   4.949   8.470  1.8763  2.0472  0.9670
   26SAPC  H15Y 3518   4.044   4.945   8.430 -0.4615  0.0443 -2.1722
   26SAPC  C316 3519   3.973   4.794   8.586  0.5217 -0.4775 -0.2782
   26SAPC  H16X 3520   3.897   4.712   8.586  1.8361 -1.7167 -0.1789
   26SAPC  H16Y 3521   3.944   4.855   8.675 -2.2956  0.1084 -1.5308
   26SAPC  C317 3522   4.119   4.757   8.616 -0.0162 -0.1407  0.1020
   26SAPC  H17X 3523   4.180   4.849   8.620 -1.1055  0.5608  0.9866
   26SAPC  H17Y 3524   4.142   4.711   8.517 -0.7388  1.6560 -0.9217
   26SAPC  C318 3525   4.134   4.666   8.739  0.3492  0.3531  0.3724
   26SAPC  H18X 3526   4.087   4.565   8.733  0.2789  0.4769 -1.3557
   26SAPC  H18Y 3527   4.115   4.719   8.834 -0.9673 -0.7665  0.7587
   26SAPC  H18Z 3528   4.239   4.633   8.753 -0.4657 -1.4715  2.5335
   27SAPC     N 3529   1.593   5.018   6.628  0.4863  0.3464  0.3929
   27SAPC   C12 3530   1.698   4.917   6.592  0.2014 -0.5019 -0.2419
   27SAPC  H12A 3531   1.770   4.955   6.521  1.6095  2.4346  2.6690
   27SAPC  H12B 3532   1.650   4.831   6.547 -1.3122  0.4015 -0.4040
   27SAPC   C13 3533   1.664   5.145   6.654 -1.1012 -0.2530  0.7944
   27SAPC  H13A 3534   1.730   5.118   6.736  0.0928  0.6633  0.1532
   27SAPC  H13B 3535   1.724   5.182   6.572  1.9186 -2.5915  1.8222
   27SAPC  H13C 3536   1.600   5.223   6.693  0.7991 -0.2738  4.2205
   27SAPC   C14 3537   1.498   5.036   6.515 -0.1182 -0.2228  0.3812
   27SAPC  H14A 3538   1.439   4.947   6.498 -2.1330  0.7777  1.9513
   27SAPC  H14B 3539   1.437   5.123   6.534  0.2103 -0.3643  2.2050
   27SAPC  H14C 3540   1.558   5.049   6.426 -0.9096 -0.3019 -0.1647
   27SAPC   C15 3541   1.524   4.965   6.749  0.0344 -0.3118  0.3533
   27SAPC  H15A 3542   1.481   4.868   6.729  0.4445  0.0623 -2.5360
   27SAPC  H15B 3543   1.585   4.941   6.835  2.7185 -0.2887 -1.4597
   27SAPC  H15C 3544   1.441   5.024   6.784  0.1599  0.2155 -0.2317
   27SAPC   C11 3545   1.798   4.866   6.700 -0.2911 -0.1736 -0.0030
   27SAPC  H11A 3546   1.853   4.789   6.642 -3.6056 -2.0179 -0.8211
   27SAPC  H11B 3547   1.753   4.801   6.778 -0.8753  0.1521 -0.0681
   27SAPC     P 3548   1.884   4.995   6.907  0.1451 -0.3306  0.0738
   27SAPC   O13 3549   1.965   5.116   6.929 -0.2029 -0.0565 -0.6585
   27SAPC   O14 3550   1.749   4.994   6.965  0.1795  0.0749  0.0533
   27SAPC   O12 3551   1.880   4.967   6.753 -0.2524  0.0081  0.0209
   27SAPC   O11 3552   1.960   4.873   6.960 -0.0110 -0.3782 -0.1662
   27SAPC    C1 3553   2.048   4.791   6.884 -0.6752 -0.2184  0.3574
   27SAPC    HA 3554   2.053   4.812   6.775  1.7412  1.0543  0.7012
   27SAPC    HB 3555   2.155   4.802   6.910 -0.6044 -1.2020  0.5033
   27SAPC    C2 3556   2.011   4.640   6.911  0.0418  0.1760  0.9809
   27SAPC    HS 3557   1.910   4.620   6.870  1.8486 -1.6523 -2.9536
   27SAPC   O21 3558   2.034   4.614   7.053  0.2060  0.0137 -0.0163
   27SAPC   C21 3559   1.928   4.627   7.124  0.6125 -0.5598  0.6484
   27SAPC   O22 3560   1.813   4.632   7.082  0.3234  0.2598 -0.4362
   27SAPC   C22 3561   1.981   4.657   7.261  0.1705 -0.2052  1.0241
   27SAPC   H2R 3562   2.024   4.559   7.290  2.7720 -0.2565 -2.5987
   27SAPC   H2S 3563   2.051   4.743   7.256 -0.0306 -0.1570 -2.0619
   27SAPC    C3 3564   2.112   4.556   6.815 -0.3624 -0.0119  0.3542
   27SAPC    HX 3565   2.218   4.577   6.838 -0.4491  0.2362  0.5363
   27SAPC    HY 3566   2.094   4.596   6.713  0.9489  1.6541  0.7563
   27SAPC   O31 3567   2.067   4.422   6.814 -0.4914  0.1162  0.0766
   27SAPC   C31 3568   2.139   4.324   6.866  0.2159  0.1980 -0.2034
   27SAPC   O32 3569   2.255   4.342   6.899 -0.5780 -0.1798 -0.2819
   27SAPC   C32 3570   2.049   4.199   6.888 -0.1150 -0.5386  0.0159
   27SAPC   H2X 3571   2.065   4.136   6.798 -1.5968 -1.8030  0.6327
   27SAPC   H2Y 3572   1.948   4.245   6.884 -0.5285 -1.5154 -0.8989
   27SAPC   C23 3573   1.872   4.685   7.370  0.5978 -0.0155  0.8237
   27SAPC   H3R 3574   1.788   4.615   7.350  0.2583  0.6668 -0.1996
   27SAPC   H3S 3575   1.838   4.786   7.339  1.5991 -0.1375 -0.7683
   27SAPC   C24 3576   1.914   4.663   7.513 -0.1367 -0.0827  0.1424
   27SAPC   H4R 3577   2.009   4.715   7.537 -2.0342  3.8955 -0.4504
   27SAPC   H4S 3578   1.928   4.553   7.523 -0.0190 -0.0570  0.2554
   27SAPC   C25 3579   1.809   4.724   7.611 -0.4660  0.2064  0.4088
   27SAPC   H5R 3580   1.766   4.819   7.576  0.9610  0.5361 -0.5169
   27SAPC   C26 3581   1.787   4.678   7.738  0.1899  0.0242  0.0156
   27SAPC   H6R 3582   1.710   4.724   7.802 -0.4582 -1.0130 -0.0083
   27SAPC   C27 3583   1.855   4.556   7.796  0.0717  0.7667  0.0411
   27SAPC   H7R 3584   1.962   4.585   7.800 -0.1733  1.6676  0.3975
   27SAPC   H7S 3585   1.852   4.467   7.730 -0.8680  1.3422 -0.7029
   27SAPC   C28 3586   1.806   4.525   7.933  0.1815 -0.3633  0.1074
   27SAPC   H8R 3587   1.750   4.431   7.946 -2.7737  1.1559 -1.0315
   27SAPC   C29 3588   1.833   4.595   8.041 -0.0333 -0.0283 -0.3623
   27SAPC   H9R 3589   1.783   4.569   8.135 -1.6181  0.2468 -1.1227
   27SAPC  C210 3590   1.915   4.717   8.060 -0.0052  0.4325 -0.4036
   27SAPC  H10R 3591   1.993   4.736   7.983 -0.2278  1.1636 -0.4518
   27SAPC  H10S 3592   1.967   4.697   8.156 -0.6947 -0.8875 -0.2948
   27SAPC  C211 3593   1.838   4.842   8.071  0.1088 -0.3381 -0.0465
   27SAPC  H11R 3594   1.803   4.870   7.971  1.7728  2.7198  0.1462
   27SAPC  C212 3595   1.821   4.919   8.183 -0.0826  0.2763 -1.0543
   27SAPC  H12R 3596   1.781   5.020   8.168 -0.1026  0.3632 -0.4296
   27SAPC  C213 3597   1.859   4.914   8.331 -0.2663 -0.1602  0.3396
   27SAPC  H13R 3598   1.916   4.999   8.374  2.2195 -0.2999 -2.4861
   27SAPC  H13S 3599   1.943   4.842   8.342 -1.3218 -1.4406  0.1805
   27SAPC  C214 3600   1.746   4.877   8.418 -0.1189  0.2312  0.7728
   27SAPC  H14R 3601   1.660   4.820   8.379 -0.7086  3.2637 -2.6840
   27SAPC  C215 3602   1.731   4.902   8.549 -0.0343  0.5498  0.7149
   27SAPC  H15R 3603   1.638   4.868   8.596 -0.5934 -2.2233 -2.2148
   27SAPC  C216 3604   1.832   4.976   8.642 -0.0406  0.7987  0.3972
   27SAPC  H16R 3605   1.781   5.033   8.723 -1.2416 -2.0009  1.6934
   27SAPC  H16S 3606   1.894   5.046   8.582 -1.0435 -0.6435 -2.4262
   27SAPC  C217 3607   1.936   4.888   8.712  0.5611 -0.4462 -0.4430
   27SAPC  H17R 3608   2.022   4.865   8.645  1.0871  2.7414 -0.9466
   27SAPC  H17S 3609   1.874   4.799   8.737  0.3478 -1.6707 -4.8244
   27SAPC  C218 3610   1.991   4.966   8.831  0.5392  0.7669 -0.0536
   27SAPC  H18R 3611   1.908   5.003   8.894  0.2519 -0.6039  0.3870
   27SAPC  H18S 3612   2.043   5.056   8.792  2.0020  0.6337  1.5037
   27SAPC  C219 3613   2.088   4.886   8.926  0.1513  0.4226  0.2180
   27SAPC  H19R 3614   2.119   4.946   9.015 -0.7910  0.1348  0.7460
   27SAPC  H19S 3615   2.186   4.869   8.876 -0.3643  1.7382 -1.2702
   27SAPC  C220 3616   2.044   4.744   8.981  0.6024 -0.7918 -0.0730
   27SAPC  H20R 3617   2.116   4.709   9.059  2.2421  0.8767 -0.7866
   27SAPC  H20S 3618   2.029   4.665   8.906  2.1826 -0.8129 -0.3846
   27SAPC  H20T 3619   1.946   4.764   9.029  0.4531  1.4782 -1.2449
   27SAPC   C33 3620   2.077   4.132   7.022  0.0167 -0.4221  0.8630
   27SAPC   H3X 3621   2.183   4.099   7.016 -0.1786 -0.6849 -1.7279
   27SAPC   H3Y 3622   2.026   4.034   7.038 -0.9752  0.0164  0.4404
   27SAPC   C34 3623   2.069   4.221   7.141 -0.0916 -0.7692  0.2325
   27SAPC   H4X 3624   1.971   4.272   7.136  0.2344 -0.1952 -0.3313
   27SAPC   H4Y 3625   2.154   4.292   7.134 -2.6438  2.4553  0.9402
   27SAPC   C35 3626   2.069   4.135   7.261  0.0898  0.6172 -0.2196
   27SAPC   H5X 3627   2.168   4.084   7.264  0.1231  0.6420 -0.9528
   27SAPC   H5Y 3628   1.983   4.065   7.265  0.1355  0.4217 -2.0594
   27SAPC   C36 3629   2.044   4.220   7.383 -0.1563  0.4592 -0.1878
   27SAPC   H6X 3630   1.942   4.264   7.371  1.1280  3.5826 -0.1843
   27SAPC   H6Y 3631   2.114   4.306   7.391  1.0280 -0.3997 -1.1891
   27SAPC   C37 3632   2.050   4.138   7.510  0.1241 -0.3460 -0.6207
   27SAPC   H7X 3633   2.153   4.098   7.522  0.0875 -0.8552 -1.9165
   27SAPC   H7Y 3634   1.975   4.057   7.497  1.4033 -1.4165 -1.4490
   27SAPC   C38 3635   2.015   4.220   7.632 -0.1112  0.0489 -0.4083
   27SAPC   H8X 3636   1.913   4.265   7.625  0.3538  1.3891  1.1138
   27SAPC   H8Y 3637   2.091   4.299   7.651 -1.7826  0.8391  3.6269
   27SAPC   C39 3638   2.023   4.124   7.753  0.2116 -1.1642 -0.2853
   27SAPC   H9X 3639   2.119   4.068   7.742  0.3247 -0.8093 -1.1460
   27SAPC   H9Y 3640   1.931   4.062   7.754 -1.1435  0.7806  2.0164
   27SAPC  C310 3641   2.028   4.182   7.899 -0.3885 -0.0997  0.3119
   27SAPC  H10X 3642   1.974   4.280   7.901 -3.8436 -1.9274  0.0336
   27SAPC  H10Y 3643   2.136   4.183   7.926 -0.1674 -2.9711 -0.3219
   27SAPC  C311 3644   1.963   4.100   8.004 -0.4546 -0.3915 -0.1292
   27SAPC  H11X 3645   1.981   3.992   7.986 -2.1257 -0.3532 -2.2316
   27SAPC  H11Y 3646   1.852   4.094   7.996 -0.5684  1.1166  0.2328
   27SAPC  C312 3647   2.003   4.155   8.142 -0.3896 -0.7234  0.4373
   27SAPC  H12X 3648   1.962   4.258   8.151  0.7620 -0.1772 -0.4250
   27SAPC  H12Y 3649   2.113   4.166   8.135 -0.5607 -0.0221 -1.8127
   27SAPC  C313 3650   1.971   4.069   8.265  0.1874  0.0389 -0.3170
   27SAPC  H13X 3651   2.040   3.983   8.254  1.9328  1.8046 -4.0101
   27SAPC  H13Y 3652   1.866   4.034   8.263  0.5800 -1.0449 -3.2739
   27SAPC  C314 3653   2.021   4.132   8.395 -0.3883  0.0964  0.2883
   27SAPC  H14X 3654   1.990   4.239   8.394 -1.1276 -0.1133  0.0293
   27SAPC  H14Y 3655   2.132   4.125   8.396 -0.4239 -0.6344 -0.4165
   27SAPC  C315 3656   1.970   4.061   8.528 -0.5642  0.6403 -0.5795
   27SAPC  H15X 3657   1.970   3.950   8.523 -1.6497  0.6388 -0.5879
   27SAPC  H15Y 3658   1.869   4.095   8.561 -0.1065  0.4722  1.0646
   27SAPC  C316 3659   2.065   4.081   8.645  0.3450  0.9021  0.0123
   27SAPC  H16X 3660   2.154   4.014   8.643  1.7177  2.4443  4.3332
   27SAPC  H16Y 3661   2.007   4.050   8.734  0.6405 -1.8726 -0.7257
   27SAPC  C317 3662   2.111   4.229   8.669 -0.9503 -0.3946 -0.3580
   27SAPC  H17X 3663   2.019   4.291   8.659 -0.8844 -0.1501  0.5512
   27SAPC  H17Y 3664   2.188   4.270   8.600 -1.7481  2.5605  0.4269
   27SAPC  C318 3665   2.167   4.244   8.803  0.0641  0.1441 -0.2065
   27SAPC  H18X 3666   2.182   4.351   8.829  0.1911 -0.0266  0.4344
   27SAPC  H18Y 3667   2.265   4.195   8.819  0.9801  1.3515 -1.9301
   27SAPC  H18Z 3668   2.088   4.203   8.869 -1.2570 -0.0502 -1.8697
   28SAPC     N 3669   0.271   0.370   6.276 -0.0678  0.5919  0.1108
   28SAPC   C12 3670   0.366   0.471   6.215  0.8559 -0.2896  0.7529
   28SAPC  H12A 3671   0.350   0.473   6.108 -0.0941  1.6685  0.9197
   28SAPC  H12B 3672   0.465   0.429   6.226  0.5155 -0.8771  1.5962
   28SAPC   C13 3673   0.268   0.386   6.423 -0.3780 -0.6856  0.1364
   28SAPC  H13A 3674   0.368   0.385   6.463  0.0846  0.7681 -0.9569
   28SAPC  H13B 3675   0.213   0.477   6.443 -0.6436 -0.7794 -0.1455
   28SAPC  H13C 3676   0.218   0.300   6.467  0.7180 -1.2939  0.1951
   28SAPC   C14 3677   0.136   0.385   6.218 -0.3579 -0.6771  0.1518
   28SAPC  H14A 3678   0.103   0.486   6.233  1.8028  0.5355 -2.6980
   28SAPC  H14B 3679   0.145   0.362   6.113 -1.8995 -1.3880  0.1673
   28SAPC  H14C 3680   0.063   0.327   6.272  0.0968 -0.5385  0.9194
   28SAPC   C15 3681   0.332   0.230   6.256 -0.3419 -0.3383  0.4106
   28SAPC  H15A 3682   0.347   0.218   6.150 -0.1614 -1.6746  0.5746
   28SAPC  H15B 3683   0.429   0.227   6.302 -0.5955 -2.6565  0.8596
   28SAPC  H15C 3684   0.261   0.151   6.278 -1.2443 -0.0427 -1.3481
   28SAPC   C11 3685   0.353   0.613   6.271 -0.4972 -0.6223  0.4158
   28SAPC  H11A 3686   0.251   0.656   6.260 -1.0266 -2.0225 -0.2502
   28SAPC  H11B 3687   0.419   0.671   6.203 -0.5316  0.0350  0.9366
   28SAPC     P 3688   0.463   0.761   6.462  0.1203 -0.1333  0.1088
   28SAPC   O13 3689   0.493   0.858   6.353  0.0550 -0.3930 -0.1127
   28SAPC   O14 3690   0.380   0.813   6.571  0.0562  0.6382 -0.2829
   28SAPC   O12 3691   0.397   0.627   6.405  0.2024  0.0259  0.5699
   28SAPC   O11 3692   0.606   0.716   6.519 -1.0086 -0.1764  0.8412
   28SAPC    C1 3693   0.625   0.581   6.562  0.4027 -0.5978 -0.2637
   28SAPC    HA 3694   0.543   0.516   6.523  1.9579 -2.5782 -0.3285
   28SAPC    HB 3695   0.721   0.541   6.523  0.0382 -0.8196 -0.9576
   28SAPC    C2 3696   0.625   0.567   6.722 -1.0842 -0.2657  0.4199
   28SAPC    HS 3697   0.638   0.460   6.746 -1.6679  0.2393  3.1651
   28SAPC   O21 3698   0.508   0.627   6.771 -0.1118 -0.5048  0.0178
   28SAPC   C21 3699   0.402   0.546   6.770  0.2429  0.9758 -0.6697
   28SAPC   O22 3700   0.406   0.433   6.720 -0.6063 -0.1318 -0.4990
   28SAPC   C22 3701   0.280   0.616   6.828  0.6646 -0.2871  0.3774
   28SAPC   H2R 3702   0.284   0.724   6.801  1.1887 -0.7174 -1.3262
   28SAPC   H2S 3703   0.186   0.563   6.801 -0.4797  2.2881 -0.8677
   28SAPC    C3 3704   0.753   0.628   6.787  0.2530  0.1882 -0.0674
   28SAPC    HX 3705   0.753   0.739   6.781  1.0022  0.3580  2.5494
   28SAPC    HY 3706   0.843   0.583   6.741 -0.9119 -1.3885 -0.8428
   28SAPC   O31 3707   0.753   0.594   6.927 -0.2278 -0.6828 -0.0715
   28SAPC   C31 3708   0.685   0.666   7.010 -0.0861  0.8486  0.2299
   28SAPC   O32 3709   0.637   0.781   6.991  0.6778  0.8828  0.6685
   28SAPC   C32 3710   0.692   0.590   7.143 -0.9973 -0.6280 -0.5289
   28SAPC   H2X 3711   0.796   0.582   7.182 -0.5408 -0.4618 -1.7173
   28SAPC   H2Y 3712   0.642   0.492   7.125 -1.0598 -0.3715 -1.7641
   28SAPC   C23 3713   0.290   0.624   6.981  0.4556  0.2233 -0.7114
   28SAPC   H3R 3714   0.238   0.720   7.004  1.2250  0.2699  0.8827
   28SAPC   H3S 3715   0.397   0.634   7.010 -0.1126  1.0998  1.1405
   28SAPC   C24 3716   0.233   0.496   7.046  0.7505  0.6027 -0.0986
   28SAPC   H4R 3717   0.278   0.407   6.995 -0.7322 -1.9944  2.9985
   28SAPC   H4S 3718   0.267   0.498   7.151  0.5502 -0.5782 -0.0043
   28SAPC   C25 3719   0.083   0.495   7.037 -0.1760 -0.1179 -0.2783
   28SAPC   H5R 3720   0.041   0.495   6.935 -1.6469 -1.4881  0.2984
   28SAPC   C26 3721  -0.002   0.509   7.139  0.2669  0.0270 -1.0069
   28SAPC   H6R 3722  -0.111   0.499   7.123  0.0649  0.3629  0.1294
   28SAPC   C27 3723   0.049   0.521   7.284  0.3993 -0.2819 -0.5240
   28SAPC   H7R 3724   0.128   0.448   7.313 -1.2772 -1.6231  0.7516
   28SAPC   H7S 3725  -0.036   0.491   7.348  0.4956 -0.4185 -0.4603
   28SAPC   C28 3726   0.120   0.647   7.316  0.3885 -0.1068 -0.2958
   28SAPC   H8R 3727   0.143   0.719   7.236  1.0329 -1.8797 -1.7116
   28SAPC   C29 3728   0.146   0.681   7.449 -0.3313 -0.0092 -0.3366
   28SAPC   H9R 3729   0.197   0.777   7.464  1.2595 -0.8990  0.2108
   28SAPC  C210 3730   0.130   0.593   7.571 -0.0580 -0.1114  0.8104
   28SAPC  H10R 3731   0.199   0.507   7.568 -0.9389 -0.7888 -0.5761
   28SAPC  H10S 3732   0.033   0.540   7.560 -1.0797  1.9951 -0.8251
   28SAPC  C211 3733   0.142   0.670   7.697 -0.5782 -0.6615  0.2240
   28SAPC  H11R 3734   0.186   0.771   7.693 -2.6565  0.2658  0.6769
   28SAPC  C212 3735   0.122   0.622   7.821  0.1022  0.1667  0.2037
   28SAPC  H12R 3736   0.151   0.686   7.906 -2.2178  4.1672 -1.8711
   28SAPC  C213 3737   0.080   0.485   7.876  0.2535  0.6744  0.2157
   28SAPC  H13R 3738   0.004   0.429   7.817 -0.9869  0.2882  2.1233
   28SAPC  H13S 3739   0.027   0.516   7.969  0.0748  1.5573 -0.1727
   28SAPC  C214 3740   0.205   0.404   7.897 -0.1262  0.4831  0.0807
   28SAPC  H14R 3741   0.240   0.356   7.804 -0.3607  0.2639  0.1055
   28SAPC  C215 3742   0.286   0.405   8.007 -0.2725 -0.4770  0.3671
   28SAPC  H15R 3743   0.386   0.359   8.006  0.6176  1.4486  0.1764
   28SAPC  C216 3744   0.254   0.471   8.138  0.3851 -0.0561  0.2728
   28SAPC  H16R 3745   0.151   0.513   8.131  0.6258  0.1977 -2.1322
   28SAPC  H16S 3746   0.326   0.553   8.157  1.4355 -0.8549 -0.1884
   28SAPC  C217 3747   0.251   0.373   8.260  0.0058  0.1326 -0.0898
   28SAPC  H17R 3748   0.350   0.324   8.266 -0.4938 -1.1125 -1.9087
   28SAPC  H17S 3749   0.175   0.294   8.243  1.2018 -0.8328 -0.9627
   28SAPC  C218 3750   0.235   0.455   8.389 -0.3050 -0.0420 -0.4443
   28SAPC  H18R 3751   0.151   0.528   8.377  0.7998  1.7388  2.3011
   28SAPC  H18S 3752   0.320   0.519   8.419 -1.1348  1.3676 -1.0469
   28SAPC  C219 3753   0.183   0.367   8.502  0.1781  0.4906  0.1043
   28SAPC  H19R 3754   0.098   0.302   8.470  0.9502 -1.4934  1.9630
   28SAPC  H19S 3755   0.146   0.436   8.581 -1.3951  1.3522 -1.3673
   28SAPC  C220 3756   0.299   0.286   8.571 -0.4094  0.6418  0.0368
   28SAPC  H20R 3757   0.387   0.348   8.599 -0.3730  1.1042 -1.0776
   28SAPC  H20S 3758   0.314   0.197   8.506  0.6618  2.9180 -2.9613
   28SAPC  H20T 3759   0.259   0.247   8.667  0.4515 -2.0119 -0.6489
   28SAPC   C33 3760   0.613   0.666   7.256 -0.0137 -0.1690  0.4812
   28SAPC   H3X 3761   0.512   0.682   7.212  0.0620 -0.0697  0.3458
   28SAPC   H3Y 3762   0.661   0.765   7.273 -1.7694  1.2292 -2.3437
   28SAPC   C34 3763   0.610   0.600   7.396  0.3240 -0.0363  0.4330
   28SAPC   H4X 3764   0.563   0.501   7.376  1.1353  0.0307 -1.9399
   28SAPC   H4Y 3765   0.541   0.654   7.464  0.5569 -0.0514  0.6807
   28SAPC   C35 3766   0.746   0.591   7.467  0.2051  1.0748  0.7109
   28SAPC   H5X 3767   0.771   0.699   7.469 -2.1559  1.6984 -1.0856
   28SAPC   H5Y 3768   0.817   0.519   7.422 -0.9984  0.6125 -0.4722
   28SAPC   C36 3769   0.721   0.548   7.613 -0.2368  0.1572  0.1572
   28SAPC   H6X 3770   0.679   0.445   7.611 -2.3360  0.9538  2.1242
   28SAPC   H6Y 3771   0.642   0.614   7.654 -1.0053 -1.1676  0.8275
   28SAPC   C37 3772   0.855   0.538   7.690  0.6245 -0.2650  0.1501
   28SAPC   H7X 3773   0.909   0.635   7.680  0.8552 -0.5649 -1.7470
   28SAPC   H7Y 3774   0.922   0.470   7.632  1.3339  1.6293 -1.3223
   28SAPC   C38 3775   0.825   0.499   7.836  0.7070 -0.4643  0.1694
   28SAPC   H8X 3776   0.768   0.406   7.854 -2.6590  1.7604  1.4723
   28SAPC   H8Y 3777   0.759   0.585   7.862  2.0311  0.7243 -0.3093
   28SAPC   C39 3778   0.951   0.496   7.927  0.3621  0.9602  0.3190
   28SAPC   H9X 3779   0.933   0.553   8.021  1.7399  0.7498  0.7262
   28SAPC   H9Y 3780   1.038   0.540   7.874 -0.1946 -0.0677 -1.4744
   28SAPC  C310 3781   0.980   0.348   7.972  0.7909 -0.0486  0.6810
   28SAPC  H10X 3782   1.008   0.284   7.885 -0.8856  1.2975 -0.8800
   28SAPC  H10Y 3783   0.888   0.303   8.016  0.6593 -1.0197 -0.5429
   28SAPC  C311 3784   1.099   0.343   8.071 -0.1036 -0.0081 -0.8956
   28SAPC  H11X 3785   1.077   0.425   8.143 -1.9789 -0.8465 -0.4863
   28SAPC  H11Y 3786   1.196   0.374   8.026  1.5476 -0.1539  2.3890
   28SAPC  C312 3787   1.126   0.207   8.151 -0.2044 -0.1926 -0.1126
   28SAPC  H12X 3788   1.030   0.172   8.193 -1.1637  1.5844 -0.7996
   28SAPC  H12Y 3789   1.189   0.233   8.239 -0.8771  0.7371  0.1023
   28SAPC  C313 3790   1.188   0.094   8.067 -0.8195  0.0828  0.4004
   28SAPC  H13X 3791   1.286   0.131   8.030 -0.1040 -0.4134  1.7595
   28SAPC  H13Y 3792   1.134   0.068   7.974 -2.4426 -0.8475  1.5589
   28SAPC  C314 3793   1.219  -0.032   8.151  0.0563  0.3890 -0.5689
   28SAPC  H14X 3794   1.248  -0.114   8.081  0.2594 -0.3965  0.4215
   28SAPC  H14Y 3795   1.123  -0.065   8.196  0.6874  1.7853  1.8642
   28SAPC  C315 3796   1.324  -0.014   8.260 -0.2965 -0.0740 -0.0736
   28SAPC  H15X 3797   1.281   0.052   8.339  0.5489  1.6898 -1.0711
   28SAPC  H15Y 3798   1.421   0.025   8.223  0.7233  0.1266  2.6807
   28SAPC  C316 3799   1.338  -0.146   8.340  0.5065  0.0793 -0.2622
   28SAPC  H16X 3800   1.365  -0.233   8.276  2.4206  1.6206 -1.6100
   28SAPC  H16Y 3801   1.246  -0.162   8.400  1.8781 -0.7196  1.6499
   28SAPC  C317 3802   1.448  -0.138   8.441 -0.8382 -0.1957  0.2626
   28SAPC  H17X 3803   1.537  -0.107   8.381 -1.1941  0.4915  0.0897
   28SAPC  H17Y 3804   1.469  -0.237   8.488  0.3916  0.6558  1.5633
   28SAPC  C318 3805   1.443  -0.046   8.559  0.0957  1.0541  0.3881
   28SAPC  H18X 3806   1.338  -0.037   8.595 -0.2083 -2.1825  0.4363
   28SAPC  H18Y 3807   1.480   0.053   8.525  1.7999  0.5414  0.6972
   28SAPC  H18Z 3808   1.511  -0.074   8.643 -1.4192 -0.7101  1.0526
   29SAPC     N 3809   2.843   4.896   6.596  0.4015 -0.7661  0.1654
   29SAPC   C12 3810   2.971   4.930   6.664  0.3331  0.0036  0.0890
   29SAPC  H12A 3811   3.049   4.930   6.589 -1.0120 -0.4986 -1.3430
   29SAPC  H12B 3812   3.008   4.849   6.724  2.5181  1.6014  0.9597
   29SAPC   C13 3813   2.753   4.848   6.702  0.3693 -0.2047  0.1684
   29SAPC  H13A 3814   2.660   4.808   6.666  0.3200  0.9728 -1.0789
   29SAPC  H13B 3815   2.795   4.774   6.768 -1.2850 -1.1996  0.1219
   29SAPC  H13C 3816   2.733   4.936   6.762 -1.5098 -1.5361  1.5509
   29SAPC   C14 3817   2.795   5.017   6.526 -0.4525 -0.4856 -0.1340
   29SAPC  H14A 3818   2.800   5.105   6.589 -0.1856  0.1053 -0.9660
   29SAPC  H14B 3819   2.854   5.038   6.438  0.2458  1.6545  0.8109
   29SAPC  H14C 3820   2.692   5.003   6.496  0.0161  0.6449 -2.3899
   29SAPC   C15 3821   2.862   4.775   6.503 -0.4915 -0.1851  0.3514
   29SAPC  H15A 3822   2.899   4.689   6.556  1.8886  0.1166 -0.7654
   29SAPC  H15B 3823   2.776   4.738   6.449  0.6075 -1.1618 -0.7566
   29SAPC  H15C 3824   2.933   4.799   6.426 -0.0908  1.5294  1.2184
   29SAPC   C11 3825   2.981   5.062   6.744 -0.7864  0.4667  0.7051
   29SAPC  H11A 3826   3.071   5.043   6.806 -0.2216 -0.9374 -0.5002
   29SAPC  H11B 3827   2.894   5.073   6.811 -0.9972  0.3479  0.4534
   29SAPC     P 3828   3.125   5.228   6.599  0.1471  0.1030  0.2663
   29SAPC   O13 3829   3.181   5.114   6.527 -0.4668 -0.4243  0.2551
   29SAPC   O14 3830   3.103   5.350   6.522 -0.6283  0.4804  0.7028
   29SAPC   O12 3831   2.988   5.176   6.655  0.4607 -0.4905 -0.2734
   29SAPC   O11 3832   3.203   5.256   6.730 -0.0836  0.7088  0.3050
   29SAPC    C1 3833   3.230   5.396   6.765  0.2951  1.2272 -0.1576
   29SAPC    HA 3834   3.290   5.447   6.687 -1.1927  1.6034 -1.0838
   29SAPC    HB 3835   3.142   5.461   6.788  0.2431  1.1656 -0.1843
   29SAPC    C2 3836   3.309   5.392   6.899  0.3122 -0.6785  0.3342
   29SAPC    HS 3837   3.321   5.496   6.935 -0.3074 -0.3308 -0.4410
   29SAPC   O21 3838   3.439   5.341   6.874 -0.3438  1.0436  0.0190
   29SAPC   C21 3839   3.535   5.373   6.951  0.0389 -0.0331 -0.3723
   29SAPC   O22 3840   3.522   5.434   7.055  0.6214  0.0726  0.2384
   29SAPC   C22 3841   3.666   5.330   6.896  0.2891 -0.0943  0.1353
   29SAPC   H2R 3842   3.668   5.229   6.850  0.4106 -1.7615  3.6551
   29SAPC   H2S 3843   3.690   5.400   6.813  0.6387  2.9987  2.7549
   29SAPC    C3 3844   3.225   5.309   6.999 -0.4126  0.5759  0.4203
   29SAPC    HX 3845   3.195   5.209   6.961  0.9814  0.1486  0.4205
   29SAPC    HY 3846   3.125   5.351   7.024 -0.3089  0.6209  0.7741
   29SAPC   O31 3847   3.294   5.288   7.129 -0.1637 -0.6875  0.1136
   29SAPC   C31 3848   3.288   5.388   7.216  0.4857 -0.1434 -0.2095
   29SAPC   O32 3849   3.234   5.492   7.192  0.1295  0.0790 -0.3814
   29SAPC   C32 3850   3.366   5.359   7.338 -0.3697 -0.2238 -1.0627
   29SAPC   H2X 3851   3.469   5.398   7.327  0.0823 -0.9928  0.3196
   29SAPC   H2Y 3852   3.384   5.249   7.345  1.7952  0.1226 -0.7810
   29SAPC   C23 3853   3.780   5.330   6.989 -0.5143 -0.1945  0.0463
   29SAPC   H3R 3854   3.784   5.426   7.046 -2.0209 -0.5117  0.6912
   29SAPC   H3S 3855   3.878   5.331   6.937 -0.3186 -1.0606  0.4001
   29SAPC   C24 3856   3.773   5.217   7.092 -0.8647 -0.8537  0.1074
   29SAPC   H4R 3857   3.769   5.116   7.047  2.6526 -1.1674  0.3481
   29SAPC   H4S 3858   3.675   5.231   7.142 -0.8366  1.8330 -0.4921
   29SAPC   C25 3859   3.898   5.217   7.184  0.1781 -0.0296  1.0121
   29SAPC   H5R 3860   3.988   5.176   7.136 -0.7452 -0.2535 -0.5570
   29SAPC   C26 3861   3.898   5.262   7.310  0.0211 -0.1404  0.4183
   29SAPC   H6R 3862   3.987   5.244   7.373 -0.0579  0.2793  0.6541
   29SAPC   C27 3863   3.784   5.336   7.385 -0.3353 -0.3245 -0.5246
   29SAPC   H7R 3864   3.729   5.254   7.434 -3.1636  0.5799 -2.0430
   29SAPC   H7S 3865   3.716   5.376   7.305  1.5455 -0.5398 -2.2666
   29SAPC   C28 3866   3.844   5.450   7.462  0.5276  0.2039  0.0686
   29SAPC   H8R 3867   3.915   5.510   7.403  2.5664 -1.5033  0.7070
   29SAPC   C29 3868   3.830   5.472   7.593 -1.3609  0.3669  1.1358
   29SAPC   H9R 3869   3.876   5.560   7.639  1.2056 -0.4561  0.2851
   29SAPC  C210 3870   3.750   5.377   7.682 -0.9288  0.1771 -0.6358
   29SAPC  H10R 3871   3.797   5.277   7.696 -1.0560  0.1071 -0.7050
   29SAPC  H10S 3872   3.652   5.359   7.634 -1.7710  0.6489  0.8956
   29SAPC  C211 3873   3.721   5.422   7.821 -0.4966  0.4878  0.0660
   29SAPC  H11R 3874   3.658   5.512   7.824  0.1269  0.9004  1.8587
   29SAPC  C212 3875   3.769   5.366   7.938 -0.0197  0.4132  0.3002
   29SAPC  H12R 3876   3.739   5.413   8.033 -1.5362  0.4992 -0.2096
   29SAPC  C213 3877   3.869   5.245   7.942  0.5946  0.1013 -1.5457
   29SAPC  H13R 3878   3.820   5.167   7.881  0.3787 -0.8984 -0.1248
   29SAPC  H13S 3879   3.875   5.193   8.040  1.0561 -2.0345 -2.6819
   29SAPC  C214 3880   4.004   5.277   7.883 -0.2922  0.0328  0.4235
   29SAPC  H14R 3881   3.997   5.356   7.807 -0.9566  1.1710  1.6460
   29SAPC  C215 3882   4.121   5.226   7.928  0.4594  0.2688  0.5135
   29SAPC  H15R 3883   4.214   5.271   7.889  0.0302  0.9395  0.2422
   29SAPC  C216 3884   4.148   5.131   8.044 -0.5974  0.1138 -0.0912
   29SAPC  H16R 3885   4.175   5.033   7.998 -2.3528 -0.4154 -0.0172
   29SAPC  H16S 3886   4.053   5.117   8.099 -0.7338  0.7505 -0.1651
   29SAPC  C217 3887   4.245   5.164   8.157 -0.1681 -0.0257 -0.0222
   29SAPC  H17R 3888   4.342   5.195   8.114 -1.0021 -0.7721 -2.5511
   29SAPC  H17S 3889   4.266   5.071   8.214  0.3016  1.1205  1.7031
   29SAPC  C218 3890   4.212   5.259   8.273 -0.6651  0.5634  0.1029
   29SAPC  H18R 3891   4.109   5.234   8.308 -0.5481 -1.9506 -1.2114
   29SAPC  H18S 3892   4.202   5.358   8.224 -2.4757  0.0611 -0.5972
   29SAPC  C219 3893   4.322   5.254   8.388  0.2586 -0.2530 -0.6196
   29SAPC  H19R 3894   4.331   5.154   8.435 -1.4995  0.5411  1.4670
   29SAPC  H19S 3895   4.277   5.319   8.466 -0.6492 -2.0237  0.3590
   29SAPC  C220 3896   4.454   5.311   8.342 -0.2360 -0.7393  0.2306
   29SAPC  H20R 3897   4.442   5.417   8.312 -2.3503 -0.5739  1.5076
   29SAPC  H20S 3898   4.484   5.252   8.253 -1.4328 -1.5890  0.3681
   29SAPC  H20T 3899   4.531   5.306   8.422 -1.4824  2.9879  1.8212
   29SAPC   C33 3900   3.300   5.412   7.473  0.1246 -0.9523 -0.1871
   29SAPC   H3X 3901   3.204   5.358   7.480 -0.0144 -0.5213  1.2194
   29SAPC   H3Y 3902   3.281   5.521   7.462 -0.3298 -1.1275 -1.2516
   29SAPC   C34 3903   3.385   5.381   7.596 -0.2503 -0.1494 -0.4684
   29SAPC   H4X 3904   3.469   5.454   7.604 -2.5871  2.5925 -0.0033
   29SAPC   H4Y 3905   3.433   5.281   7.591  0.1471 -0.0122  0.4148
   29SAPC   C35 3906   3.302   5.388   7.727 -0.5694 -0.0497  0.1359
   29SAPC   H5X 3907   3.217   5.317   7.718 -0.3268 -0.3430  0.1533
   29SAPC   H5Y 3908   3.260   5.491   7.734 -1.7501 -0.5283  0.2014
   29SAPC   C36 3909   3.376   5.356   7.856  0.8163 -0.2120 -0.0753
   29SAPC   H6X 3910   3.468   5.418   7.867 -0.3553  1.0593  3.1868
   29SAPC   H6Y 3911   3.402   5.249   7.836 -1.1342 -0.3756 -1.8383
   29SAPC   C37 3912   3.300   5.393   7.982  0.0479 -0.6521 -0.6519
   29SAPC   H7X 3913   3.192   5.393   7.956  0.1945 -0.2083 -1.2831
   29SAPC   H7Y 3914   3.332   5.497   8.002  1.4687 -0.9355 -1.3596
   29SAPC   C38 3915   3.333   5.297   8.103  0.1303  0.0683  0.5220
   29SAPC   H8X 3916   3.298   5.197   8.069  0.4333  0.7998 -1.9938
   29SAPC   H8Y 3917   3.278   5.324   8.197 -2.1400 -1.5894 -0.2697
   29SAPC   C39 3918   3.487   5.292   8.128 -0.1282  0.0621 -0.1444
   29SAPC   H9X 3919   3.525   5.394   8.103 -1.7626  0.5556 -0.6745
   29SAPC   H9Y 3920   3.533   5.219   8.058  0.3758  1.7321 -1.5905
   29SAPC  C310 3921   3.516   5.272   8.281 -0.5078 -0.0457  0.1876
   29SAPC  H10X 3922   3.486   5.171   8.317 -2.1365  0.8380  1.3750
   29SAPC  H10Y 3923   3.451   5.345   8.333  1.7852  2.7175 -0.7195
   29SAPC  C311 3924   3.667   5.310   8.325  0.0994  0.8105 -0.4427
   29SAPC  H11X 3925   3.665   5.417   8.354 -0.7384  0.8997 -0.7970
   29SAPC  H11Y 3926   3.729   5.292   8.235  0.2365 -0.8002 -0.0444
   29SAPC  C312 3927   3.724   5.223   8.440  0.5028  0.0516 -0.1494
   29SAPC  H12X 3928   3.831   5.251   8.446  1.1108 -2.6578  2.5654
   29SAPC  H12Y 3929   3.711   5.115   8.417 -1.1861  0.2913 -0.4140
   29SAPC  C313 3930   3.647   5.240   8.571  0.2257 -0.1812 -0.5143
   29SAPC  H13X 3931   3.546   5.194   8.572  0.0271  0.2470  0.7658
   29SAPC  H13Y 3932   3.636   5.348   8.596  1.4828 -0.3569  0.9311
   29SAPC  C314 3933   3.718   5.176   8.692  0.2414 -0.0003 -1.0373
   29SAPC  H14X 3934   3.827   5.201   8.697  0.3295 -0.0858 -2.3840
   29SAPC  H14Y 3935   3.705   5.067   8.674 -1.0998  0.2235 -1.4128
   29SAPC  C315 3936   3.659   5.209   8.831 -0.3785  0.8995 -0.5898
   29SAPC  H15X 3937   3.549   5.193   8.824 -0.5336 -0.2245  3.1963
   29SAPC  H15Y 3938   3.675   5.317   8.852 -3.1123  1.2936 -0.2981
   29SAPC  C316 3939   3.693   5.121   8.957 -0.0310 -1.2436  0.2502
   29SAPC  H16X 3940   3.652   5.021   8.930 -3.2511  0.1122 -0.1218
   29SAPC  H16Y 3941   3.642   5.158   9.049  1.8644  2.5275 -0.1357
   29SAPC  C317 3942   3.841   5.106   8.981  0.0410  0.3378 -0.5093
   29SAPC  H17X 3943   3.891   5.203   9.002 -1.0688  0.7059  0.4959
   29SAPC  H17Y 3944   3.877   5.052   8.891  0.4530  1.4056 -0.9881
   29SAPC  C318 3945   3.884   5.009   9.100  0.0968  0.1117 -0.3268
   29SAPC  H18X 3946   3.807   5.017   9.180 -1.0098  0.5844 -1.4320
   29SAPC  H18Y 3947   3.987   5.026   9.137 -0.3883  1.6829  0.3568
   29SAPC  H18Z 3948   3.882   4.906   9.059  0.6636  0.4962 -1.3280
   30SAPC     N 3949   4.432   4.510   5.749 -0.4145  0.1545  0.7551
   30SAPC   C12 3950   4.377   4.383   5.806 -0.5074 -0.4615 -0.5568
   30SAPC  H12A 3951   4.312   4.335   5.735 -0.7307  0.5717 -1.0536
   30SAPC  H12B 3952   4.308   4.413   5.884  0.5004  0.3092  0.0419
   30SAPC   C13 3953   4.329   4.600   5.694  0.0937  0.1734  0.3098
   30SAPC  H13A 3954   4.369   4.695   5.660  1.4834 -0.1646  0.9676
   30SAPC  H13B 3955   4.295   4.560   5.599  1.7872 -1.9399  0.5460
   30SAPC  H13C 3956   4.244   4.600   5.760 -0.0408  0.4505  0.1364
   30SAPC   C14 3957   4.522   4.585   5.845 -0.6366 -0.4774  0.0233
   30SAPC  H14A 3958   4.587   4.655   5.796 -2.0376  1.1101  0.3735
   30SAPC  H14B 3959   4.453   4.639   5.909  0.6743  2.0116 -0.5868
   30SAPC  H14C 3960   4.579   4.508   5.894  0.4921  1.2166  1.4187
   30SAPC   C15 3961   4.519   4.477   5.632  0.8505  0.2784  0.1220
   30SAPC  H15A 3962   4.543   4.572   5.584 -1.5693  0.5738 -0.5826
   30SAPC  H15B 3963   4.609   4.423   5.657  0.4989 -0.2283  0.2966
   30SAPC  H15C 3964   4.469   4.411   5.562  3.3247 -2.5961  0.9561
   30SAPC   C11 3965   4.477   4.302   5.894 -0.3885  0.5648 -0.0242
   30SAPC  H11A 3966   4.563   4.288   5.824 -0.0299 -0.3168  0.5901
   30SAPC  H11B 3967   4.441   4.201   5.924  1.8024 -0.0871  0.5517
   30SAPC     P 3968   4.420   4.394   6.136  0.0259 -0.2436 -0.2639
   30SAPC   O13 3969   4.306   4.477   6.100  0.0133 -0.1461 -0.6740
   30SAPC   O14 3970   4.388   4.252   6.179  1.3303  1.2695  0.6411
   30SAPC   O12 3971   4.521   4.374   6.011  0.0102 -0.1575  0.1993
   30SAPC   O11 3972   4.520   4.471   6.241 -0.4303  0.0853  0.5030
   30SAPC    C1 3973   4.590   4.583   6.199 -0.0249 -0.6481  0.2712
   30SAPC    HA 3974   4.653   4.553   6.113  1.6607 -0.0357  1.2753
   30SAPC    HB 3975   4.526   4.669   6.169  1.9175  0.6402 -0.2628
   30SAPC    C2 3976   4.686   4.640   6.312  0.2723 -0.0432 -1.3603
   30SAPC    HS 3977   4.724   4.742   6.289 -1.6894  0.8002 -0.9254
   30SAPC   O21 3978   4.790   4.541   6.346 -0.3006 -0.0660 -0.1830
   30SAPC   C21 3979   4.909   4.563   6.286  0.6946  0.0719 -1.0125
   30SAPC   O22 3980   4.925   4.655   6.209 -0.0173 -0.6093  0.0248
   30SAPC   C22 3981   5.004   4.456   6.337 -0.1767  0.7545 -0.0220
   30SAPC   H2R 3982   4.948   4.367   6.371  1.4957  0.1458  1.2259
   30SAPC   H2S 3983   5.070   4.418   6.255  0.3678 -0.0098  0.7570
   30SAPC    C3 3984   4.587   4.661   6.437  0.1499 -0.1403 -0.5934
   30SAPC    HX 3985   4.529   4.568   6.454 -0.6879  0.7118  1.3695
   30SAPC    HY 3986   4.508   4.735   6.411  1.6631  2.3439  1.6233
   30SAPC   O31 3987   4.653   4.681   6.564 -0.1451 -0.2013  0.2191
   30SAPC   C31 3988   4.723   4.787   6.584  0.5083  0.7129 -0.3140
   30SAPC   O32 3989   4.738   4.879   6.508 -0.4850  0.2450  1.0618
   30SAPC   C32 3990   4.794   4.779   6.719 -0.0298 -0.9356  0.7555
   30SAPC   H2X 3991   4.801   4.883   6.757 -0.4864 -0.1455 -1.2553
   30SAPC   H2Y 3992   4.902   4.757   6.705 -0.6984 -2.8695 -1.7889
   30SAPC   C23 3993   5.104   4.507   6.445 -0.5825  0.5599  0.1912
   30SAPC   H3R 3994   5.162   4.598   6.419 -1.7635  1.0343 -0.8348
   30SAPC   H3S 3995   5.172   4.420   6.458 -0.9726 -0.2012 -2.4451
   30SAPC   C24 3996   5.037   4.550   6.575 -0.2284  0.5244  0.3875
   30SAPC   H4R 3997   4.969   4.635   6.551 -4.0422 -1.6437  2.8126
   30SAPC   H4S 3998   5.113   4.584   6.649 -0.6098  0.2788  0.9020
   30SAPC   C25 3999   4.961   4.440   6.636 -0.5050  0.0473 -0.0813
   30SAPC   H5R 4000   4.867   4.425   6.581 -0.4420  1.7352 -0.6665
   30SAPC   C26 4001   5.000   4.357   6.740 -0.2031 -0.1031 -1.3647
   30SAPC   H6R 4002   4.928   4.281   6.775  1.1419 -0.2654  1.2203
   30SAPC   C27 4003   5.131   4.364   6.818 -0.1262 -0.1479 -0.4047
   30SAPC   H7R 4004   5.115   4.454   6.882  1.1504  0.9015 -1.5333
   30SAPC   H7S 4005   5.216   4.392   6.753 -0.5217  1.9527 -0.0475
   30SAPC   C28 4006   5.163   4.240   6.895 -0.1555  0.9663 -0.3248
   30SAPC   H8R 4007   5.194   4.154   6.834 -0.2546  1.8729 -1.6885
   30SAPC   C29 4008   5.163   4.232   7.031  0.3485 -0.2239 -0.0174
   30SAPC   H9R 4009   5.171   4.134   7.080  0.1732 -1.0728 -1.6388
   30SAPC  C210 4010   5.147   4.356   7.115  0.8373 -0.2988 -0.1816
   30SAPC  H10R 4011   5.210   4.440   7.079  2.1074 -1.1157  0.0997
   30SAPC  H10S 4012   5.190   4.320   7.211  0.3122 -0.1196  0.1210
   30SAPC  C211 4013   5.003   4.395   7.133  0.1030  0.3254 -0.2608
   30SAPC  H11R 4014   4.943   4.383   7.042 -0.5629 -1.6361  0.3974
   30SAPC  C212 4015   4.951   4.448   7.242 -0.4789 -0.1086  0.7581
   30SAPC  H12R 4016   4.846   4.481   7.233 -0.3704  0.6036  2.0170
   30SAPC  C213 4017   5.024   4.501   7.363  0.6266  0.0727  0.2975
   30SAPC  H13R 4018   4.973   4.593   7.398 -2.4274 -0.7357 -1.8729
   30SAPC  H13S 4019   5.122   4.530   7.319  0.4507 -1.6249 -1.2831
   30SAPC  C214 4020   5.049   4.399   7.474 -0.1723 -0.1138  0.4675
   30SAPC  H14R 4021   5.072   4.295   7.449 -2.0576 -0.4141 -0.1150
   30SAPC  C215 4022   5.016   4.414   7.602  0.5991  0.2420 -0.0356
   30SAPC  H15R 4023   5.052   4.338   7.673  1.9524 -0.6162 -1.5859
   30SAPC  C216 4024   4.942   4.532   7.670  0.0189 -0.0310 -0.5970
   30SAPC  H16R 4025   4.895   4.490   7.762 -0.6332  0.6469 -0.6164
   30SAPC  H16S 4026   4.853   4.567   7.613  1.2205  1.6789 -1.4656
   30SAPC  C217 4027   5.035   4.657   7.698  0.2497 -0.2193 -0.2858
   30SAPC  H17R 4028   4.969   4.744   7.719  0.5767  0.1362 -0.7582
   30SAPC  H17S 4029   5.090   4.681   7.605 -0.7611  4.4146  0.1945
   30SAPC  C218 4030   5.136   4.646   7.814  0.1028  0.6817 -0.2772
   30SAPC  H18R 4031   5.181   4.748   7.815  1.2432  0.1823  0.5163
   30SAPC  H18S 4032   5.216   4.573   7.791  0.0484 -0.0035  1.6359
   30SAPC  C219 4033   5.075   4.631   7.952  0.0359  0.2503 -0.4771
   30SAPC  H19R 4034   5.158   4.636   8.027 -2.8826 -1.0755  2.9589
   30SAPC  H19S 4035   5.020   4.536   7.967  2.7437 -1.1488  1.0196
   30SAPC  C220 4036   4.975   4.741   7.987 -0.2717 -0.5266 -0.6571
   30SAPC  H20R 4037   4.991   4.836   7.931 -1.7381 -0.9734 -1.8583
   30SAPC  H20S 4038   4.959   4.773   8.092 -0.4999 -1.2765 -0.4610
   30SAPC  H20T 4039   4.874   4.705   7.959 -1.5423  3.1795 -1.2031
   30SAPC   C33 4040   4.728   4.682   6.817  0.2499  0.8044  0.1346
   30SAPC   H3X 4041   4.728   4.581   6.771 -0.8751  0.7328  0.2975
   30SAPC   H3Y 4042   4.625   4.711   6.845 -0.7325 -2.9246  0.6620
   30SAPC   C34 4043   4.817   4.665   6.941  0.4777  0.1455  0.2217
   30SAPC   H4X 4044   4.911   4.614   6.912 -0.2233 -1.5348  0.8636
   30SAPC   H4Y 4045   4.763   4.601   7.014  2.7987 -0.3392  1.5773
   30SAPC   C35 4046   4.851   4.809   6.985  0.5538  0.6828  0.5190
   30SAPC   H5X 4047   4.753   4.862   6.978  0.4275  0.2905 -0.8039
   30SAPC   H5Y 4048   4.926   4.861   6.922  0.8423  1.8499  1.7935
   30SAPC   C36 4049   4.905   4.805   7.131 -0.1137  0.0725 -0.5490
   30SAPC   H6X 4050   5.012   4.776   7.132  0.1356  0.9538 -1.0188
   30SAPC   H6Y 4051   4.844   4.733   7.190 -0.4909  1.3930  0.6950
   30SAPC   C37 4052   4.908   4.940   7.204 -0.2552  0.5783 -0.3056
   30SAPC   H7X 4053   4.806   4.984   7.193 -0.0354  1.2448  0.3000
   30SAPC   H7Y 4054   4.980   5.014   7.163  0.4727 -0.8935 -1.7168
   30SAPC   C38 4055   4.953   4.923   7.354 -0.1978  0.7573 -0.6032
   30SAPC   H8X 4056   5.050   4.868   7.357  0.3912  1.7152 -1.4078
   30SAPC   H8Y 4057   4.882   4.863   7.414  0.7098  2.1498  1.9431
   30SAPC   C39 4058   4.951   5.058   7.425  0.0949  0.9991  0.0080
   30SAPC   H9X 4059   4.850   5.088   7.458  0.1881  1.4706 -0.1330
   30SAPC   H9Y 4060   4.992   5.137   7.358 -1.4175  1.8159  0.0382
   30SAPC  C310 4061   5.042   5.055   7.551  0.4976  0.4351  0.5479
   30SAPC  H10X 4062   5.137   5.042   7.494 -0.6447 -2.4762 -0.7980
   30SAPC  H10Y 4063   5.021   4.967   7.615 -0.8451  0.0203 -0.4466
   30SAPC  C311 4064   5.050   5.174   7.637 -0.6932  0.1341 -0.6578
   30SAPC  H11X 4065   5.050   5.264   7.573  1.7846  2.4444  2.4152
   30SAPC  H11Y 4066   5.146   5.168   7.693  0.3206 -1.4082 -2.5185
   30SAPC  C312 4067   4.938   5.177   7.737  0.4604 -0.4507 -0.8716
   30SAPC  H12X 4068   4.945   5.089   7.804  0.1090  0.4042  0.3175
   30SAPC  H12Y 4069   4.844   5.173   7.678 -1.2255  2.2288  1.4731
   30SAPC  C313 4070   4.930   5.305   7.835  0.1798 -0.4603  0.9370
   30SAPC  H13X 4071   4.839   5.363   7.809 -0.2234 -1.3025  0.4772
   30SAPC  H13Y 4072   5.016   5.374   7.820  0.8490 -1.9879 -2.5311
   30SAPC  C314 4073   4.900   5.272   7.985  0.1122 -0.2572 -0.0320
   30SAPC  H14X 4074   4.988   5.211   8.015  0.9824  0.4993 -1.0037
   30SAPC  H14Y 4075   4.810   5.208   7.977  1.1581 -1.4692 -2.6194
   30SAPC  C315 4076   4.883   5.392   8.074 -0.4497 -0.2696 -0.3554
   30SAPC  H15X 4077   4.823   5.468   8.020 -2.0537  1.3434  3.4904
   30SAPC  H15Y 4078   4.983   5.437   8.091 -0.9710  0.7744 -0.0473
   30SAPC  C316 4079   4.817   5.364   8.214 -0.1442  0.4796 -0.6255
   30SAPC  H16X 4080   4.719   5.312   8.208 -0.7391  1.3604  1.1180
   30SAPC  H16Y 4081   4.809   5.466   8.257  3.2064  0.7322 -0.5036
   30SAPC  C317 4082   4.904   5.290   8.316 -0.1059  0.3730 -0.6514
   30SAPC  H17X 4083   4.932   5.190   8.278 -0.7628  0.0653 -0.3401
   30SAPC  H17Y 4084   4.847   5.265   8.408  0.7576 -2.3777 -0.8307
   30SAPC  C318 4085   5.034   5.361   8.362  0.4347 -0.0434 -0.1481
   30SAPC  H18X 4086   5.112   5.361   8.283 -2.0790  1.4337 -2.7067
   30SAPC  H18Y 4087   5.068   5.316   8.458 -0.4350 -3.5819 -1.4331
   30SAPC  H18Z 4088   5.005   5.467   8.380  0.7862  0.1733 -0.8464
   31SAPC     N 4089   5.204   5.734   6.133  0.7518  0.9497  0.2194
   31SAPC   C12 4090   5.109   5.686   6.242  0.1074 -0.4394  0.2554
   31SAPC  H12A 4091   5.066   5.593   6.207  0.1621 -0.1091 -0.7031
   31SAPC  H12B 4092   5.024   5.753   6.248  0.0640 -0.5163  0.5036
   31SAPC   C13 4093   5.250   5.869   6.164 -0.0029  0.1085  0.3417
   31SAPC  H13A 4094   5.186   5.939   6.111 -0.8554 -0.7886  0.1562
   31SAPC  H13B 4095   5.254   5.900   6.267 -1.2976 -0.3376  0.5445
   31SAPC  H13C 4096   5.349   5.885   6.125  0.4724 -1.8516  0.6916
   31SAPC   C14 4097   5.327   5.643   6.145  0.3127 -0.2597 -0.0775
   31SAPC  H14A 4098   5.401   5.669   6.071  1.3866 -0.3457  0.9387
   31SAPC  H14B 4099   5.377   5.650   6.240  0.6758 -2.6887 -0.0408
   31SAPC  H14C 4100   5.293   5.543   6.120 -0.1452 -0.3718  0.9564
   31SAPC   C15 4101   5.143   5.737   5.998 -0.0051 -0.7313 -0.4394
   31SAPC  H15A 4102   5.205   5.786   5.924  0.6681 -0.4366  0.3226
   31SAPC  H15B 4103   5.114   5.636   5.970 -1.3674 -0.2359 -0.8809
   31SAPC  H15C 4104   5.054   5.797   6.006  0.2839 -0.4791  0.9864
   31SAPC   C11 4105   5.160   5.672   6.387 -0.4748 -0.5892  0.4082
   31SAPC  H11A 4106   5.071   5.668   6.453  0.2248  0.0694  1.4001
   31SAPC  H11B 4107   5.211   5.766   6.416 -1.9050  0.5355 -0.6558
   31SAPC     P 4108   5.211   5.420   6.455  0.0063  0.0555  0.0834
   31SAPC   O13 4109   5.066   5.396   6.445 -0.1548 -0.7364  0.8459
   31SAPC   O14 4110   5.308   5.318   6.394  0.2659  0.3170  0.2030
   31SAPC   O12 4111   5.246   5.557   6.400 -0.6260 -0.1127  0.0410
   31SAPC   O11 4112   5.250   5.431   6.615  0.0849 -0.4634 -0.1458
   31SAPC    C1 4113   5.326   5.544   6.660 -0.2732 -1.4473  0.6074
   31SAPC    HA 4114   5.292   5.643   6.623 -1.6109 -1.2728  2.2434
   31SAPC    HB 4115   5.312   5.558   6.769 -1.6037  0.5321  0.2088
   31SAPC    C2 4116   5.478   5.534   6.641  0.0498 -0.1237  0.2078
   31SAPC    HS 4117   5.493   5.513   6.533  0.3778  3.4405 -0.5159
   31SAPC   O21 4118   5.518   5.437   6.733  0.2157 -0.0270 -0.0510
   31SAPC   C21 4119   5.647   5.387   6.700  0.2359 -0.2839 -0.0831
   31SAPC   O22 4120   5.703   5.413   6.593 -0.3298 -0.1292  0.0083
   31SAPC   C22 4121   5.691   5.297   6.813 -0.8472  0.7882  0.1355
   31SAPC   H2R 4122   5.649   5.195   6.801 -0.5973 -0.0298  5.1489
   31SAPC   H2S 4123   5.802   5.288   6.811 -0.9247 -0.0129 -0.4505
   31SAPC    C3 4124   5.548   5.674   6.663 -0.0458  0.5815  0.9248
   31SAPC    HX 4125   5.501   5.742   6.588  0.6500  0.6214  0.5246
   31SAPC    HY 4126   5.655   5.670   6.637  0.0912 -1.4837  1.7560
   31SAPC   O31 4127   5.520   5.722   6.791 -0.1836 -0.0296 -0.2114
   31SAPC   C31 4128   5.617   5.712   6.880  0.1363  0.8582 -0.5567
   31SAPC   O32 4129   5.728   5.672   6.856  0.2704  0.7787 -0.5397
   31SAPC   C32 4130   5.571   5.767   7.022 -0.3603 -0.2579  0.3080
   31SAPC   H2X 4131   5.461   5.769   7.031 -0.4868 -1.1525 -0.8585
   31SAPC   H2Y 4132   5.622   5.865   7.038 -0.9952 -0.2625  2.4384
   31SAPC   C23 4133   5.664   5.354   6.956 -0.2767  0.7379  0.5508
   31SAPC   H3R 4134   5.553   5.362   6.964 -0.2759  3.3620 -1.2745
   31SAPC   H3S 4135   5.703   5.457   6.969 -0.2810  1.1828 -2.5899
   31SAPC   C24 4136   5.716   5.268   7.071 -0.3672 -0.6790  0.7244
   31SAPC   H4R 4137   5.690   5.164   7.043 -3.3202  0.1880  0.0514
   31SAPC   H4S 4138   5.668   5.295   7.167  1.5447  0.1854  1.4548
   31SAPC   C25 4139   5.860   5.265   7.085 -0.3406  0.1073 -0.2754
   31SAPC   H5R 4140   5.921   5.231   7.000  2.0078 -0.0798  1.4625
   31SAPC   C26 4141   5.922   5.288   7.199 -0.3155 -0.5444 -0.0615
   31SAPC   H6R 4142   6.030   5.269   7.213 -0.1381 -0.9853 -1.8858
   31SAPC   C27 4143   5.860   5.327   7.333 -0.3593  0.2881 -0.2369
   31SAPC   H7R 4144   5.799   5.241   7.367  0.2622 -1.0478 -2.4226
   31SAPC   H7S 4145   5.779   5.402   7.319 -1.3125 -1.0249 -1.9144
   31SAPC   C28 4146   5.957   5.386   7.427  0.3938  0.2535  0.8136
   31SAPC   H8R 4147   5.984   5.487   7.394 -2.6787  1.3524  1.4420
   31SAPC   C29 4148   6.010   5.340   7.544 -0.6497 -0.2290  0.4096
   31SAPC   H9R 4149   6.088   5.393   7.600  1.1634 -0.9755 -1.3470
   31SAPC  C210 4150   5.976   5.201   7.591 -0.2284  0.1655 -0.0389
   31SAPC  H10R 4151   6.052   5.178   7.669 -0.3351  0.4639  0.1558
   31SAPC  H10S 4152   5.988   5.118   7.519 -1.1667  1.0437 -1.2154
   31SAPC  C211 4153   5.837   5.213   7.647  0.2764 -1.0784 -0.1378
   31SAPC  H11R 4154   5.772   5.271   7.581 -2.3109 -3.0821  0.5574
   31SAPC  C212 4155   5.791   5.169   7.765 -0.4758 -0.5345 -0.7207
   31SAPC  H12R 4156   5.685   5.184   7.792 -0.0770 -1.4264  1.4233
   31SAPC  C213 4157   5.879   5.100   7.867  0.3654 -1.0753  0.1398
   31SAPC  H13R 4158   5.920   5.013   7.811 -1.2205  0.0548 -2.9317
   31SAPC  H13S 4159   5.809   5.053   7.939 -0.1318  1.1187  1.1189
   31SAPC  C214 4160   5.959   5.199   7.937  0.2531 -0.1866 -0.7584
   31SAPC  H14R 4161   5.971   5.294   7.882  1.5057  1.0790  1.6178
   31SAPC  C215 4162   6.021   5.191   8.059 -1.0303 -0.6107 -0.3390
   31SAPC  H15R 4163   6.069   5.282   8.099 -1.0629 -1.7086  2.2408
   31SAPC  C216 4164   6.010   5.066   8.151 -0.4316  0.1067  0.4232
   31SAPC  H16R 4165   6.098   5.054   8.217  0.2474  2.3905 -0.0353
   31SAPC  H16S 4166   5.991   4.977   8.086 -1.2654 -0.2079  1.0960
   31SAPC  C217 4167   5.881   5.081   8.240  0.2403  0.7733 -0.1181
   31SAPC  H17R 4168   5.795   5.083   8.170 -1.0926  1.0106  1.4654
   31SAPC  H17S 4169   5.880   5.170   8.307  1.3503  0.2366  0.6242
   31SAPC  C218 4170   5.844   4.962   8.332 -0.1745 -0.2635 -0.5545
   31SAPC  H18R 4171   5.933   4.956   8.399 -0.6300 -1.0966 -0.0129
   31SAPC  H18S 4172   5.828   4.877   8.263  1.8986 -2.1042  1.1775
   31SAPC  C219 4173   5.716   4.978   8.426 -0.4046 -0.2820  0.0045
   31SAPC  H19R 4174   5.742   5.050   8.507 -0.1792 -1.1269  0.6852
   31SAPC  H19S 4175   5.688   4.880   8.470 -1.5330 -0.5079 -1.1756
   31SAPC  C220 4176   5.589   5.028   8.350  0.0341  0.6311 -0.2186
   31SAPC  H20R 4177   5.592   5.139   8.339 -0.1497  0.6423 -0.1470
   31SAPC  H20S 4178   5.505   4.987   8.410  1.2205 -0.1718  0.9169
   31SAPC  H20T 4179   5.583   4.975   8.253  2.6738  0.2221 -0.1815
   31SAPC   C33 4180   5.635   5.681   7.133 -0.3934 -0.3455 -0.2708
   31SAPC   H3X 4181   5.745   5.667   7.124 -0.6443 -2.0062 -1.0499
   31SAPC   H3Y 4182   5.596   5.577   7.127 -0.6960 -0.2928  0.6633
   31SAPC   C34 4183   5.625   5.746   7.272  0.0718  0.3936 -0.8267
   31SAPC   H4X 4184   5.523   5.725   7.311  0.0306  0.3489 -0.9601
   31SAPC   H4Y 4185   5.651   5.854   7.274 -0.1951  0.4784  4.8646
   31SAPC   C35 4186   5.726   5.675   7.361  0.0327  0.6468  0.5570
   31SAPC   H5X 4187   5.823   5.676   7.306 -0.8676  3.6767 -1.0986
   31SAPC   H5Y 4188   5.686   5.572   7.360 -0.0445  0.6818 -0.9589
   31SAPC   C36 4189   5.725   5.726   7.497 -0.2626  0.2382  0.5158
   31SAPC   H6X 4190   5.729   5.837   7.504 -0.8457  0.3353 -0.5583
   31SAPC   H6Y 4191   5.814   5.680   7.545 -0.6966 -3.1318 -1.7139
   31SAPC   C37 4192   5.603   5.678   7.587 -0.5256  1.1963  0.5518
   31SAPC   H7X 4193   5.561   5.587   7.539  1.5531  0.5118 -0.0719
   31SAPC   H7Y 4194   5.535   5.766   7.583 -1.5155  0.4277  0.5909
   31SAPC   C38 4195   5.641   5.647   7.728 -1.0767  0.3790 -0.1592
   31SAPC   H8X 4196   5.723   5.573   7.743 -1.3722 -0.1529 -1.0763
   31SAPC   H8Y 4197   5.557   5.589   7.773 -1.5605  0.7360 -0.6001
   31SAPC   C39 4198   5.657   5.777   7.811  0.0495 -0.0985 -0.6408
   31SAPC   H9X 4199   5.549   5.805   7.816 -0.2596 -1.1376 -1.3801
   31SAPC   H9Y 4200   5.710   5.846   7.743 -0.4147  0.2370 -0.6652
   31SAPC  C310 4201   5.724   5.762   7.949 -0.3871 -0.0640  0.2804
   31SAPC  H10X 4202   5.686   5.677   8.010 -0.1754 -1.1257 -1.0516
   31SAPC  H10Y 4203   5.706   5.859   8.002 -2.9667 -0.0367 -0.6198
   31SAPC  C311 4204   5.873   5.726   7.946  0.0751  0.3239  0.8081
   31SAPC  H11X 4205   5.927   5.819   7.920  1.6565 -1.0951 -1.0907
   31SAPC  H11Y 4206   5.898   5.659   7.861 -3.0899 -0.3458  0.3209
   31SAPC  C312 4207   5.932   5.673   8.086 -0.4341  0.5347  0.1174
   31SAPC  H12X 4208   5.875   5.583   8.118 -0.9882  1.0193  0.5104
   31SAPC  H12Y 4209   5.913   5.750   8.164 -1.6540 -4.3035  4.9185
   31SAPC  C313 4210   6.072   5.621   8.063 -0.0571  0.5598  0.7678
   31SAPC  H13X 4211   6.132   5.712   8.039 -0.4629  0.5574 -0.2481
   31SAPC  H13Y 4212   6.084   5.542   7.987  0.5814 -0.4950  1.9436
   31SAPC  C314 4213   6.120   5.548   8.197 -0.1943  0.0709 -0.1807
   31SAPC  H14X 4214   6.048   5.470   8.232 -0.6013  0.2707 -0.5629
   31SAPC  H14Y 4215   6.135   5.622   8.279 -1.4472  0.8371 -0.6316
   31SAPC  C315 4216   6.250   5.476   8.179 -0.1096  0.7904 -0.0810
   31SAPC  H15X 4217   6.322   5.556   8.149  0.6046  0.1020 -0.2329
   31SAPC  H15Y 4218   6.254   5.400   8.099  0.0576 -0.0370  0.6985
   31SAPC  C316 4219   6.310   5.420   8.314  0.0238 -0.2806 -0.0619
   31SAPC  H16X 4220   6.333   5.505   8.381 -0.9194  1.0535 -1.3931
   31SAPC  H16Y 4221   6.408   5.373   8.291 -0.2264  0.5303 -2.8705
   31SAPC  C317 4222   6.224   5.311   8.391  0.3218  0.1112 -0.9090
   31SAPC  H17X 4223   6.192   5.235   8.317 -0.9278 -0.1898 -0.0637
   31SAPC  H17Y 4224   6.128   5.355   8.427  0.3922  0.4221 -1.0940
   31SAPC  C318 4225   6.295   5.236   8.504 -0.1487 -0.1066 -1.0032
   31SAPC  H18X 4226   6.369   5.173   8.451  0.0439 -0.7216 -0.0247
   31SAPC  H18Y 4227   6.226   5.171   8.563  0.2712 -0.5929 -1.0469
   31SAPC  H18Z 4228   6.344   5.304   8.577  0.0629 -1.8412  0.4990
   32SAPC     N 4229   0.906   6.616   5.931 -0.3429 -0.2130 -0.1620
   32SAPC   C12 4230   0.982   6.622   6.063  0.8635  0.0250 -0.4317
   32SAPC  H12A 4231   1.060   6.694   6.046  2.8734 -1.8584  0.5391
   32SAPC  H12B 4232   1.016   6.526   6.098 -1.2062 -0.3532  0.6692
   32SAPC   C13 4233   0.789   6.537   5.941  0.5275  0.6248  0.0260
   32SAPC  H13A 4234   0.816   6.433   5.932  0.9525  0.8102 -0.9001
   32SAPC  H13B 4235   0.738   6.553   6.035 -0.5787 -0.7561 -0.3194
   32SAPC  H13C 4236   0.722   6.539   5.856  2.1415  0.2916 -1.2783
   32SAPC   C14 4237   0.867   6.756   5.898 -0.2474  0.2595  0.6525
   32SAPC  H14A 4238   0.957   6.814   5.911  0.2142 -0.4361  0.5675
   32SAPC  H14B 4239   0.817   6.758   5.802  1.9039  0.9234 -0.4914
   32SAPC  H14C 4240   0.807   6.781   5.985 -0.8508  1.3171 -0.0532
   32SAPC   C15 4241   0.994   6.561   5.819  0.0554  0.6033  0.5461
   32SAPC  H15A 4242   1.008   6.454   5.822 -2.2275  0.2303 -0.7305
   32SAPC  H15B 4243   0.946   6.586   5.725  2.0408  0.6733 -0.4785
   32SAPC  H15C 4244   1.092   6.606   5.821  1.1731 -1.5958 -1.6900
   32SAPC   C11 4245   0.891   6.675   6.183 -0.6640 -0.0835 -0.8229
   32SAPC  H11A 4246   0.848   6.775   6.159 -0.2242 -0.1736 -1.9775
   32SAPC  H11B 4247   0.959   6.707   6.265 -0.4044  0.2351 -1.1643
   32SAPC     P 4248   0.843   6.462   6.329 -0.0721  0.1595  0.0334
   32SAPC   O13 4249   0.721   6.394   6.370 -0.6015  0.1010 -0.3831
   32SAPC   O14 4250   0.947   6.382   6.259  0.3578 -0.4447  0.2459
   32SAPC   O12 4251   0.802   6.583   6.240 -0.0855 -0.1453  0.4647
   32SAPC   O11 4252   0.905   6.535   6.452  0.1870 -0.5651  0.7491
   32SAPC    C1 4253   0.864   6.657   6.513  0.7661 -0.2414 -0.2722
   32SAPC    HA 4254   0.954   6.721   6.519  1.0040 -0.6412  0.6376
   32SAPC    HB 4255   0.792   6.711   6.448  0.1196 -1.2212 -0.3830
   32SAPC    C2 4256   0.804   6.637   6.658 -0.4627 -0.2918 -0.0887
   32SAPC    HS 4257   0.797   6.735   6.710 -1.3798 -2.2301  3.5717
   32SAPC   O21 4258   0.884   6.539   6.734  0.4468 -0.8487  0.3761
   32SAPC   C21 4259   0.990   6.587   6.786 -0.4743  0.3995  0.0150
   32SAPC   O22 4260   1.041   6.697   6.766  0.3371 -0.0360 -0.3968
   32SAPC   C22 4261   1.037   6.486   6.889  0.8187  0.0681 -0.1685
   32SAPC   H2R 4262   0.939   6.463   6.936  0.4316 -1.5558 -1.7633
   32SAPC   H2S 4263   1.099   6.399   6.859 -0.4586 -1.0539  0.4226
   32SAPC    C3 4264   0.665   6.584   6.655 -0.4989  0.5323  0.2704
   32SAPC    HX 4265   0.669   6.479   6.617  2.6492  0.8378 -0.3052
   32SAPC    HY 4266   0.600   6.636   6.581  2.1686  1.0549 -1.7871
   32SAPC   O31 4267   0.599   6.592   6.783  0.1218  1.0032 -0.2806
   32SAPC   C31 4268   0.616   6.485   6.867 -0.3241 -0.6518 -0.5472
   32SAPC   O32 4269   0.679   6.386   6.843 -0.5456 -0.2515  0.1394
   32SAPC   C32 4270   0.524   6.504   6.985 -0.3552 -0.4696 -0.2143
   32SAPC   H2X 4271   0.446   6.427   6.972 -1.1079 -0.3774  3.2150
   32SAPC   H2Y 4272   0.462   6.596   6.980  1.4741  0.7465 -1.0653
   32SAPC   C23 4273   1.134   6.549   6.993  0.0275 -0.1861 -0.3634
   32SAPC   H3R 4274   1.105   6.655   7.011  0.5746 -0.3540  1.6875
   32SAPC   H3S 4275   1.238   6.540   6.953 -0.0166  0.4709 -0.6271
   32SAPC   C24 4276   1.135   6.487   7.138  1.0083  0.6393 -0.0295
   32SAPC   H4R 4277   1.207   6.553   7.191 -0.8317  3.8760 -1.4469
   32SAPC   H4S 4278   1.178   6.385   7.122 -0.2597 -0.3568  2.5557
   32SAPC   C25 4279   0.997   6.472   7.205 -0.1152 -0.2892  0.2483
   32SAPC   H5R 4280   0.929   6.558   7.199  0.6035  0.3128  0.6691
   32SAPC   C26 4281   0.971   6.371   7.293  0.3259  0.2864  0.8306
   32SAPC   H6R 4282   0.876   6.372   7.350 -0.2877  1.9454 -0.2005
   32SAPC   C27 4283   1.063   6.258   7.334  0.6721 -0.1528  0.3192
   32SAPC   H7R 4284   1.118   6.211   7.249 -0.5009 -0.4174 -0.3087
   32SAPC   H7S 4285   0.989   6.184   7.370 -1.4570  1.6131 -0.3733
   32SAPC   C28 4286   1.169   6.304   7.427 -0.0063 -0.2042 -0.4338
   32SAPC   H8R 4287   1.216   6.402   7.408 -1.1065  0.6806  1.2663
   32SAPC   C29 4288   1.221   6.239   7.530 -0.2987  0.4905  0.1736
   32SAPC   H9R 4289   1.294   6.297   7.588  0.6115 -0.7411  0.2660
   32SAPC  C210 4290   1.189   6.103   7.590  0.6270 -0.1908 -0.6622
   32SAPC  H10R 4291   1.084   6.088   7.557 -0.5204  2.3820  1.6284
   32SAPC  H10S 4292   1.191   6.119   7.700 -0.2946 -2.8349 -0.2400
   32SAPC  C211 4293   1.270   5.991   7.536  0.4786  0.3024 -0.1706
   32SAPC  H11R 4294   1.316   6.003   7.437  1.4253  2.1776  0.4681
   32SAPC  C212 4295   1.307   5.887   7.611 -0.5680  0.1849 -0.2037
   32SAPC  H12R 4296   1.354   5.801   7.560  0.1490  1.2559 -1.3550
   32SAPC  C213 4297   1.280   5.868   7.757 -0.5774  0.0333 -0.0338
   32SAPC  H13R 4298   1.267   5.966   7.807 -0.2195 -0.2790  0.6881
   32SAPC  H13S 4299   1.372   5.826   7.804  0.2224  1.3043 -0.4418
   32SAPC  C214 4300   1.165   5.772   7.773 -1.0502 -0.1159 -0.2065
   32SAPC  H14R 4301   1.072   5.830   7.765 -2.4150 -2.3500 -1.0845
   32SAPC  C215 4302   1.157   5.638   7.795  0.3282  0.3970  0.2757
   32SAPC  H15R 4303   1.060   5.589   7.808 -0.0029  0.7568 -0.8198
   32SAPC  C216 4304   1.283   5.556   7.804  0.1768 -0.1857  0.2877
   32SAPC  H16R 4305   1.373   5.594   7.750  1.3166 -2.6745  0.3558
   32SAPC  H16S 4306   1.262   5.452   7.770  0.9666  0.2996 -1.7857
   32SAPC  C217 4307   1.325   5.541   7.949 -0.6117 -0.0763 -0.2457
   32SAPC  H17R 4308   1.341   5.642   7.990 -2.4886  0.9592 -1.9603
   32SAPC  H17S 4309   1.417   5.479   7.963 -0.2708  0.2820 -0.8777
   32SAPC  C218 4310   1.217   5.469   8.033 -0.6723 -0.1167 -0.1938
   32SAPC  H18R 4311   1.196   5.381   7.968 -1.0658 -1.8333  2.1798
   32SAPC  H18S 4312   1.145   5.554   8.036 -0.9517 -0.3712  0.3393
   32SAPC  C219 4313   1.286   5.424   8.168  0.0132 -0.7251 -0.1620
   32SAPC  H19R 4314   1.292   5.508   8.241 -1.1413 -0.1622 -0.6994
   32SAPC  H19S 4315   1.393   5.398   8.157 -0.1432 -1.5580  0.2639
   32SAPC  C220 4316   1.204   5.317   8.233  0.1488 -0.0276  0.7089
   32SAPC  H20R 4317   1.100   5.352   8.249 -0.3394  0.4308 -2.9888
   32SAPC  H20S 4318   1.228   5.292   8.339 -1.1295  0.4248  1.1182
   32SAPC  H20T 4319   1.205   5.223   8.173 -1.5975 -0.9493  2.0705
   32SAPC   C33 4320   0.593   6.466   7.114 -0.6129 -0.0078 -0.4824
   32SAPC   H3X 4321   0.683   6.404   7.097 -0.0750  0.5367  0.3700
   32SAPC   H3Y 4322   0.517   6.407   7.170 -1.0620 -0.7162 -1.8042
   32SAPC   C34 4323   0.624   6.582   7.205 -0.5369 -1.0601 -0.4589
   32SAPC   H4X 4324   0.549   6.660   7.182 -0.8603 -1.2478 -0.0379
   32SAPC   H4Y 4325   0.725   6.617   7.172 -0.1204 -0.6955  1.1640
   32SAPC   C35 4326   0.628   6.559   7.351  0.5800  0.4890 -0.1137
   32SAPC   H5X 4327   0.647   6.661   7.390 -0.4442  0.2721  0.9788
   32SAPC   H5Y 4328   0.716   6.496   7.377 -1.9529 -2.1763  2.4100
   32SAPC   C36 4329   0.494   6.524   7.415 -0.9784  0.6858 -0.0072
   32SAPC   H6X 4330   0.468   6.421   7.383  0.6556  0.7162 -1.5088
   32SAPC   H6Y 4331   0.413   6.590   7.376  0.5922  1.8330 -1.4044
   32SAPC   C37 4332   0.487   6.530   7.559  0.6453 -0.3522 -0.1041
   32SAPC   H7X 4333   0.392   6.489   7.600  0.7884  0.9029  1.5374
   32SAPC   H7Y 4334   0.492   6.632   7.603 -0.1272 -0.7823  1.0094
   32SAPC   C38 4335   0.597   6.449   7.627 -0.0516  0.5639 -0.8322
   32SAPC   H8X 4336   0.699   6.466   7.589 -0.2828  0.4263 -1.5135
   32SAPC   H8Y 4337   0.560   6.344   7.623  0.6072  0.3493 -1.2618
   32SAPC   C39 4338   0.596   6.478   7.782 -0.3146  0.1582  0.6988
   32SAPC   H9X 4339   0.502   6.428   7.815 -0.1680 -0.2948  0.4446
   32SAPC   H9Y 4340   0.581   6.584   7.811 -2.0586  0.1141  0.0414
   32SAPC  C310 4341   0.713   6.418   7.862 -0.0182  0.4583 -0.6475
   32SAPC  H10X 4342   0.811   6.462   7.835  0.4973  0.3254  0.9595
   32SAPC  H10Y 4343   0.725   6.311   7.835 -1.4711 -0.1969  1.2327
   32SAPC  C311 4344   0.689   6.424   8.014 -0.1936 -0.5657 -0.4939
   32SAPC  H11X 4345   0.591   6.373   8.024 -0.3688 -0.3221 -0.9533
   32SAPC  H11Y 4346   0.678   6.531   8.042  3.1016 -0.6343  1.3748
   32SAPC  C312 4347   0.804   6.350   8.095  0.0833 -0.3026 -0.0599
   32SAPC  H12X 4348   0.887   6.424   8.102  2.9239 -3.0574 -2.8503
   32SAPC  H12Y 4349   0.837   6.260   8.039  0.2907 -0.4423  0.2872
   32SAPC  C313 4350   0.760   6.323   8.243  0.2390 -0.4961  0.4825
   32SAPC  H13X 4351   0.707   6.415   8.276  1.6523  1.2050 -1.8173
   32SAPC  H13Y 4352   0.854   6.313   8.302  0.4705 -0.6449  0.0909
   32SAPC  C314 4353   0.671   6.203   8.259 -0.1704 -0.7596 -0.2272
   32SAPC  H14X 4354   0.732   6.122   8.213 -1.6410 -2.8190  1.3575
   32SAPC  H14Y 4355   0.582   6.210   8.192  0.2667  2.0781 -0.5739
   32SAPC  C315 4356   0.642   6.162   8.398 -0.7648  0.3108  0.3144
   32SAPC  H15X 4357   0.735   6.164   8.458  2.0031  0.1414 -3.8015
   32SAPC  H15Y 4358   0.612   6.055   8.389  2.4330 -0.5157 -0.9343
   32SAPC  C316 4359   0.526   6.242   8.463 -0.2823 -0.0555 -0.2009
   32SAPC  H16X 4360   0.570   6.340   8.494  0.2130 -0.4802  0.4561
   32SAPC  H16Y 4361   0.494   6.178   8.548  3.0347  0.4348  1.5453
   32SAPC  C317 4362   0.400   6.272   8.384  0.1941 -0.1270  0.2021
   32SAPC  H17X 4363   0.366   6.176   8.340  1.5985  0.4725 -2.2939
   32SAPC  H17Y 4364   0.432   6.341   8.303 -3.9525  1.7455  0.0404
   32SAPC  C318 4365   0.286   6.320   8.470  0.4694  0.4282  0.9930
   32SAPC  H18X 4366   0.226   6.237   8.514  0.8304  0.1079  0.8838
   32SAPC  H18Y 4367   0.213   6.387   8.421 -1.1640 -0.9280  1.5328
   32SAPC  H18Z 4368   0.327   6.381   8.554 -1.4769  1.5962  1.1238
   33POPC     N 4369   5.097   1.354  10.908  0.0118  0.3150 -0.2986
   33POPC   C12 4370   5.091   1.206  10.875  0.1149 -1.3641  0.2993
   33POPC  H12A 4371   4.988   1.176  10.872 -0.3419  0.1318  0.4011
   33POPC  H12B 4372   5.147   1.163  10.957  1.6309 -0.0255  0.0132
   33POPC   C13 4373   5.049   1.373  11.055  0.0652  0.0636  0.3904
   33POPC  H13A 4374   4.950   1.331  11.070  0.9531 -1.7138  1.3689
   33POPC  H13B 4375   5.110   1.314  11.121  0.0067  1.0313  1.3189
   33POPC  H13C 4376   5.059   1.478  11.076 -0.6969  0.6288 -1.8603
   33POPC   C14 4377   5.230   1.412  10.904 -0.2348  0.3537 -0.6305
   33POPC  H14A 4378   5.224   1.519  10.914 -0.8136  0.7477 -4.3624
   33POPC  H14B 4379   5.301   1.378  10.977 -1.5443  1.3003  1.1213
   33POPC  H14C 4380   5.274   1.397  10.806  0.1368 -0.1803 -0.3873
   33POPC   C15 4381   5.008   1.431  10.816 -0.9239  0.7623  1.2264
   33POPC  H15A 4382   5.021   1.538  10.824  1.0402  0.7067 -0.7277
   33POPC  H15B 4383   4.901   1.414  10.823 -1.3080  1.7892 -1.5232
   33POPC  H15C 4384   5.017   1.408  10.711 -0.4671 -2.2649  1.8633
   33POPC   C11 4385   5.165   1.170  10.741 -0.2234 -0.1978  0.6558
   33POPC  H11A 4386   5.147   1.061  10.726 -0.9484 -0.3876  2.6724
   33POPC  H11B 4387   5.272   1.199  10.748 -0.7522  1.6496  1.2980
   33POPC     P 4388   5.169   1.316  10.514 -0.3140  0.1430 -0.1170
   33POPC   O13 4389   5.293   1.390  10.550 -0.4391  0.3535  0.3738
   33POPC   O14 4390   5.065   1.409  10.458 -0.3846 -0.2112 -0.1909
   33POPC   O12 4391   5.102   1.237  10.633  0.5409  0.0851 -0.2215
   33POPC   O11 4392   5.210   1.217  10.404  0.1336 -0.2850 -0.3214
   33POPC    C1 4393   5.181   1.075  10.404 -0.2425 -0.5457  0.0405
   33POPC    HA 4394   5.274   1.013  10.400 -0.3137 -0.6446 -0.1114
   33POPC    HB 4395   5.128   1.044  10.496 -1.0066 -0.5880 -0.4112
   33POPC    C2 4396   5.085   1.041  10.287  0.6777 -0.1175  0.2552
   33POPC    HS 4397   5.039   0.942  10.309 -0.5386 -0.0352 -1.7436
   33POPC   O21 4398   5.169   1.050  10.165  0.7487 -0.4089  0.0505
   33POPC   C21 4399   5.131   0.980  10.062  0.1950 -0.2438 -0.4232
   33POPC   O22 4400   5.034   0.905  10.066  0.3682 -0.2499 -0.9407
   33POPC   C22 4401   5.225   1.002   9.938 -0.0876 -0.3323  0.2973
   33POPC   H2R 4402   5.309   1.061   9.980 -1.2129  0.3214  1.7139
   33POPC   H2S 4403   5.164   1.047   9.857 -0.4008 -1.4073 -0.0768
   33POPC    C3 4404   4.968   1.151  10.287  0.7767 -0.1084  0.7690
   33POPC    HX 4405   5.009   1.247  10.249  1.3182 -0.3427  0.7500
   33POPC    HY 4406   4.931   1.163  10.391 -0.9615  0.4056  0.1042
   33POPC   O31 4407   4.849   1.105  10.209  0.2045 -0.6325 -0.1117
   33POPC   C31 4408   4.826   1.162  10.094  0.0198 -0.1053 -0.1008
   33POPC   O32 4409   4.882   1.265  10.059  0.1749 -0.1928 -0.2618
   33POPC   C32 4410   4.714   1.084  10.024  0.2616  0.6105 -0.0912
   33POPC   H2X 4411   4.619   1.087  10.080 -1.0944  0.8484 -2.3229
   33POPC   H2Y 4412   4.739   0.977  10.009 -0.0571  0.4474  0.5385
   33POPC   C23 4413   5.288   0.881   9.878 -0.8498  0.0252 -0.6835
   33POPC   H3R 4414   5.210   0.808   9.849 -3.0561  1.1168  2.2988
   33POPC   H3S 4415   5.351   0.830   9.954 -1.9085 -0.9535 -0.4664
   33POPC   C24 4416   5.379   0.915   9.762  0.0492  0.0454 -0.2061
   33POPC   H4R 4417   5.444   1.001   9.788  0.4010 -0.4362  0.5028
   33POPC   H4S 4418   5.306   0.946   9.684 -0.8108  1.9298  1.3161
   33POPC   C25 4419   5.458   0.791   9.722  0.2380 -0.3975  0.1452
   33POPC   H5R 4420   5.397   0.703   9.692  0.2788 -0.7157  1.0051
   33POPC   H5S 4421   5.519   0.761   9.809 -0.9424 -1.8800  0.4707
   33POPC   C26 4422   5.568   0.820   9.617  0.1609 -0.2252 -0.2170
   33POPC   H6R 4423   5.617   0.723   9.593  4.5529  1.9440 -0.5712
   33POPC   H6S 4424   5.645   0.889   9.659 -0.1264 -0.5692  0.8825
   33POPC   C27 4425   5.522   0.889   9.483  0.3846 -0.2108  0.3626
   33POPC   H7R 4426   5.486   0.988   9.519 -0.7016  0.1980 -1.7444
   33POPC   H7S 4427   5.447   0.820   9.439 -0.1159  1.3143 -1.2023
   33POPC   C28 4428   5.635   0.904   9.380  0.4580  0.4622 -0.2405
   33POPC   H8R 4429   5.690   0.994   9.412 -0.5219  1.5532 -1.5904
   33POPC   H8S 4430   5.593   0.935   9.282  2.7045  0.0702 -1.3395
   33POPC   C29 4431   5.725   0.783   9.364 -0.4403 -0.6371 -0.5502
   33POPC   H91 4432   5.796   0.760   9.445 -0.9670 -2.3346 -0.5525
   33POPC  C210 4433   5.746   0.708   9.255  0.3054 -0.7154  0.2799
   33POPC  H101 4434   5.831   0.638   9.255  0.4100 -0.5917  0.9758
   33POPC  C211 4435   5.674   0.712   9.121  0.1787 -0.5735 -0.1314
   33POPC  H11R 4436   5.746   0.763   9.054  0.3158 -0.2391  0.2712
   33POPC  H11S 4437   5.576   0.764   9.115  1.2470  1.4513 -0.4173
   33POPC  C212 4438   5.634   0.572   9.071  0.0562 -0.1925  0.6399
   33POPC  H12R 4439   5.590   0.496   9.139 -0.6518 -0.4770 -0.1326
   33POPC  H12S 4440   5.718   0.518   9.022 -0.7479 -1.7346  0.9450
   33POPC  C213 4441   5.536   0.587   8.943  0.6980  0.1642  0.5896
   33POPC  H13R 4442   5.446   0.645   8.970  0.2222  1.3676 -3.2460
   33POPC  H13S 4443   5.503   0.482   8.922  1.0320 -0.0505  1.1470
   33POPC  C214 4444   5.596   0.647   8.823  0.1189 -0.2144  0.9810
   33POPC  H14R 4445   5.680   0.580   8.795 -1.2162 -0.8735 -1.6474
   33POPC  H14S 4446   5.631   0.750   8.843  2.0795 -0.8679  1.0122
   33POPC  C215 4447   5.504   0.652   8.702 -0.2156 -0.0581  0.4354
   33POPC  H15R 4448   5.552   0.699   8.614  0.8459 -1.4043  0.2638
   33POPC  H15S 4449   5.418   0.718   8.724 -0.6831 -0.7381  0.6908
   33POPC  C216 4450   5.447   0.519   8.653  0.0250 -0.7158  0.2593
   33POPC  H16R 4451   5.368   0.555   8.584  0.4551  0.7279  0.4903
   33POPC  H16S 4452   5.406   0.454   8.734  0.1134 -1.0474  0.0378
   33POPC  C217 4453   5.556   0.442   8.581  0.0981  0.0229 -0.2232
   33POPC  H17R 4454   5.521   0.339   8.560 -0.8589  0.2748  0.1086
   33POPC  H17S 4455   5.648   0.445   8.643  0.6613  0.1347 -1.0621
   33POPC  C218 4456   5.596   0.501   8.448  0.1364  0.1042 -0.9772
   33POPC  H18R 4457   5.518   0.546   8.384  1.7645  0.6758 -2.5835
   33POPC  H18S 4458   5.654   0.434   8.381 -0.4213  0.1999 -1.5530
   33POPC  H18T 4459   5.670   0.577   8.481  0.4172  0.2820 -2.0107
   33POPC   C33 4460   4.677   1.141   9.883  0.9942  0.3247 -0.2198
   33POPC   H3X 4461   4.661   1.250   9.896 -2.8925 -0.3292  0.9060
   33POPC   H3Y 4462   4.576   1.098   9.864  1.3303 -1.0253  0.9620
   33POPC   C34 4463   4.776   1.118   9.770 -0.0306 -0.2492  0.0705
   33POPC   H4X 4464   4.798   1.015   9.734 -2.3091  0.0585 -2.3691
   33POPC   H4Y 4465   4.873   1.166   9.795 -0.1273  0.5083 -0.9607
   33POPC   C35 4466   4.725   1.189   9.637  0.0760 -0.3807  0.0324
   33POPC   H5X 4467   4.714   1.296   9.663 -0.4554 -0.9360  2.2665
   33POPC   H5Y 4468   4.632   1.149   9.591  0.9142  0.7958 -2.7886
   33POPC   C36 4469   4.835   1.183   9.535  0.9211 -0.2820 -0.7202
   33POPC   H6X 4470   4.844   1.076   9.509 -0.5002 -0.8162  0.8740
   33POPC   H6Y 4471   4.932   1.215   9.577  0.3858  0.1698  0.1976
   33POPC   C37 4472   4.799   1.261   9.408  0.2185  0.0089  0.4553
   33POPC   H7X 4473   4.794   1.371   9.426 -0.0315 -0.3027  2.3879
   33POPC   H7Y 4474   4.698   1.228   9.377  0.6154  1.1072 -2.1493
   33POPC   C38 4475   4.896   1.224   9.298  0.6294 -0.7055  1.0053
   33POPC   H8X 4476   4.880   1.116   9.276 -3.3005  0.1173 -0.5130
   33POPC   H8Y 4477   5.000   1.234   9.336  1.7745  0.7892 -2.3694
   33POPC   C39 4478   4.894   1.318   9.177  0.2841 -0.2250 -0.5179
   33POPC   H9X 4479   4.944   1.407   9.221 -0.4723 -1.2537  2.5489
   33POPC   H9Y 4480   4.788   1.349   9.165  1.0460  2.4647 -0.6299
   33POPC  C310 4481   4.962   1.265   9.050  0.1660 -1.1231  0.4611
   33POPC  H10X 4482   4.905   1.173   9.025 -1.3681  0.3007 -1.3976
   33POPC  H10Y 4483   5.064   1.228   9.073  1.0655  1.4842  0.7911
   33POPC  C311 4484   4.956   1.359   8.937  0.3823  0.2208 -0.2256
   33POPC  H11X 4485   5.002   1.456   8.967 -2.8266  1.2181  1.7070
   33POPC  H11Y 4486   4.848   1.374   8.914 -0.7483 -1.9688  3.1811
   33POPC  C312 4487   5.017   1.291   8.806 -0.0067  0.3684 -0.1296
   33POPC  H12X 4488   5.014   1.183   8.835 -0.9841  0.3127 -0.4284
   33POPC  H12Y 4489   5.120   1.332   8.799 -0.7122  1.9081 -1.6867
   33POPC  C313 4490   4.938   1.316   8.682  0.1292 -0.0233 -0.0491
   33POPC  H13X 4491   4.929   1.423   8.653 -1.3969  0.0172  0.5324
   33POPC  H13Y 4492   4.839   1.276   8.712 -1.0219  2.6011 -0.1863
   33POPC  C314 4493   4.989   1.240   8.567  0.3135  0.1615  0.2088
   33POPC  H14X 4494   4.917   1.252   8.484  2.9449  3.1885 -1.7600
   33POPC  H14Y 4495   5.009   1.132   8.584  0.9053  0.2855  0.3223
   33POPC  C315 4496   5.123   1.299   8.522  0.5646 -0.0898  0.4129
   33POPC  H15X 4497   5.212   1.277   8.584  0.5916  1.1971  0.8518
   33POPC  H15Y 4498   5.108   1.409   8.524  1.0584 -0.0120  0.0883
   33POPC  C316 4499   5.149   1.277   8.369 -0.6135  0.4883 -0.1675
   33POPC  H16X 4500   5.194   1.178   8.349  1.6292  1.2202  0.9583
   33POPC  H16Y 4501   5.224   1.352   8.334  1.9820 -1.5490  0.8071
   33POPC  H16Z 4502   5.056   1.282   8.309 -0.7747  0.6020  0.0869
   34POPC     N 4503   4.895   2.148  10.538 -0.0012 -0.1196  0.2788
   34POPC   C12 4504   4.770   2.065  10.514 -0.3017 -0.4740  0.3755
   34POPC  H12A 4505   4.784   1.960  10.537 -1.8079 -0.9268 -0.7117
   34POPC  H12B 4506   4.758   2.062  10.406  2.5844 -1.3139  0.0372
   34POPC   C13 4507   4.927   2.185  10.679  0.7239  1.1173  0.1014
   34POPC  H13A 4508   5.017   2.245  10.685  1.4623  0.0208  0.1682
   34POPC  H13B 4509   4.846   2.242  10.721  0.6129  0.8698  0.2263
   34POPC  H13C 4510   4.940   2.100  10.745 -2.1523  0.2429 -0.4033
   34POPC   C14 4511   5.023   2.088  10.473  0.2382  0.3441 -0.8385
   34POPC  H14A 4512   5.055   1.992  10.511 -0.4470  0.4931  0.1549
   34POPC  H14B 4513   4.994   2.064  10.372  0.2199 -0.1197 -0.7226
   34POPC  H14C 4514   5.108   2.154  10.471  2.1579 -2.0456 -1.1624
   34POPC   C15 4515   4.883   2.282  10.462  0.0987 -0.4684 -0.4237
   34POPC  H15A 4516   4.878   2.276  10.354 -1.3702  1.3683 -0.4843
   34POPC  H15B 4517   4.968   2.345  10.483 -0.6817  0.7643 -0.8516
   34POPC  H15C 4518   4.792   2.323  10.503 -0.5989 -2.4540  0.0534
   34POPC   C11 4519   4.643   2.113  10.586  0.5758 -0.4177  0.5575
   34POPC  H11A 4520   4.566   2.083  10.512 -2.0316  1.7253  2.2738
   34POPC  H11B 4521   4.637   2.224  10.598  1.2390 -0.2994 -0.1682
   34POPC     P 4522   4.585   1.922  10.739 -0.4309  0.0911 -0.1350
   34POPC   O13 4523   4.561   1.899  10.879  0.2633 -0.6814 -0.2069
   34POPC   O14 4524   4.693   1.836  10.677  0.3506  0.3346  0.1203
   34POPC   O12 4525   4.617   2.076  10.715  0.3403 -0.6474 -0.4247
   34POPC   O11 4526   4.459   1.896  10.660  0.2163  0.0854  0.0531
   34POPC    C1 4527   4.420   1.768  10.604 -0.2993 -0.7522 -0.0431
   34POPC    HA 4528   4.364   1.704  10.675  1.1801  0.5344  2.3439
   34POPC    HB 4529   4.507   1.709  10.567 -0.0656  0.2079 -1.0381
   34POPC    C2 4530   4.320   1.775  10.481  0.4792  0.6989  0.0374
   34POPC    HS 4531   4.314   1.673  10.438  0.7488  0.6554  0.1011
   34POPC   O21 4532   4.359   1.869  10.386  0.8102  0.0912  0.0225
   34POPC   C21 4533   4.457   1.825  10.302  0.2568  0.8218  0.9778
   34POPC   O22 4534   4.507   1.711  10.300 -0.4545 -1.0336 -0.3428
   34POPC   C22 4535   4.509   1.948  10.221  0.1761  0.0610 -0.3523
   34POPC   H2R 4536   4.596   1.923  10.156 -1.0174 -1.5495 -1.3529
   34POPC   H2S 4537   4.537   2.032  10.288 -0.2920 -0.3208  0.3203
   34POPC    C3 4538   4.185   1.822  10.531  0.2339  0.4812 -0.3472
   34POPC    HX 4539   4.191   1.917  10.588 -0.0045 -0.1458  0.7379
   34POPC    HY 4540   4.149   1.750  10.607  3.7768  0.2129  1.1742
   34POPC   O31 4541   4.085   1.827  10.427 -0.1188  0.2694  0.0502
   34POPC   C31 4542   4.059   1.941  10.361  0.8414  0.1658 -0.7084
   34POPC   O32 4543   4.110   2.052  10.385  0.4987 -0.1723  0.3637
   34POPC   C32 4544   3.931   1.922  10.285 -0.2078  0.4433  0.3215
   34POPC   H2X 4545   3.843   1.928  10.352  1.1503 -1.0163  2.3074
   34POPC   H2Y 4546   3.934   1.821  10.238 -0.3950 -0.1398  1.5494
   34POPC   C23 4547   4.384   2.008  10.143  0.1778 -0.3809  0.0290
   34POPC   H3R 4548   4.426   2.104  10.106 -1.4922 -0.6363 -2.6496
   34POPC   H3S 4549   4.306   2.047  10.213 -1.1003  1.1900 -2.1896
   34POPC   C24 4550   4.315   1.923  10.042  0.5479  0.8568 -0.5687
   34POPC   H4R 4551   4.221   1.978  10.023 -1.7332 -1.7838  2.6550
   34POPC   H4S 4552   4.293   1.821  10.080 -0.7866  0.6263 -1.9149
   34POPC   C25 4553   4.400   1.915   9.913  1.5638 -0.3400  0.3720
   34POPC   H5R 4554   4.474   1.832   9.909  0.9283 -0.9653  1.3772
   34POPC   H5S 4555   4.468   2.003   9.913  0.9070  0.1775  0.8803
   34POPC   C26 4556   4.311   1.920   9.786 -1.0346  1.2426 -0.4160
   34POPC   H6R 4557   4.389   1.938   9.710  0.5073 -1.9181  0.3338
   34POPC   H6S 4558   4.263   2.018   9.763 -0.0784  1.4101 -1.7322
   34POPC   C27 4559   4.221   1.798   9.765  0.1902  0.3496  0.0368
   34POPC   H7R 4560   4.152   1.783   9.850  1.0453 -0.1709  0.6431
   34POPC   H7S 4561   4.291   1.712   9.765 -0.3972 -0.1433 -1.0358
   34POPC   C28 4562   4.151   1.794   9.632  0.2041 -0.1460 -0.3922
   34POPC   H8R 4563   4.091   1.887   9.624 -1.4094 -0.6570  4.3473
   34POPC   H8S 4564   4.074   1.715   9.623  0.1756 -0.2064  0.3802
   34POPC   C29 4565   4.240   1.786   9.516 -0.2351  0.1929 -0.5741
   34POPC   H91 4566   4.345   1.814   9.538 -0.3691  1.5953 -1.6258
   34POPC  C210 4567   4.213   1.754   9.386  0.4714  0.1265 -0.5380
   34POPC  H101 4568   4.293   1.746   9.312  1.0135  1.0148 -0.0553
   34POPC  C211 4569   4.071   1.720   9.337 -0.2428  0.1639 -0.9703
   34POPC  H11R 4570   4.000   1.769   9.407  0.1635 -1.1111  0.3379
   34POPC  H11S 4571   4.052   1.612   9.356  2.1899  0.1037  1.4597
   34POPC  C212 4572   4.054   1.762   9.193  0.3981 -1.1801 -0.0878
   34POPC  H12R 4573   4.080   1.868   9.171 -0.9291 -1.2822 -2.2981
   34POPC  H12S 4574   3.947   1.746   9.169 -0.1465  2.4096 -0.3594
   34POPC  C213 4575   4.135   1.677   9.099 -0.3704  1.2595 -0.1348
   34POPC  H13R 4576   4.134   1.573   9.138  1.5115  1.3036  0.0647
   34POPC  H13S 4577   4.239   1.715   9.091 -0.6214  2.2348  1.1238
   34POPC  C214 4578   4.068   1.684   8.961  0.3803  0.2367 -0.4680
   34POPC  H14R 4579   3.959   1.703   8.977 -0.0928 -2.4577 -0.3041
   34POPC  H14S 4580   4.082   1.579   8.930  0.4412 -0.0031  0.3553
   34POPC  C215 4581   4.119   1.781   8.855 -0.3969  0.3044  0.0582
   34POPC  H15R 4582   4.230   1.777   8.856 -0.2770  2.6073  2.1113
   34POPC  H15S 4583   4.100   1.886   8.886 -3.4451 -0.1437 -0.2211
   34POPC  C216 4584   4.058   1.760   8.719  0.0976  0.3208 -0.0618
   34POPC  H16R 4585   4.062   1.847   8.649 -3.0150 -1.3731 -2.4566
   34POPC  H16S 4586   3.953   1.745   8.751  0.9187 -1.8732  1.6966
   34POPC  C217 4587   4.097   1.627   8.657  0.0642  0.1614  0.1415
   34POPC  H17R 4588   4.087   1.547   8.734 -2.5604 -1.1758 -1.5217
   34POPC  H17S 4589   4.205   1.627   8.630 -0.2109 -1.1414 -1.0016
   34POPC  C218 4590   4.008   1.595   8.535 -0.0229 -1.2131  1.2450
   34POPC  H18R 4591   3.900   1.609   8.554 -0.1322 -0.0044 -0.2097
   34POPC  H18S 4592   4.028   1.490   8.504  2.3135 -0.9057  1.6007
   34POPC  H18T 4593   4.032   1.656   8.445 -0.6266 -0.7145  1.4302
   34POPC   C33 4594   3.909   2.032  10.181  0.2047  0.1693  0.0711
   34POPC   H3X 4595   4.008   2.060  10.141  0.3403 -1.5110 -0.7832
   34POPC   H3Y 4596   3.863   2.120  10.231 -2.8090 -0.1970 -1.9134
   34POPC   C34 4597   3.822   1.993  10.065  1.0639 -0.3435  0.2913
   34POPC   H4X 4598   3.781   2.084  10.016  0.0195 -0.1801  1.4439
   34POPC   H4Y 4599   3.735   1.935  10.104  0.2310 -0.7148 -2.0564
   34POPC   C35 4600   3.896   1.902   9.968 -0.4185 -0.7744 -0.5797
   34POPC   H5X 4601   3.902   1.801  10.014  2.3160  0.3966  1.7886
   34POPC   H5Y 4602   3.996   1.949   9.954  0.2878 -1.6594  1.3508
   34POPC   C36 4603   3.833   1.888   9.830 -0.1825  0.1287  0.4028
   34POPC   H6X 4604   3.729   1.846   9.828  0.5105 -1.6082 -1.1769
   34POPC   H6Y 4605   3.886   1.811   9.770  0.2960 -0.5051  1.6347
   34POPC   C37 4606   3.835   2.014   9.746  0.1458  0.1312  0.1373
   34POPC   H7X 4607   3.938   2.057   9.747  0.8017 -1.3844 -0.5030
   34POPC   H7Y 4608   3.764   2.093   9.778 -2.7668 -1.8833 -1.1515
   34POPC   C38 4609   3.817   1.981   9.592 -0.2487  0.1565  0.0749
   34POPC   H8X 4610   3.720   1.931   9.572 -0.5739  0.5526  0.6377
   34POPC   H8Y 4611   3.900   1.911   9.567  1.0384  2.0261 -1.0092
   34POPC   C39 4612   3.828   2.102   9.499  0.3454 -0.1273  0.5345
   34POPC   H9X 4613   3.921   2.154   9.532  0.2402 -0.9500  2.1781
   34POPC   H9Y 4614   3.744   2.169   9.526  1.1185  0.7367  0.8366
   34POPC  C310 4615   3.829   2.070   9.353  0.3979  0.4553  0.6388
   34POPC  H10X 4616   3.764   1.980   9.345  1.1434 -0.0341 -0.0012
   34POPC  H10Y 4617   3.929   2.052   9.308 -0.3622  0.1305 -0.9342
   34POPC  C311 4618   3.742   2.182   9.287  0.0135  0.7431 -0.1639
   34POPC  H11X 4619   3.781   2.276   9.330  2.4745 -0.0348 -0.6209
   34POPC  H11Y 4620   3.639   2.175   9.327  0.1807 -0.3475  0.1120
   34POPC  C312 4621   3.731   2.154   9.137  0.7333 -0.5895 -0.0040
   34POPC  H12X 4622   3.640   2.212   9.110  1.1067 -0.4661 -1.0029
   34POPC  H12Y 4623   3.715   2.047   9.110  1.8458 -1.1020  1.3158
   34POPC  C313 4624   3.850   2.219   9.061  0.4899  0.1377 -0.2521
   34POPC  H13X 4625   3.945   2.198   9.114  0.1193  1.6926  1.0601
   34POPC  H13Y 4626   3.843   2.329   9.065 -1.9959  0.0180 -0.5692
   34POPC  C314 4627   3.861   2.167   8.919 -1.2153 -0.1506  0.3232
   34POPC  H14X 4628   3.781   2.209   8.854 -0.5566  2.0662  0.8902
   34POPC  H14Y 4629   3.858   2.056   8.919 -2.1087 -0.1251  1.0686
   34POPC  C315 4630   3.998   2.222   8.856 -0.7909 -0.3339  0.3328
   34POPC  H15X 4631   4.077   2.169   8.913 -1.3723  0.1097  1.5579
   34POPC  H15Y 4632   3.995   2.331   8.878 -0.3505 -0.5331  1.3820
   34POPC  C316 4633   4.029   2.195   8.705  0.7104 -0.8206 -0.4961
   34POPC  H16X 4634   4.002   2.089   8.683 -0.1907 -1.1711  2.1044
   34POPC  H16Y 4635   4.138   2.202   8.688  0.9339  0.9162  1.4824
   34POPC  H16Z 4636   3.969   2.259   8.637 -2.3994 -1.7106  1.2908
   35POPC     N 4637   2.941   5.651  11.476  0.8857  0.2097  0.0758
   35POPC   C12 4638   2.959   5.732  11.346 -0.2936  0.3242  0.0543
   35POPC  H12A 4639   2.925   5.830  11.374  0.2858  0.2931  0.9246
   35POPC  H12B 4640   2.887   5.702  11.271 -0.2019  0.3146 -0.0306
   35POPC   C13 4641   3.024   5.703  11.581  0.4863 -0.2447  0.1205
   35POPC  H13A 4642   2.997   5.804  11.607  0.0786  0.2845 -2.2702
   35POPC  H13B 4643   3.001   5.665  11.679 -2.9638  0.6660 -0.2536
   35POPC  H13C 4644   3.125   5.688  11.546  0.9317  0.5387  1.0432
   35POPC   C14 4645   2.793   5.651  11.513 -0.2153  0.4122  0.7830
   35POPC  H14A 4646   2.726   5.620  11.434 -0.5590  0.7759  0.9318
   35POPC  H14B 4647   2.783   5.596  11.606 -0.8455 -0.4259  0.2295
   35POPC  H14C 4648   2.759   5.744  11.553 -1.3715 -1.0516  3.3070
   35POPC   C15 4649   2.989   5.507  11.460  0.1928  0.0386  0.1171
   35POPC  H15A 4650   2.993   5.456  11.556  2.0185  0.3702  0.2257
   35POPC  H15B 4651   3.082   5.501  11.406 -0.2040  0.1036 -0.5751
   35POPC  H15C 4652   2.914   5.450  11.406 -0.8366 -1.1271  2.6629
   35POPC   C11 4653   3.100   5.725  11.280  0.5343 -0.6190 -0.2815
   35POPC  H11A 4654   3.184   5.715  11.352  1.4599  2.3783 -0.8694
   35POPC  H11B 4655   3.117   5.824  11.233  0.5660 -0.4675  0.0449
   35POPC     P 4656   3.229   5.556  11.128  0.1656  0.1178  0.3297
   35POPC   O13 4657   3.260   5.439  11.214  0.0555  0.1796  0.0371
   35POPC   O14 4658   3.336   5.664  11.114  0.9032  0.0228  0.0868
   35POPC   O12 4659   3.097   5.624  11.187 -0.4869 -0.2675 -0.1751
   35POPC   O11 4660   3.191   5.503  10.983 -0.1048  0.5598  0.7783
   35POPC    C1 4661   3.076   5.525  10.902 -0.5747 -0.0272 -0.2685
   35POPC    HA 4662   2.990   5.569  10.957 -0.2306  1.1637 -0.6736
   35POPC    HB 4663   3.035   5.430  10.862  1.5701 -0.8541 -0.5359
   35POPC    C2 4664   3.117   5.614  10.778  0.2816  0.5929 -0.3286
   35POPC    HS 4665   3.033   5.634  10.708 -0.8298  0.4270  0.9350
   35POPC   O21 4666   3.232   5.560  10.708  0.1500  0.2649 -0.3619
   35POPC   C21 4667   3.194   5.459  10.629 -0.6721  0.3570 -0.0006
   35POPC   O22 4668   3.077   5.430  10.611  0.5293  0.4411  0.4521
   35POPC   C22 4669   3.322   5.393  10.579 -0.5429  0.4022 -0.4940
   35POPC   H2R 4670   3.348   5.319  10.657  0.7643 -0.8222 -2.0423
   35POPC   H2S 4671   3.409   5.460  10.568  0.2743 -0.6568 -0.5439
   35POPC    C3 4672   3.148   5.758  10.810  0.7138 -0.3971  0.6834
   35POPC    HX 4673   3.248   5.756  10.859  1.3498  0.2807 -0.5682
   35POPC    HY 4674   3.075   5.798  10.884  0.4434 -2.2678  1.4487
   35POPC   O31 4675   3.141   5.840  10.691  0.1098 -0.5125  0.3283
   35POPC   C31 4676   3.230   5.938  10.690 -0.2729 -0.1743  0.4734
   35POPC   O32 4677   3.291   5.973  10.786 -0.3051  0.8348  0.6527
   35POPC   C32 4678   3.257   5.986  10.545  0.0428 -0.3669  0.4982
   35POPC   H2X 4679   3.204   6.082  10.525  1.0082 -0.1718 -1.2317
   35POPC   H2Y 4680   3.207   5.908  10.484 -0.1575 -0.1695  0.4080
   35POPC   C23 4681   3.299   5.307  10.446  0.5051 -0.1958  0.3254
   35POPC   H3R 4682   3.223   5.229  10.468 -1.3803  1.0429 -1.6173
   35POPC   H3S 4683   3.389   5.253  10.407 -0.2615 -1.2426 -0.0341
   35POPC   C24 4684   3.230   5.380  10.324 -0.1879 -0.4656  0.5111
   35POPC   H4R 4685   3.142   5.442  10.349  1.7029  3.1486 -1.4631
   35POPC   H4S 4686   3.189   5.312  10.246 -0.6575  0.7354 -0.2978
   35POPC   C25 4687   3.328   5.486  10.250 -0.6628  0.6486 -0.3291
   35POPC   H5R 4688   3.408   5.419  10.213  0.3068  1.9670 -0.6253
   35POPC   H5S 4689   3.367   5.564  10.319 -0.3438  1.7347 -1.7325
   35POPC   C26 4690   3.252   5.551  10.140  0.7727  0.6573 -0.2148
   35POPC   H6R 4691   3.193   5.635  10.182  0.3895  0.6702 -0.7745
   35POPC   H6S 4692   3.184   5.480  10.088  0.7666  1.3694 -1.1888
   35POPC   C27 4693   3.349   5.623  10.044 -0.0023 -0.0132 -0.5493
   35POPC   H7R 4694   3.423   5.551  10.003  1.3674  0.3690  1.1513
   35POPC   H7S 4695   3.410   5.693  10.105 -0.8838 -0.8075  1.2923
   35POPC   C28 4696   3.294   5.720   9.938 -0.9324  0.0988 -0.8135
   35POPC   H8R 4697   3.369   5.705   9.856  3.1069 -1.3623  2.9284
   35POPC   H8S 4698   3.319   5.819   9.981 -0.2057 -0.2561 -0.4125
   35POPC   C29 4699   3.154   5.688   9.901 -0.2983  0.0497  0.3106
   35POPC   H91 4700   3.082   5.754   9.950  0.1080  0.8661 -0.1746
   35POPC  C210 4701   3.106   5.591   9.825 -0.1938 -0.2693 -0.2141
   35POPC  H101 4702   2.997   5.585   9.811 -0.1346  0.7084 -1.2551
   35POPC  C211 4703   3.182   5.493   9.742 -0.8747  0.1660  0.0915
   35POPC  H11R 4704   3.172   5.393   9.788 -0.0560 -0.5077 -1.1518
   35POPC  H11S 4705   3.290   5.523   9.740 -0.8852  0.1422 -2.2388
   35POPC  C212 4706   3.121   5.501   9.603  0.8321  0.1425  0.3559
   35POPC  H12R 4707   3.019   5.458   9.605  1.3208 -1.1044 -0.7944
   35POPC  H12S 4708   3.187   5.431   9.548 -2.1353 -2.2216 -0.2731
   35POPC  C213 4709   3.133   5.638   9.532 -0.0198 -0.1902  0.5222
   35POPC  H13R 4710   3.224   5.694   9.565  1.2302 -1.5130 -0.6268
   35POPC  H13S 4711   3.063   5.705   9.587 -1.8883 -2.7793  1.3626
   35POPC  C214 4712   3.104   5.650   9.384 -0.1148  0.3104 -0.0776
   35POPC  H14R 4713   3.194   5.605   9.335 -0.7609 -3.3684  1.9019
   35POPC  H14S 4714   3.091   5.755   9.353  0.3602 -0.1408 -1.9065
   35POPC  C215 4715   2.984   5.581   9.334  0.4553  0.5568  0.4860
   35POPC  H15R 4716   2.892   5.625   9.378  1.8198  0.8768  3.0876
   35POPC  H15S 4717   2.981   5.476   9.371 -2.4466  0.6764  0.6816
   35POPC  C216 4718   2.981   5.573   9.182 -0.5389  0.0766  0.1892
   35POPC  H16R 4719   2.898   5.508   9.146  0.5443 -1.6592  0.7806
   35POPC  H16S 4720   3.076   5.532   9.141 -1.9308  0.1863 -3.3576
   35POPC  C217 4721   2.963   5.712   9.108  0.3344  0.2350  0.0605
   35POPC  H17R 4722   3.039   5.789   9.133 -0.3233  1.4690 -1.6623
   35POPC  H17S 4723   2.860   5.743   9.136  0.2790 -0.3365  0.5007
   35POPC  C218 4724   2.947   5.694   8.950 -0.2607 -0.1528 -0.2111
   35POPC  H18R 4725   2.900   5.788   8.915  1.3967  0.3550 -1.0986
   35POPC  H18S 4726   2.896   5.603   8.912 -0.4763  0.7237 -2.0588
   35POPC  H18T 4727   3.049   5.699   8.906 -0.4817 -0.7130 -0.8009
   35POPC   C33 4728   3.405   6.003  10.518 -0.1187 -0.3595 -0.0660
   35POPC   H3X 4729   3.458   5.912  10.552  1.7137 -0.3901 -2.9167
   35POPC   H3Y 4730   3.453   6.087  10.574  1.8485 -1.4290 -0.1190
   35POPC   C34 4731   3.452   6.016  10.370 -0.0230 -0.1750 -0.0296
   35POPC   H4X 4732   3.439   5.913  10.330 -3.6267  0.2540 -0.1439
   35POPC   H4Y 4733   3.561   6.037  10.376 -0.3952  1.7175  0.2081
   35POPC   C35 4734   3.372   6.117  10.289 -0.4593  0.1996  0.2839
   35POPC   H5X 4735   3.433   6.210  10.287 -2.3488  1.5178  2.0468
   35POPC   H5Y 4736   3.270   6.126  10.331 -0.1408  1.3241  0.8551
   35POPC   C36 4737   3.372   6.060  10.144 -0.3931 -0.2210 -0.0260
   35POPC   H6X 4738   3.341   5.953  10.153 -0.7618 -0.0640  0.6750
   35POPC   H6Y 4739   3.477   6.058  10.111  1.2042 -0.7872  4.6839
   35POPC   C37 4740   3.296   6.143  10.041 -0.1999 -0.8013 -0.0175
   35POPC   H7X 4741   3.335   6.247  10.040  1.2854 -1.3462 -0.8652
   35POPC   H7Y 4742   3.192   6.151  10.078 -0.3980  0.5453 -0.8441
   35POPC   C38 4743   3.283   6.084   9.901 -0.2810  0.0142  0.0574
   35POPC   H8X 4744   3.228   5.987   9.903 -2.4934  1.2628  0.9620
   35POPC   H8Y 4745   3.386   6.050   9.876 -1.1519 -0.9271 -2.4876
   35POPC   C39 4746   3.208   6.175   9.802  0.6802  0.0754  0.4365
   35POPC   H9X 4747   3.255   6.275   9.802  0.6179  0.1068  1.2926
   35POPC   H9Y 4748   3.102   6.186   9.831  1.1140  2.0408  1.3489
   35POPC  C310 4749   3.209   6.101   9.671  0.1825  0.3525  0.1626
   35POPC  H10X 4750   3.144   6.013   9.687 -1.8455  1.9409  0.7604
   35POPC  H10Y 4751   3.311   6.066   9.641  0.5145  0.5591  1.0185
   35POPC  C311 4752   3.147   6.179   9.551  0.5036  0.7481  0.5837
   35POPC  H11X 4753   3.209   6.270   9.536 -1.9062  2.2621 -0.3695
   35POPC  H11Y 4754   3.049   6.214   9.588 -1.1675 -2.5777 -0.5153
   35POPC  C312 4755   3.127   6.088   9.428  0.2784  0.5932  0.2444
   35POPC  H12X 4756   3.061   6.008   9.466  0.9136  0.1605  0.4517
   35POPC  H12Y 4757   3.225   6.048   9.394  1.3444  2.5620  0.9144
   35POPC  C313 4758   3.059   6.166   9.312  0.1803 -0.8046  0.3208
   35POPC  H13X 4759   3.004   6.094   9.248  2.0716 -1.1522 -0.9401
   35POPC  H13Y 4760   3.144   6.184   9.243  0.4233  1.3551  1.1474
   35POPC  C314 4761   2.984   6.294   9.344 -0.2141 -0.0260  0.3723
   35POPC  H14X 4762   3.071   6.356   9.373 -0.8988  1.4318 -0.5997
   35POPC  H14Y 4763   2.914   6.286   9.429 -1.0348 -0.0325 -0.2944
   35POPC  C315 4764   2.922   6.353   9.224  0.5092 -0.1725  0.5698
   35POPC  H15X 4765   2.850   6.429   9.262 -0.0643 -0.5572  0.2688
   35POPC  H15Y 4766   2.851   6.276   9.186 -0.0650  1.1374 -1.0724
   35POPC  C316 4767   3.029   6.412   9.134  0.6986 -0.0955  0.4282
   35POPC  H16X 4768   3.077   6.502   9.178  1.0116 -1.2553  2.5039
   35POPC  H16Y 4769   2.986   6.436   9.034  2.0958  1.6283  0.2193
   35POPC  H16Z 4770   3.118   6.350   9.110  0.8846 -0.7979  2.7864
   36POPC     N 4771   3.944   4.413  11.076  0.2786  0.1918  0.4543
   36POPC   C12 4772   3.924   4.385  10.929  0.0076 -0.4803 -0.4294
   36POPC  H12A 4773   3.936   4.278  10.917  0.1109 -0.4346 -0.7229
   36POPC  H12B 4774   4.008   4.431  10.879  1.0792 -3.1173 -1.1264
   36POPC   C13 4775   3.937   4.562  11.105 -0.3806 -0.0276  0.0102
   36POPC  H13A 4776   4.028   4.596  11.152  1.3566 -1.8064 -1.9579
   36POPC  H13B 4777   3.927   4.613  11.010 -0.1962  1.3727  0.7343
   36POPC  H13C 4778   3.847   4.593  11.155 -2.6238 -1.0917 -3.2134
   36POPC   C14 4779   3.831   4.344  11.150  0.0793 -0.4520 -0.0423
   36POPC  H14A 4780   3.831   4.238  11.131  2.9830 -0.4901 -0.0199
   36POPC  H14B 4781   3.851   4.357  11.256  0.5263  0.0665 -0.1859
   36POPC  H14C 4782   3.737   4.386  11.116 -0.3913  0.3902  2.1859
   36POPC   C15 4783   4.074   4.356  11.122  0.2000 -1.1556 -0.8092
   36POPC  H15A 4784   4.158   4.398  11.070  0.5642  0.4770  1.0218
   36POPC  H15B 4785   4.069   4.249  11.109  2.8366 -1.5098  0.8102
   36POPC  H15C 4786   4.094   4.373  11.227 -0.1927  0.8000 -1.0371
   36POPC   C11 4787   3.794   4.427  10.860 -0.2501  0.2188 -0.4506
   36POPC  H11A 4788   3.807   4.418  10.750 -0.5203  1.4445 -0.5924
   36POPC  H11B 4789   3.771   4.535  10.872 -0.8215  0.1774 -1.1296
   36POPC     P 4790   3.630   4.226  10.835  0.5861 -0.2538  0.0049
   36POPC   O13 4791   3.518   4.161  10.903 -0.0695  0.0124 -0.2377
   36POPC   O14 4792   3.748   4.142  10.834  0.0806 -0.3449 -0.4549
   36POPC   O12 4793   3.678   4.356  10.904 -0.2976 -0.8768 -0.5054
   36POPC   O11 4794   3.588   4.267  10.691  0.2402  0.0168 -0.2662
   36POPC    C1 4795   3.507   4.382  10.667  0.0728  0.0489 -0.0067
   36POPC    HA 4796   3.553   4.474  10.709  0.6631  0.0612 -0.6747
   36POPC    HB 4797   3.413   4.384  10.726  1.0274  0.5177  1.5437
   36POPC    C2 4798   3.456   4.398  10.519 -0.3922  0.4999  0.2536
   36POPC    HS 4799   3.383   4.317  10.499  1.5956 -0.7390 -2.3254
   36POPC   O21 4800   3.568   4.397  10.423  0.2588  0.5449 -0.1458
   36POPC   C21 4801   3.606   4.273  10.398  0.1664 -0.4463  0.4134
   36POPC   O22 4802   3.550   4.167  10.411  0.1531  0.7623  0.1643
   36POPC   C22 4803   3.741   4.293  10.311  0.0575  0.8078 -0.2147
   36POPC   H2R 4804   3.796   4.198  10.328 -2.9570 -1.0019 -0.1104
   36POPC   H2S 4805   3.794   4.379  10.357 -0.6573  0.1975  1.7895
   36POPC    C3 4806   3.379   4.531  10.512 -0.0328 -0.4157  0.0239
   36POPC    HX 4807   3.443   4.622  10.524 -0.9203  0.0360  1.4025
   36POPC    HY 4808   3.311   4.530  10.599 -1.5838 -1.0741 -1.1737
   36POPC   O31 4809   3.306   4.548  10.384  0.1463 -0.5120  0.2730
   36POPC   C31 4810   3.205   4.630  10.401  0.0633  0.5662 -0.5572
   36POPC   O32 4811   3.170   4.686  10.503 -0.2067 -0.2834  0.3797
   36POPC   C32 4812   3.126   4.648  10.274  0.1480 -0.4781  0.0802
   36POPC   H2X 4813   3.065   4.740  10.284  0.0707 -0.6361  1.1226
   36POPC   H2Y 4814   3.054   4.564  10.258 -0.1800 -0.2954  0.6044
   36POPC   C23 4815   3.710   4.323  10.160  0.3807 -0.4798  0.5891
   36POPC   H3R 4816   3.806   4.362  10.119 -0.4235  1.1076  0.1720
   36POPC   H3S 4817   3.649   4.415  10.149  1.7112  0.3430 -0.0369
   36POPC   C24 4818   3.676   4.204  10.072  0.0294 -0.1369 -0.3102
   36POPC   H4R 4819   3.587   4.147  10.106  0.9652 -2.5973 -1.8334
   36POPC   H4S 4820   3.760   4.131  10.067  0.1412  0.0376 -1.1219
   36POPC   C25 4821   3.649   4.254   9.925 -0.1185 -0.2459 -0.9617
   36POPC   H5R 4822   3.732   4.315   9.882  0.4318 -1.5550 -1.7585
   36POPC   H5S 4823   3.553   4.310   9.927 -0.4667 -0.8787  0.7069
   36POPC   C26 4824   3.632   4.149   9.817 -0.2328  0.4439  0.3510
   36POPC   H6R 4825   3.543   4.084   9.828  0.3238 -0.1543  1.4200
   36POPC   H6S 4826   3.722   4.084   9.815 -0.4033  0.1991  0.6123
   36POPC   C27 4827   3.619   4.221   9.679 -0.0413  0.2389 -0.4414
   36POPC   H7R 4828   3.714   4.277   9.670 -0.6208  1.0324 -1.6456
   36POPC   H7S 4829   3.532   4.290   9.687 -0.9146 -0.8141 -0.7332
   36POPC   C28 4830   3.605   4.123   9.552  0.1583 -0.0130  0.4060
   36POPC   H8R 4831   3.560   4.178   9.466 -1.1421 -1.3247  0.2272
   36POPC   H8S 4832   3.521   4.060   9.587 -0.2182  1.4267  2.1643
   36POPC   C29 4833   3.730   4.044   9.531  0.2996  0.2140 -0.3819
   36POPC   H91 4834   3.739   3.985   9.623  0.5122 -0.0882 -0.5920
   36POPC  C210 4835   3.813   4.048   9.425 -0.3649 -0.3520 -0.6157
   36POPC  H101 4836   3.903   3.985   9.419  1.3494  1.9091  0.5949
   36POPC  C211 4837   3.788   4.130   9.303  0.0091  0.0437 -0.0633
   36POPC  H11R 4838   3.889   4.163   9.273 -0.3988 -1.1521 -2.9086
   36POPC  H11S 4839   3.729   4.220   9.329  0.2080 -0.0628  0.7701
   36POPC  C212 4840   3.701   4.062   9.191  0.3899 -0.4278  0.0070
   36POPC  H12R 4841   3.608   4.025   9.239  0.9228 -0.6233  0.9214
   36POPC  H12S 4842   3.754   3.976   9.146  0.9181 -0.0341 -0.1377
   36POPC  C213 4843   3.659   4.170   9.090 -0.5407  0.5032 -0.0064
   36POPC  H13R 4844   3.727   4.257   9.102 -1.3669  1.1129  0.2857
   36POPC  H13S 4845   3.556   4.195   9.125 -0.4661  0.8097 -0.0069
   36POPC  C214 4846   3.669   4.110   8.948  0.7413 -0.5817 -0.7819
   36POPC  H14R 4847   3.604   4.025   8.922  0.2061 -1.0426  1.9744
   36POPC  H14S 4848   3.774   4.073   8.941  0.3638 -1.1462 -4.7122
   36POPC  C215 4849   3.627   4.221   8.836 -0.5907 -0.1018 -0.4288
   36POPC  H15R 4850   3.675   4.320   8.854  0.2430 -0.9454  2.1204
   36POPC  H15S 4851   3.518   4.240   8.828 -0.1131  1.9416 -3.1731
   36POPC  C216 4852   3.665   4.181   8.693 -0.0806  0.2905 -0.2986
   36POPC  H16R 4853   3.599   4.099   8.660  1.0014 -0.3984 -0.7928
   36POPC  H16S 4854   3.770   4.143   8.693 -0.6434 -1.3968  3.2026
   36POPC  C217 4855   3.648   4.295   8.585 -0.9462  0.3631  0.0381
   36POPC  H17R 4856   3.547   4.339   8.595 -1.4497 -1.1507  2.0888
   36POPC  H17S 4857   3.647   4.257   8.481  2.0911 -0.6913  0.3338
   36POPC  C218 4858   3.745   4.412   8.605  0.1511  0.3057 -0.0078
   36POPC  H18R 4859   3.847   4.378   8.634 -0.4904 -1.6140  0.0436
   36POPC  H18S 4860   3.711   4.477   8.688 -0.2133  0.7661 -0.5088
   36POPC  H18T 4861   3.753   4.472   8.512 -1.7155 -0.6708 -0.8264
   36POPC   C33 4862   3.202   4.653  10.130  0.0349 -0.2991  0.0625
   36POPC   H3X 4863   3.268   4.564  10.129 -0.3206 -0.5645  0.1881
   36POPC   H3Y 4864   3.276   4.736  10.131 -0.4612  0.1520  0.2800
   36POPC   C34 4865   3.103   4.671  10.020  0.1605  0.1237  0.3642
   36POPC   H4X 4866   3.037   4.752  10.056 -0.7675 -0.6848  0.4905
   36POPC   H4Y 4867   3.039   4.580  10.019 -0.7491  0.7596 -1.9576
   36POPC   C35 4868   3.166   4.697   9.883 -0.3478 -0.2149 -0.1285
   36POPC   H5X 4869   3.231   4.607   9.877 -1.8309 -1.2578 -0.7731
   36POPC   H5Y 4870   3.236   4.782   9.899 -0.4660 -0.5405  2.2051
   36POPC   C36 4871   3.068   4.707   9.763  0.1979 -0.0140  0.0153
   36POPC   H6X 4872   2.994   4.786   9.786  0.2321 -0.2059  0.8041
   36POPC   H6Y 4873   3.019   4.608   9.758  0.6593 -0.2782  0.6270
   36POPC   C37 4874   3.146   4.725   9.629  0.3538  0.6403 -0.4278
   36POPC   H7X 4875   3.204   4.636   9.598 -2.5837 -1.7248  0.7470
   36POPC   H7Y 4876   3.217   4.810   9.643 -1.2905  1.5881  2.5660
   36POPC   C38 4877   3.062   4.767   9.514 -0.7785  0.2880 -0.0517
   36POPC   H8X 4878   3.011   4.865   9.528 -0.5029  0.4073  0.1138
   36POPC   H8Y 4879   2.979   4.695   9.497  0.2116 -0.5791 -1.2833
   36POPC   C39 4880   3.128   4.776   9.370  0.1957 -0.1472  0.1000
   36POPC   H9X 4881   3.192   4.686   9.361 -1.6232 -1.3897 -0.7031
   36POPC   H9Y 4882   3.194   4.866   9.366  0.4236 -0.3184  0.0267
   36POPC  C310 4883   3.032   4.767   9.253  0.4515 -0.4872  0.1110
   36POPC  H10X 4884   2.946   4.837   9.263 -0.3059 -1.2542 -0.9144
   36POPC  H10Y 4885   2.982   4.668   9.248 -0.5060  0.0581 -1.1400
   36POPC  C311 4886   3.123   4.801   9.132  0.3288 -0.2105  0.7298
   36POPC  H11X 4887   3.214   4.738   9.122  0.4727 -0.3959  3.0324
   36POPC  H11Y 4888   3.149   4.908   9.148  0.0663 -0.2138  1.1848
   36POPC  C312 4889   3.025   4.790   9.010 -0.6325 -0.1326  0.2906
   36POPC  H12X 4890   2.940   4.861   9.002 -1.7582 -1.5595 -0.8907
   36POPC  H12Y 4891   2.993   4.684   9.005 -0.3709 -0.2002  0.0007
   36POPC  C313 4892   3.101   4.817   8.873  0.2723  0.1996  0.0947
   36POPC  H13X 4893   3.014   4.837   8.807 -0.7126 -0.1098  1.2753
   36POPC  H13Y 4894   3.165   4.729   8.853  0.3028  0.0792  0.7070
   36POPC  C314 4895   3.184   4.945   8.880 -0.1459  0.0838  0.5082
   36POPC  H14X 4896   3.281   4.924   8.930 -0.2249 -0.2727  0.5201
   36POPC  H14Y 4897   3.123   5.021   8.933 -0.4857  0.0509  0.1662
   36POPC  C315 4898   3.211   5.003   8.737  0.0309 -0.0205 -0.3869
   36POPC  H15X 4899   3.120   5.040   8.685  0.7702 -1.3320 -2.6811
   36POPC  H15Y 4900   3.262   4.920   8.685  0.6787  0.2216 -0.1476
   36POPC  C316 4901   3.316   5.118   8.732  0.8921  0.1646 -0.0880
   36POPC  H16X 4902   3.277   5.195   8.801 -0.4685 -1.3428  0.8766
   36POPC  H16Y 4903   3.325   5.140   8.624 -2.8025 -0.0937 -0.4875
   36POPC  H16Z 4904   3.413   5.073   8.764 -0.8927 -2.4639  1.8247
   37POPC     N 4905   2.223   0.873   6.355 -0.2831 -0.5866  0.0099
   37POPC   C12 4906   2.139   0.915   6.480 -0.0401 -0.0256  0.0919
   37POPC  H12A 4907   2.104   1.016   6.464  0.0116  0.1047  0.8106
   37POPC  H12B 4908   2.206   0.924   6.564  1.4189  0.0919 -1.0372
   37POPC   C13 4909   2.308   0.755   6.375  0.3224  0.2568  0.3552
   37POPC  H13A 4910   2.367   0.769   6.464 -0.3739  0.5669  0.7717
   37POPC  H13B 4911   2.243   0.670   6.390  0.9898 -0.6395 -1.6263
   37POPC  H13C 4912   2.367   0.750   6.284 -1.6544 -1.3366 -0.8842
   37POPC   C14 4913   2.126   0.842   6.242  0.2422 -0.6655  0.0016
   37POPC  H14A 4914   2.101   0.738   6.237  2.2540 -1.1344 -0.9380
   37POPC  H14B 4915   2.039   0.904   6.255  0.4922 -1.1204  4.3238
   37POPC  H14C 4916   2.177   0.875   6.152  0.8312 -0.3400  0.4503
   37POPC   C15 4917   2.311   0.997   6.327 -0.0255 -0.3482 -0.0244
   37POPC  H15A 4918   2.391   1.008   6.398 -0.8403 -1.4016  1.0791
   37POPC  H15B 4919   2.255   1.090   6.321  1.3165  0.6162  1.8518
   37POPC  H15C 4920   2.359   0.984   6.232  3.5049 -0.9756  1.7764
   37POPC   C11 4921   2.027   0.822   6.536  0.2755 -0.3672 -0.0629
   37POPC  H11A 4922   1.944   0.809   6.464 -1.1046  0.6145  1.3059
   37POPC  H11B 4923   1.980   0.870   6.625  0.5508 -1.8323  0.8893
   37POPC     P 4924   1.997   0.582   6.634  0.0728 -0.1604  0.5482
   37POPC   O13 4925   2.089   0.468   6.632 -0.6655 -0.3164 -0.3564
   37POPC   O14 4926   1.879   0.579   6.541 -0.5176  0.0329 -0.3772
   37POPC   O12 4927   2.090   0.706   6.585  0.7477 -0.5688  0.0414
   37POPC   O11 4928   1.955   0.623   6.776  1.4261 -0.1470  0.1086
   37POPC    C1 4929   1.990   0.560   6.900  0.0217  0.4023  0.2149
   37POPC    HA 4930   2.099   0.539   6.888 -0.4999 -1.4382 -1.8737
   37POPC    HB 4931   1.937   0.463   6.915  1.4171 -0.5812 -0.9907
   37POPC    C2 4932   1.981   0.660   7.015 -0.1690 -0.1657  0.3459
   37POPC    HS 4933   2.055   0.740   6.992 -1.8942  1.3383 -0.0719
   37POPC   O21 4934   2.025   0.599   7.138  0.0676  0.4034  0.0546
   37POPC   C21 4935   2.066   0.685   7.234 -0.1689 -0.1138  0.4545
   37POPC   O22 4936   2.063   0.806   7.226 -0.2106 -0.0777  0.0131
   37POPC   C22 4937   2.111   0.602   7.352  0.2798 -0.8768  0.4442
   37POPC   H2R 4938   2.222   0.592   7.348  0.7329  3.7553 -0.5508
   37POPC   H2S 4939   2.060   0.505   7.333 -1.3518  0.2693 -1.0350
   37POPC    C3 4940   1.837   0.718   7.021 -0.2115 -0.5083  0.0511
   37POPC    HX 4941   1.815   0.780   6.931  2.7973 -0.2244 -0.5229
   37POPC    HY 4942   1.841   0.790   7.105  1.8039 -0.4388 -0.0853
   37POPC   O31 4943   1.731   0.618   7.040 -0.7032 -0.1367  0.5284
   37POPC   C31 4944   1.611   0.669   7.063  0.0155  0.2863  0.2404
   37POPC   O32 4945   1.578   0.785   7.052 -0.1020 -0.7046  0.5236
   37POPC   C32 4946   1.529   0.560   7.130  0.1945 -0.1220 -0.1093
   37POPC   H2X 4947   1.509   0.477   7.059 -2.2559 -0.1010  0.4994
   37POPC   H2Y 4948   1.433   0.607   7.162  0.1574  1.2330 -2.1330
   37POPC   C23 4949   2.056   0.650   7.486 -0.0202  0.0409 -0.4044
   37POPC   H3R 4950   1.945   0.651   7.481 -0.1831  0.9574  2.7021
   37POPC   H3S 4951   2.092   0.753   7.506  0.0610  0.1868 -1.2743
   37POPC   C24 4952   2.109   0.565   7.601 -0.1988 -0.2709 -0.3281
   37POPC   H4R 4953   2.218   0.549   7.606  0.0349  1.6955  2.2393
   37POPC   H4S 4954   2.069   0.462   7.606  0.3960 -0.4983 -0.2621
   37POPC   C25 4955   2.070   0.630   7.726  0.4149 -0.0127 -0.2111
   37POPC   H5R 4956   1.963   0.603   7.739  0.1811  1.3523  0.9342
   37POPC   H5S 4957   2.071   0.741   7.717  0.4547  0.0238  0.1959
   37POPC   C26 4958   2.137   0.571   7.856  0.1533 -0.3308  0.1761
   37POPC   H6R 4959   2.241   0.610   7.855 -0.1588  0.5283  0.7770
   37POPC   H6S 4960   2.127   0.461   7.842 -2.1228 -0.1616  0.4129
   37POPC   C27 4961   2.069   0.631   7.987  0.2888  0.1969  0.1671
   37POPC   H7R 4962   1.959   0.618   7.995  0.2624  1.4066  2.0661
   37POPC   H7S 4963   2.097   0.738   7.993  2.8433 -0.4789  1.2012
   37POPC   C28 4964   2.126   0.579   8.120  0.4481 -0.1298  0.4447
   37POPC   H8R 4965   2.237   0.577   8.109  0.4384  2.1283 -0.5362
   37POPC   H8S 4966   2.098   0.472   8.126  0.1983 -0.1577 -1.0373
   37POPC   C29 4967   2.064   0.653   8.236 -0.5885 -0.5948  0.6859
   37POPC   H91 4968   1.965   0.618   8.269 -1.2088 -0.3747 -0.9266
   37POPC  C210 4969   2.128   0.752   8.306  0.8420  0.2324 -0.8476
   37POPC  H101 4970   2.066   0.805   8.380 -0.3862 -0.4596 -1.3507
   37POPC  C211 4971   2.266   0.806   8.283  0.8930 -0.2637  0.7756
   37POPC  H11R 4972   2.290   0.792   8.175 -0.8368 -3.2021  0.7405
   37POPC  H11S 4973   2.351   0.768   8.343  0.8169 -0.8679  0.5071
   37POPC  C212 4974   2.277   0.960   8.294 -0.2867  0.3766 -0.5657
   37POPC  H12R 4975   2.262   0.981   8.402  0.5739 -1.4952 -0.0778
   37POPC  H12S 4976   2.191   1.018   8.253  0.3898  1.3004 -0.6977
   37POPC  C213 4977   2.419   1.008   8.255 -0.5485 -0.3964 -0.0507
   37POPC  H13R 4978   2.413   1.020   8.145  2.5408  0.8133 -0.1195
   37POPC  H13S 4979   2.494   0.929   8.276  0.3007  0.5675  0.5526
   37POPC  C214 4980   2.456   1.145   8.310  0.3445 -0.2059  0.1935
   37POPC  H14R 4981   2.561   1.158   8.277  0.2640 -0.1512 -0.0364
   37POPC  H14S 4982   2.439   1.132   8.419  1.8454 -1.2989  0.3191
   37POPC  C215 4983   2.370   1.256   8.254 -0.2527  0.4802  0.4403
   37POPC  H15R 4984   2.362   1.340   8.327  2.6255  0.9656  0.2531
   37POPC  H15S 4985   2.266   1.224   8.233  0.2486 -0.8231 -0.0757
   37POPC  C216 4986   2.430   1.310   8.120  0.7006 -0.1221 -0.3064
   37POPC  H16R 4987   2.443   1.225   8.050  0.1844  1.3320 -2.2203
   37POPC  H16S 4988   2.523   1.370   8.129  0.6452 -0.1615  0.6017
   37POPC  C217 4989   2.331   1.406   8.056  0.4654 -0.1605  0.5796
   37POPC  H17R 4990   2.315   1.494   8.123 -0.8546  0.8292 -1.0003
   37POPC  H17S 4991   2.235   1.351   8.048  0.9483 -0.6133 -2.8334
   37POPC  C218 4992   2.379   1.458   7.921  0.5596  0.1598 -0.0330
   37POPC  H18R 4993   2.398   1.380   7.845 -3.0141  0.8487 -1.7266
   37POPC  H18S 4994   2.474   1.517   7.924 -0.9651  2.9597 -3.3954
   37POPC  H18T 4995   2.308   1.529   7.875  0.9563  0.6186  0.0571
   37POPC   C33 4996   1.589   0.495   7.259  0.3260 -0.0284  0.6226
   37POPC   H3X 4997   1.683   0.440   7.236  0.0732 -0.3804  0.4208
   37POPC   H3Y 4998   1.505   0.442   7.309 -0.0695 -0.0918 -0.0943
   37POPC   C34 4999   1.620   0.606   7.364  0.3256 -0.9495  0.4176
   37POPC   H4X 5000   1.536   0.678   7.371 -1.6963 -3.4159  2.5462
   37POPC   H4Y 5001   1.712   0.655   7.326  0.6267 -0.0230  2.2587
   37POPC   C35 5002   1.657   0.533   7.498 -0.6151 -0.1836  0.0520
   37POPC   H5X 5003   1.754   0.478   7.495  0.6910  1.8700  2.6459
   37POPC   H5Y 5004   1.580   0.463   7.538 -0.9273  0.2014  0.1257
   37POPC   C36 5005   1.678   0.633   7.617  0.6864  0.0593  0.4716
   37POPC   H6X 5006   1.779   0.678   7.607  0.4042  0.6963  0.4993
   37POPC   H6Y 5007   1.681   0.569   7.708 -3.4940  1.3169  1.6315
   37POPC   C37 5008   1.561   0.735   7.642 -0.1262 -0.2526 -0.4271
   37POPC   H7X 5009   1.473   0.713   7.578 -2.9114  2.9492  2.0639
   37POPC   H7Y 5010   1.586   0.839   7.613 -0.2114  0.3043  1.3821
   37POPC   C38 5011   1.510   0.740   7.788  0.0265 -0.3839 -0.0113
   37POPC   H8X 5012   1.457   0.647   7.819  1.8450 -1.1426  0.8470
   37POPC   H8Y 5013   1.426   0.812   7.798  1.5545  1.2227  1.5833
   37POPC   C39 5014   1.609   0.793   7.894 -0.5234 -0.0990  0.3222
   37POPC   H9X 5015   1.651   0.893   7.869  0.1363  0.1955  2.5341
   37POPC   H9Y 5016   1.686   0.713   7.904 -0.3070  0.5706  4.7218
   37POPC  C310 5017   1.527   0.808   8.022 -0.1610  0.0110 -0.6845
   37POPC  H10X 5018   1.517   0.707   8.065 -0.3738  0.1806 -0.3332
   37POPC  H10Y 5019   1.422   0.840   8.005  0.2460  1.2466 -0.9328
   37POPC  C311 5020   1.598   0.897   8.128  0.0975  0.4994  0.3117
   37POPC  H11X 5021   1.533   0.880   8.216 -0.0406  1.4343  0.3899
   37POPC  H11Y 5022   1.581   1.003   8.099  0.3192  0.6026  0.5574
   37POPC  C312 5023   1.751   0.883   8.151  0.7276  0.0814  0.2821
   37POPC  H12X 5024   1.807   0.909   8.059 -0.6051  5.3317  0.7990
   37POPC  H12Y 5025   1.765   0.773   8.149 -0.5195 -0.0786 -0.6600
   37POPC  C313 5026   1.815   0.941   8.280  0.1090 -0.0065  0.4994
   37POPC  H13X 5027   1.772   1.042   8.297  0.7139  0.0410  1.8300
   37POPC  H13Y 5028   1.925   0.943   8.286  0.0818  0.6506  0.8547
   37POPC  C314 5029   1.763   0.873   8.411  0.2433 -0.2321 -0.3280
   37POPC  H14X 5030   1.794   0.766   8.411  0.2725 -0.2361  0.7208
   37POPC  H14Y 5031   1.653   0.859   8.402 -0.0098  0.0429  1.8989
   37POPC  C315 5032   1.802   0.939   8.546 -0.1879  0.5542  0.5797
   37POPC  H15X 5033   1.778   1.047   8.539 -0.4782  0.4568  0.0732
   37POPC  H15Y 5034   1.911   0.921   8.564  0.0336 -0.4111 -1.5215
   37POPC  C316 5035   1.715   0.883   8.655 -0.6772 -0.5003 -0.2388
   37POPC  H16X 5036   1.606   0.891   8.633 -0.6322 -0.5838 -0.4924
   37POPC  H16Y 5037   1.720   0.939   8.751 -0.9149 -1.0563  0.0989
   37POPC  H16Z 5038   1.738   0.777   8.680  0.4193 -0.4254 -0.8881
   38POPC     N 5039   2.835   4.036   6.193 -0.6772  0.0465 -0.0541
   38POPC   C12 5040   2.820   4.049   6.343 -0.0717 -0.5163 -0.4922
   38POPC  H12A 5041   2.878   3.977   6.398  0.0851  0.7685  1.0406
   38POPC  H12B 5042   2.722   4.014   6.369 -0.1371  1.7764  2.5386
   38POPC   C13 5043   2.713   4.075   6.121  0.2269 -0.4958  0.2456
   38POPC  H13A 5044   2.618   4.033   6.148  0.3490 -0.8054  0.1953
   38POPC  H13B 5045   2.707   4.183   6.127 -0.8920 -0.6014  1.0794
   38POPC  H13C 5046   2.727   4.044   6.018 -1.3256  0.5086 -0.2901
   38POPC   C14 5047   2.947   4.103   6.135  0.4001  0.5835  0.0984
   38POPC  H14A 5048   3.041   4.063   6.171  0.2969 -2.2656 -2.4907
   38POPC  H14B 5049   2.934   4.086   6.029 -1.2820 -2.3381  0.7143
   38POPC  H14C 5050   2.952   4.204   6.173 -1.5251  1.1707 -1.1857
   38POPC   C15 5051   2.865   3.888   6.166 -0.3833  0.4300  0.0923
   38POPC  H15A 5052   2.949   3.848   6.221 -2.2093 -1.0912  1.8394
   38POPC  H15B 5053   2.899   3.870   6.066  1.4522 -2.1800  1.1522
   38POPC  H15C 5054   2.776   3.831   6.187 -1.3098  0.7349 -2.8099
   38POPC   C11 5055   2.821   4.193   6.417 -1.1184 -0.6149 -0.6520
   38POPC  H11A 5056   2.830   4.166   6.524 -0.3972 -1.9954 -1.0461
   38POPC  H11B 5057   2.719   4.230   6.392 -1.0222 -0.4374 -0.7878
   38POPC     P 5058   2.985   4.395   6.448 -0.1064  0.2622 -0.0539
   38POPC   O13 5059   2.878   4.460   6.524  0.1353 -0.3443 -0.1875
   38POPC   O14 5060   3.076   4.481   6.364  0.1018 -0.5942 -0.0370
   38POPC   O12 5061   2.922   4.279   6.361  0.0807 -0.4146 -0.3322
   38POPC   O11 5062   3.078   4.311   6.540 -0.3499  0.3502  0.0452
   38POPC    C1 5063   3.149   4.193   6.515 -0.3386 -0.0828  0.2738
   38POPC    HA 5064   3.215   4.210   6.427  1.3891 -1.5958  1.2306
   38POPC    HB 5065   3.085   4.108   6.484  1.4072 -1.1909 -0.3731
   38POPC    C2 5066   3.232   4.153   6.641 -0.3201 -0.1285 -0.3545
   38POPC    HS 5067   3.258   4.045   6.650  0.0045 -0.0838 -0.7546
   38POPC   O21 5068   3.168   4.197   6.766 -0.8327 -0.4311 -0.2640
   38POPC   C21 5069   3.063   4.120   6.804 -0.2130  0.6014  0.2418
   38POPC   O22 5070   3.046   4.004   6.758 -0.2515  0.2732 -0.4563
   38POPC   C22 5071   2.986   4.174   6.923  0.5114  0.3262 -0.1425
   38POPC   H2R 5072   2.882   4.169   6.885 -0.5502  1.0819  2.5726
   38POPC   H2S 5073   3.017   4.276   6.954 -1.2865  1.1865 -1.0986
   38POPC    C3 5074   3.375   4.217   6.631 -0.3351 -0.3236 -0.2976
   38POPC    HX 5075   3.360   4.325   6.611 -1.7710 -0.1622  1.5370
   38POPC    HY 5076   3.431   4.170   6.548  0.4373  2.4454 -1.3868
   38POPC   O31 5077   3.446   4.192   6.746  0.6581 -0.4466  0.1763
   38POPC   C31 5078   3.432   4.296   6.841  0.5248 -0.0834  0.4683
   38POPC   O32 5079   3.379   4.402   6.822  0.7094  0.4614  0.2740
   38POPC   C32 5080   3.527   4.272   6.962  0.5789 -0.8844  0.0411
   38POPC   H2X 5081   3.607   4.349   6.957  1.6495 -2.0573 -1.2795
   38POPC   H2Y 5082   3.561   4.166   6.957 -1.3058 -1.4670 -1.0079
   38POPC   C23 5083   3.001   4.087   7.050  0.2934 -0.5041 -0.3229
   38POPC   H3R 5084   2.966   3.984   7.028 -2.7395  0.1546  1.2101
   38POPC   H3S 5085   2.934   4.124   7.131  1.2907  1.9099 -0.5815
   38POPC   C24 5086   3.143   4.091   7.108 -0.1845  0.1593 -0.9552
   38POPC   H4R 5087   3.176   4.193   7.136 -2.1100 -0.8846  6.0213
   38POPC   H4S 5088   3.216   4.057   7.032  0.8740  2.5521 -1.0456
   38POPC   C25 5089   3.163   3.991   7.223 -0.5119  0.9298  0.2292
   38POPC   H5R 5090   3.271   3.975   7.243 -0.5262  2.5970  1.7582
   38POPC   H5S 5091   3.111   3.900   7.185  0.9841 -0.8648  2.2869
   38POPC   C26 5092   3.098   4.031   7.361  0.3199 -0.5785 -0.8723
   38POPC   H6R 5093   2.991   3.999   7.362 -0.1200  0.8830  0.5871
   38POPC   H6S 5094   3.083   4.141   7.358 -0.6253 -0.6601  0.3678
   38POPC   C27 5095   3.178   4.005   7.487 -0.1157  0.2333  0.0854
   38POPC   H7R 5096   3.272   4.063   7.471  0.0566 -0.4155 -1.2734
   38POPC   H7S 5097   3.219   3.903   7.501  0.3744  0.4698  0.4310
   38POPC   C28 5098   3.112   4.045   7.617 -0.8202  0.3702 -0.6969
   38POPC   H8R 5099   3.053   4.138   7.598  0.4008  1.5288  0.9928
   38POPC   H8S 5100   3.193   4.076   7.686 -1.8106  0.7824  0.3006
   38POPC   C29 5101   3.030   3.924   7.666 -0.2465 -0.7698 -0.4664
   38POPC   H91 5102   2.967   3.880   7.588 -2.5457  2.5277 -0.5882
   38POPC  C210 5103   3.021   3.888   7.796 -0.5059  0.1439  0.4265
   38POPC  H101 5104   2.958   3.799   7.813  2.5068 -1.6498  2.9044
   38POPC  C211 5105   3.085   3.942   7.928 -0.3504  0.5127  0.2069
   38POPC  H11R 5106   3.049   4.046   7.938 -2.3863 -0.1462  0.0368
   38POPC  H11S 5107   3.196   3.936   7.926 -0.3853 -0.2848  0.1538
   38POPC  C212 5108   3.029   3.856   8.047  0.3627 -0.0882 -0.4544
   38POPC  H12R 5109   3.079   3.898   8.137 -1.4205  1.3080 -0.0850
   38POPC  H12S 5110   3.064   3.752   8.028  2.0642  0.8126 -2.3337
   38POPC  C213 5111   2.884   3.877   8.073  0.3169  0.0337 -0.5591
   38POPC  H13R 5112   2.827   3.840   7.985 -2.6147  1.4531  0.6815
   38POPC  H13S 5113   2.855   3.984   8.077  2.4915  0.5683  2.5584
   38POPC  C214 5114   2.821   3.806   8.197  0.3962 -0.8158  0.4447
   38POPC  H14R 5115   2.862   3.856   8.287  1.2905 -1.2911  0.3082
   38POPC  H14S 5116   2.851   3.699   8.198  0.1693 -0.8781  0.5304
   38POPC  C215 5117   2.671   3.805   8.204  0.0691 -0.2260 -0.2260
   38POPC  H15R 5118   2.641   3.743   8.117  1.1823  1.5869 -1.9286
   38POPC  H15S 5119   2.636   3.910   8.190  2.8557  0.6443 -0.8310
   38POPC  C216 5120   2.619   3.745   8.333  0.5652 -0.7517  0.7147
   38POPC  H16R 5121   2.665   3.802   8.417  1.9193 -1.1877  0.2778
   38POPC  H16S 5122   2.643   3.637   8.341  1.0883 -0.6997 -0.0532
   38POPC  C217 5123   2.466   3.760   8.349 -0.6051 -0.6430 -0.6085
   38POPC  H17R 5124   2.420   3.711   8.261 -0.9304 -0.4886 -0.5257
   38POPC  H17S 5125   2.438   3.868   8.347  3.9663  0.6345 -2.6349
   38POPC  C218 5126   2.421   3.685   8.475 -0.3595 -0.8737 -0.3601
   38POPC  H18R 5127   2.479   3.590   8.477  1.4675  0.2302 -0.3075
   38POPC  H18S 5128   2.310   3.677   8.480 -0.5897  1.1195 -1.9038
   38POPC  H18T 5129   2.461   3.729   8.569 -0.7940 -0.5449 -0.3284
   38POPC   C33 5130   3.453   4.302   7.093 -0.6881 -0.0734  0.2115
   38POPC   H3X 5131   3.369   4.229   7.094 -0.6729 -0.2291 -3.6021
   38POPC   H3Y 5132   3.405   4.402   7.096  1.2138  0.8283  1.9962
   38POPC   C34 5133   3.546   4.286   7.212  0.1713 -1.0361 -0.2071
   38POPC   H4X 5134   3.622   4.367   7.220 -0.6960 -0.2827  0.5999
   38POPC   H4Y 5135   3.602   4.191   7.195  1.5184 -0.3749  0.4656
   38POPC   C35 5136   3.469   4.276   7.342 -0.2784 -0.1480 -0.5678
   38POPC   H5X 5137   3.406   4.185   7.344  1.6419 -1.4762  0.5953
   38POPC   H5Y 5138   3.406   4.366   7.360  0.0502  0.0411 -0.3672
   38POPC   C36 5139   3.564   4.271   7.461  0.1026  0.1454  0.2517
   38POPC   H6X 5140   3.632   4.356   7.478 -1.8385  2.0943 -1.3709
   38POPC   H6Y 5141   3.629   4.184   7.437  0.1291  0.4945 -0.9886
   38POPC   C37 5142   3.488   4.253   7.595  0.4309  0.4694  0.2781
   38POPC   H7X 5143   3.446   4.150   7.591 -0.5477  0.7116  2.9679
   38POPC   H7Y 5144   3.403   4.326   7.597  0.7516  0.9149 -1.4324
   38POPC   C38 5145   3.571   4.281   7.720 -0.6290  0.4616  0.6894
   38POPC   H8X 5146   3.634   4.373   7.711  1.0833 -0.6620  0.9095
   38POPC   H8Y 5147   3.641   4.200   7.750 -2.1700 -0.3449  2.1912
   38POPC   C39 5148   3.488   4.296   7.850 -0.3741 -0.0195 -0.4682
   38POPC   H9X 5149   3.429   4.202   7.856 -1.3528  0.5527 -1.1138
   38POPC   H9Y 5150   3.413   4.377   7.843 -0.9938 -0.4387  1.1492
   38POPC  C310 5151   3.573   4.316   7.976  0.0574  0.0265  0.2147
   38POPC  H10X 5152   3.648   4.395   7.954  0.6535 -0.9609 -1.3741
   38POPC  H10Y 5153   3.628   4.221   7.992  0.0808 -0.0326 -0.2178
   38POPC  C311 5154   3.487   4.357   8.099 -0.0551  0.3023  0.3469
   38POPC  H11X 5155   3.454   4.460   8.075  0.0585 -0.0205 -1.2579
   38POPC  H11Y 5156   3.552   4.367   8.188 -0.3136 -0.0554  0.5791
   38POPC  C312 5157   3.377   4.262   8.136  0.0080 -0.3092  0.0451
   38POPC  H12X 5158   3.413   4.157   8.136 -0.9026 -0.6435  1.5218
   38POPC  H12Y 5159   3.291   4.257   8.065  0.6053  1.7931 -0.8771
   38POPC  C313 5160   3.335   4.270   8.280 -0.6793  0.0505 -0.9773
   38POPC  H13X 5161   3.327   4.374   8.319  1.2038 -0.6336  1.3895
   38POPC  H13Y 5162   3.405   4.212   8.344 -1.1262 -0.8677 -1.3088
   38POPC  C314 5163   3.199   4.198   8.292 -0.0939 -0.7959 -0.0704
   38POPC  H14X 5164   3.177   4.180   8.399 -1.8944 -0.1517 -0.3146
   38POPC  H14Y 5165   3.201   4.095   8.252 -1.7805 -0.4929 -0.9994
   38POPC  C315 5166   3.080   4.276   8.231 -0.9977 -0.0631  0.6133
   38POPC  H15X 5167   3.085   4.285   8.121 -0.3677  1.1955  0.7381
   38POPC  H15Y 5168   3.096   4.380   8.267  0.0408 -0.0176  0.0492
   38POPC  C316 5169   2.943   4.216   8.264  0.2031 -0.2977 -0.2568
   38POPC  H16X 5170   2.936   4.112   8.226  1.1750 -2.2495  4.4997
   38POPC  H16Y 5171   2.855   4.278   8.235 -1.4474 -1.3329  2.3310
   38POPC  H16Z 5172   2.926   4.205   8.373 -4.3851  2.2618 -0.5669
   39POPC     N 5173   6.495   0.261   5.984  0.2368  0.3103 -0.2688
   39POPC   C12 5174   6.605   0.308   6.074  0.4208 -0.3433 -0.3738
   39POPC  H12A 5175   6.611   0.415   6.060  1.3598 -0.4817 -1.0245
   39POPC  H12B 5176   6.697   0.266   6.037  0.2830 -0.8716 -0.1231
   39POPC   C13 5177   6.450   0.114   5.997 -0.3513  0.0466 -0.1978
   39POPC  H13A 5178   6.397   0.106   6.091  0.6636 -1.6812  0.2438
   39POPC  H13B 5179   6.377   0.091   5.921  0.3444 -0.1008 -0.8281
   39POPC  H13C 5180   6.528   0.040   6.006 -1.3362 -0.8998  0.6414
   39POPC   C14 5181   6.372   0.336   6.011 -0.7755 -0.1953 -0.7591
   39POPC  H14A 5182   6.334   0.306   6.107  2.4169  3.3021  1.7313
   39POPC  H14B 5183   6.397   0.441   6.009  2.6134 -0.9392 -0.1438
   39POPC  H14C 5184   6.291   0.301   5.949 -1.4482  0.3091 -0.1727
   39POPC   C15 5185   6.547   0.285   5.850  0.5813 -0.3115  0.1484
   39POPC  H15A 5186   6.638   0.229   5.832  1.0266  0.2891  0.4790
   39POPC  H15B 5187   6.565   0.386   5.815  0.5464 -0.0585  0.8517
   39POPC  H15C 5188   6.482   0.249   5.772 -0.8388 -1.1740  1.6942
   39POPC   C11 5189   6.592   0.263   6.219 -0.5502  0.9789 -0.7670
   39POPC  H11A 5190   6.489   0.293   6.248 -0.5703  0.1650  0.0435
   39POPC  H11B 5191   6.659   0.327   6.281 -2.1156  1.7172  0.1887
   39POPC     P 5192   6.768   0.069   6.231 -0.3622  0.6038 -0.2001
   39POPC   O13 5193   6.832   0.116   6.105 -0.7517  0.5121  0.0805
   39POPC   O14 5194   6.773  -0.078   6.256 -0.5501 -0.7990 -0.3025
   39POPC   O12 5195   6.616   0.118   6.233  0.2866  0.0762 -0.0497
   39POPC   O11 5196   6.839   0.152   6.346  0.1800  0.5928  0.0478
   39POPC    C1 5197   6.878   0.098   6.476 -0.0751  0.3728 -0.6712
   39POPC    HA 5198   6.925   0.179   6.536 -0.6900  0.1407  0.1240
   39POPC    HB 5199   6.958   0.022   6.463 -0.1812  0.0714  0.4058
   39POPC    C2 5200   6.762   0.038   6.568  0.8108 -0.2687  0.0538
   39POPC    HS 5201   6.695  -0.031   6.512  1.3363 -0.1515 -0.7361
   39POPC   O21 5202   6.676   0.152   6.615 -0.4940  0.1490 -0.6014
   39POPC   C21 5203   6.560   0.117   6.657  0.3616 -0.3794  0.5130
   39POPC   O22 5204   6.524   0.004   6.683  0.6612 -0.2141 -0.5322
   39POPC   C22 5205   6.467   0.238   6.680 -0.2626 -0.9968  0.1296
   39POPC   H2R 5206   6.364   0.206   6.707  0.1701 -1.5088  1.2281
   39POPC   H2S 5207   6.458   0.297   6.587  0.3970 -0.0280  0.6708
   39POPC    C3 5208   6.824  -0.040   6.681 -0.0199  0.1448 -0.3022
   39POPC    HX 5209   6.885  -0.117   6.627 -1.7532 -0.9399 -0.7353
   39POPC    HY 5210   6.746  -0.096   6.737 -1.8229  1.9955 -0.9126
   39POPC   O31 5211   6.910   0.039   6.766 -0.3327 -0.1769  0.5023
   39POPC   C31 5212   6.982  -0.045   6.845  0.7181 -0.3564  0.5928
   39POPC   O32 5213   6.956  -0.160   6.863  0.3964  0.1277 -0.0939
   39POPC   C32 5214   7.095   0.036   6.923  0.0399 -0.4775 -0.1273
   39POPC   H2X 5215   7.185  -0.028   6.929 -1.3158 -2.7486 -2.8766
   39POPC   H2Y 5216   7.125   0.113   6.849 -0.4887  1.8867  2.0177
   39POPC   C23 5217   6.509   0.340   6.791 -0.4652  0.3895  0.8470
   39POPC   H3R 5218   6.612   0.379   6.777 -1.3735  3.0038  1.0976
   39POPC   H3S 5219   6.509   0.291   6.890  0.2441  0.6302  0.9632
   39POPC   C24 5220   6.414   0.462   6.796  0.0603  0.6096 -0.0919
   39POPC   H4R 5221   6.332   0.450   6.722  1.1069  2.4347 -1.5894
   39POPC   H4S 5222   6.458   0.563   6.783 -1.4770  1.3226  0.2375
   39POPC   C25 5223   6.343   0.474   6.933 -0.2165 -0.1277 -0.7167
   39POPC   H5R 5224   6.299   0.376   6.963 -3.5441  1.1555 -1.1575
   39POPC   H5S 5225   6.265   0.553   6.921 -1.3028 -0.9036  0.9852
   39POPC   C26 5226   6.435   0.523   7.045  0.1315 -0.0254  0.4277
   39POPC   H6R 5227   6.512   0.593   7.007 -0.3342  0.5267  0.4849
   39POPC   H6S 5228   6.484   0.429   7.077  1.7182  1.1195  1.4270
   39POPC   C27 5229   6.355   0.583   7.160 -0.3899 -0.2609 -0.3698
   39POPC   H7R 5230   6.282   0.515   7.208  1.1560 -0.9004  1.1500
   39POPC   H7S 5231   6.304   0.669   7.112 -3.0663 -1.9702 -0.6741
   39POPC   C28 5232   6.453   0.636   7.272 -0.8218  0.5331  0.0506
   39POPC   H8R 5233   6.524   0.712   7.234 -0.2730 -0.1037 -0.2008
   39POPC   H8S 5234   6.509   0.543   7.295  1.5363  2.5123  2.7437
   39POPC   C29 5235   6.376   0.682   7.397 -1.0552 -0.2928  1.1552
   39POPC   H91 5236   6.333   0.782   7.386 -0.0414  0.0573  0.2203
   39POPC  C210 5237   6.366   0.616   7.510 -0.2395  0.0287  0.3018
   39POPC  H101 5238   6.294   0.660   7.581  0.9450 -1.1486  2.2885
   39POPC  C211 5239   6.426   0.482   7.541 -0.9711 -0.2408  0.5406
   39POPC  H11R 5240   6.530   0.492   7.581 -1.0608  2.9688  0.1221
   39POPC  H11S 5241   6.424   0.415   7.453  2.8069  0.2388  0.0058
   39POPC  C212 5242   6.337   0.415   7.645  0.3493  0.2899  0.1059
   39POPC  H12R 5243   6.340   0.304   7.642 -2.0328  0.1961  0.1005
   39POPC  H12S 5244   6.230   0.412   7.615  0.6018 -2.5481 -0.7259
   39POPC  C213 5245   6.351   0.474   7.785  0.5324  0.5165 -0.0476
   39POPC  H13R 5246   6.276   0.419   7.846  0.3196  0.0908 -0.6971
   39POPC  H13S 5247   6.330   0.583   7.790 -1.1897  0.2082 -0.2854
   39POPC  C214 5248   6.490   0.454   7.852  0.3101  0.1360 -0.0827
   39POPC  H14R 5249   6.573   0.501   7.794  1.3549 -1.0724  0.4160
   39POPC  H14S 5250   6.513   0.346   7.853 -0.8073 -0.1000  0.9482
   39POPC  C215 5251   6.493   0.492   7.999  0.8185 -0.6250  0.5978
   39POPC  H15R 5252   6.398   0.465   8.049  0.0374 -0.2567 -0.6715
   39POPC  H15S 5253   6.517   0.599   8.019 -0.8593 -0.1933  0.3807
   39POPC  C216 5254   6.600   0.419   8.085  0.1391 -0.2539  0.0761
   39POPC  H16R 5255   6.651   0.487   8.156  0.2684  0.4391 -0.6620
   39POPC  H16S 5256   6.676   0.384   8.012  1.8010 -0.4718  1.8894
   39POPC  C217 5257   6.550   0.288   8.156  0.4861 -0.6238 -0.0033
   39POPC  H17R 5258   6.476   0.249   8.083  0.6078 -0.2087 -0.3465
   39POPC  H17S 5259   6.502   0.307   8.255  0.8926 -1.3665  0.3419
   39POPC  C218 5260   6.663   0.200   8.192  0.5331 -0.3544 -0.1985
   39POPC  H18R 5261   6.744   0.245   8.253  0.6441 -0.2342 -0.4324
   39POPC  H18S 5262   6.713   0.167   8.098  1.1725  3.5891 -1.3525
   39POPC  H18T 5263   6.631   0.113   8.252  1.6578  0.8035  2.1232
   39POPC   C33 5264   7.048   0.100   7.062  0.3736 -0.4199 -0.3151
   39POPC   H3X 5265   6.992   0.015   7.107  1.5951 -0.3956  1.2889
   39POPC   H3Y 5266   6.965   0.174   7.049  0.5244  0.0684  1.3741
   39POPC   C34 5267   7.162   0.147   7.152 -0.6573 -0.2737  0.2932
   39POPC   H4X 5268   7.221   0.225   7.099 -3.1279  0.9212 -0.7852
   39POPC   H4Y 5269   7.232   0.061   7.162 -0.4664 -0.2177 -0.5309
   39POPC   C35 5270   7.127   0.196   7.290 -0.7056  0.1422  0.0150
   39POPC   H5X 5271   7.129   0.101   7.347  0.9295  0.0996 -0.0882
   39POPC   H5Y 5272   7.030   0.249   7.298 -1.7364 -1.4529 -1.8331
   39POPC   C36 5273   7.233   0.292   7.359 -0.1992 -0.0309 -0.7976
   39POPC   H6X 5274   7.225   0.396   7.320 -0.9448  0.1607 -0.1381
   39POPC   H6Y 5275   7.341   0.267   7.351  0.0198 -0.0940  2.0405
   39POPC   C37 5276   7.216   0.289   7.510  0.6029  0.1365  0.7947
   39POPC   H7X 5277   7.108   0.280   7.535  0.4389  0.6385  0.2753
   39POPC   H7Y 5278   7.252   0.385   7.552 -0.4828  1.3905 -1.0602
   39POPC   C38 5279   7.291   0.169   7.568 -0.0653 -0.2280  0.0795
   39POPC   H8X 5280   7.383   0.150   7.509  0.0790 -3.0064  1.1297
   39POPC   H8Y 5281   7.217   0.086   7.559 -1.4801  1.1096 -0.9114
   39POPC   C39 5282   7.302   0.179   7.722 -0.3633 -0.3517  0.1234
   39POPC   H9X 5283   7.204   0.149   7.764 -2.1443  0.0061 -3.5880
   39POPC   H9Y 5284   7.318   0.287   7.745 -2.0644  0.1463 -0.9292
   39POPC  C310 5285   7.412   0.106   7.795 -0.5870 -0.6603  0.1570
   39POPC  H10X 5286   7.505   0.147   7.750 -0.6746  1.1057  1.5717
   39POPC  H10Y 5287   7.408   0.002   7.755 -0.6352 -0.4540 -0.3864
   39POPC  C311 5288   7.420   0.111   7.941 -0.2502 -0.6995  0.2181
   39POPC  H11X 5289   7.327   0.060   7.974 -0.0016 -1.1243  0.2710
   39POPC  H11Y 5290   7.409   0.218   7.971  0.3782 -0.6919  0.4427
   39POPC  C312 5291   7.532   0.042   8.015 -0.2736 -0.0436  0.3742
   39POPC  H12X 5292   7.625   0.102   8.001 -0.7428  0.6667  0.2379
   39POPC  H12Y 5293   7.539  -0.053   7.959 -0.9002  0.1769 -0.0884
   39POPC  C313 5294   7.503   0.025   8.165 -0.0096 -0.3807  0.2814
   39POPC  H13X 5295   7.410  -0.033   8.178 -1.9021  2.3967 -0.4102
   39POPC  H13Y 5296   7.474   0.122   8.211  5.6553  1.7315 -0.1469
   39POPC  C314 5297   7.620  -0.031   8.246  0.1558  0.1275  0.3920
   39POPC  H14X 5298   7.693   0.047   8.277 -1.5713  1.3741  1.4303
   39POPC  H14Y 5299   7.664  -0.099   8.170  1.7017  1.6755 -0.1448
   39POPC  C315 5300   7.579  -0.100   8.379  0.4280  0.2421  0.5197
   39POPC  H15X 5301   7.497  -0.170   8.351 -0.1990  1.7446 -1.5341
   39POPC  H15Y 5302   7.550  -0.023   8.454 -0.9966  0.6469 -0.4108
   39POPC  C316 5303   7.699  -0.186   8.440  0.0974 -0.1451 -0.2505
   39POPC  H16X 5304   7.729  -0.261   8.364  1.1735 -1.4583  1.4253
   39POPC  H16Y 5305   7.655  -0.238   8.527 -0.4513  0.0796 -0.3921
   39POPC  H16Z 5306   7.785  -0.124   8.474  0.8258 -1.5499  0.5090
   40POPC     N 5307   5.639   5.284   6.183 -0.0916 -0.1562  0.0759
   40POPC   C12 5308   5.598   5.134   6.196 -0.0273  0.6763 -0.4682
   40POPC  H12A 5309   5.601   5.082   6.101 -0.1858  0.9219 -0.6062
   40POPC  H12B 5310   5.494   5.133   6.227  0.4006  0.5250  1.0016
   40POPC   C13 5311   5.784   5.306   6.174 -0.3262  0.3821  0.3220
   40POPC  H13A 5312   5.838   5.269   6.088  1.2829  0.8577  1.1024
   40POPC  H13B 5313   5.799   5.412   6.183 -1.2342  0.5932 -0.5530
   40POPC  H13C 5314   5.840   5.262   6.256 -0.4147 -0.3707 -0.0215
   40POPC   C14 5315   5.582   5.349   6.067 -0.3917  0.6784  0.8687
   40POPC  H14A 5316   5.595   5.294   5.975  2.7585  0.3403  1.4364
   40POPC  H14B 5317   5.476   5.358   6.082 -0.6418 -1.8634  0.7594
   40POPC  H14C 5318   5.625   5.447   6.053 -1.5972  1.4467  2.3513
   40POPC   C15 5319   5.579   5.345   6.304 -0.1640 -0.0341  0.0459
   40POPC  H15A 5320   5.471   5.338   6.297 -0.1244 -0.0757 -0.5291
   40POPC  H15B 5321   5.614   5.447   6.312  1.9508 -0.4559 -2.8510
   40POPC  H15C 5322   5.611   5.283   6.386  2.9384  2.3503  0.7301
   40POPC   C11 5323   5.675   5.050   6.298 -0.1566 -0.0593 -0.2649
   40POPC  H11A 5324   5.635   4.951   6.329  3.0304 -1.0620  0.8916
   40POPC  H11B 5325   5.667   5.099   6.398 -0.6727  0.2520 -0.4586
   40POPC     P 5326   5.926   5.022   6.348  0.1925  0.0584 -0.1468
   40POPC   O13 5327   5.965   5.161   6.382  0.2877 -0.2120  0.6129
   40POPC   O14 5328   6.025   4.938   6.284 -0.3410 -0.3897 -0.0344
   40POPC   O12 5329   5.803   5.030   6.250 -0.1518  0.3083  0.0727
   40POPC   O11 5330   5.861   4.959   6.475  0.3017 -0.2534  0.2128
   40POPC    C1 5331   5.867   5.016   6.604  0.2393  0.1468 -0.5440
   40POPC    HA 5332   5.768   4.985   6.645  0.3400 -0.2749 -0.6184
   40POPC    HB 5333   5.874   5.127   6.603  0.3743  0.1485  0.5064
   40POPC    C2 5334   5.970   4.958   6.705  0.0903  0.2992  0.7064
   40POPC    HS 5335   6.073   4.973   6.666 -0.4261  0.5275 -0.5968
   40POPC   O21 5336   5.930   4.821   6.722  1.1257  0.1033  0.1689
   40POPC   C21 5337   6.012   4.736   6.770  0.2281  0.0275 -0.0397
   40POPC   O22 5338   6.122   4.756   6.815 -0.2027 -0.1132  0.1837
   40POPC   C22 5339   5.931   4.606   6.778  0.2979 -0.2765 -0.4480
   40POPC   H2R 5340   5.923   4.570   6.673  1.7520  0.1430 -0.7168
   40POPC   H2S 5341   5.830   4.633   6.814  1.7600  1.6159  2.4082
   40POPC    C3 5342   5.964   5.039   6.831  0.1467 -0.9147 -0.0321
   40POPC    HX 5343   5.864   5.022   6.876  0.5505  1.5340  1.9292
   40POPC    HY 5344   5.964   5.148   6.809 -0.8045 -1.1562 -1.2580
   40POPC   O31 5345   6.065   5.004   6.930  0.3168 -0.3931 -0.2606
   40POPC   C31 5346   6.185   5.059   6.906  0.2865  0.1786  0.2291
   40POPC   O32 5347   6.214   5.146   6.826  0.1397  0.0468 -0.0706
   40POPC   C32 5348   6.275   5.010   7.015 -0.0241 -0.6465  0.1538
   40POPC   H2X 5349   6.368   5.071   7.016  0.4617 -1.3896  0.3078
   40POPC   H2Y 5350   6.306   4.906   6.993 -1.2088 -1.3976  1.9387
   40POPC   C23 5351   5.992   4.496   6.874 -0.1697 -0.3810  0.3867
   40POPC   H3R 5352   6.102   4.489   6.860  0.3220  1.9843  2.7667
   40POPC   H3S 5353   5.943   4.400   6.848 -1.5737  1.2399 -3.5172
   40POPC   C24 5354   5.951   4.535   7.016  0.2482  0.0477  0.0893
   40POPC   H4R 5355   5.841   4.548   7.023  0.3396 -0.1006  2.1679
   40POPC   H4S 5356   5.996   4.630   7.053 -0.9351  0.5668  0.2101
   40POPC   C25 5357   6.001   4.433   7.127  0.3037 -0.3025 -0.1032
   40POPC   H5R 5358   6.105   4.405   7.101  0.1902 -1.6517  0.8481
   40POPC   H5S 5359   5.938   4.342   7.121  0.0225 -0.2615  1.9117
   40POPC   C26 5360   5.992   4.489   7.269  0.2388  0.5727 -0.7258
   40POPC   H6R 5361   5.891   4.528   7.290  1.2172  1.3657  2.8680
   40POPC   H6S 5362   6.045   4.587   7.274 -1.4087  1.6258 -2.9793
   40POPC   C27 5363   6.035   4.394   7.379  0.3155  0.7427  0.5653
   40POPC   H7R 5364   6.135   4.351   7.357 -0.4702 -0.9949  0.3209
   40POPC   H7S 5365   5.978   4.301   7.395  2.1017 -0.3587  0.6735
   40POPC   C28 5366   6.043   4.454   7.522  0.2844 -0.2954  0.1793
   40POPC   H8R 5367   6.129   4.524   7.511  0.2976  0.1248  2.6647
   40POPC   H8S 5368   6.073   4.379   7.598  0.2615 -0.8210 -0.3277
   40POPC   C29 5369   5.918   4.520   7.573  0.4416 -1.4785  0.4939
   40POPC   H91 5370   5.874   4.597   7.508  0.0660 -2.4952 -0.4772
   40POPC  C210 5371   5.855   4.498   7.693  1.0846  0.0488  0.0144
   40POPC  H101 5372   5.766   4.554   7.725  1.9792  1.8784 -0.6565
   40POPC  C211 5373   5.905   4.408   7.803 -1.0797 -0.5033  0.0377
   40POPC  H11R 5374   5.883   4.452   7.903 -2.6545 -1.7366  0.2487
   40POPC  H11S 5375   6.015   4.415   7.789 -1.0033 -0.2436  0.7372
   40POPC  C212 5376   5.875   4.261   7.790 -0.0297  0.5258 -0.8039
   40POPC  H12R 5377   5.925   4.230   7.696  2.2736  2.3580 -0.2361
   40POPC  H12S 5378   5.769   4.232   7.773 -0.3048  1.3194 -0.4701
   40POPC  C213 5379   5.924   4.176   7.914  0.2397 -0.3300 -0.1506
   40POPC  H13R 5380   6.032   4.189   7.936 -0.1068  4.7639 -0.8770
   40POPC  H13S 5381   5.909   4.069   7.888  1.3338 -0.5425  0.0675
   40POPC  C214 5382   5.843   4.214   8.041 -0.7645 -0.2109  0.1094
   40POPC  H14R 5383   5.740   4.188   8.008 -1.0003 -0.8054  1.2906
   40POPC  H14S 5384   5.838   4.321   8.072 -1.4993 -0.0591 -0.5092
   40POPC  C215 5385   5.852   4.115   8.155  0.1601 -0.5802  0.2384
   40POPC  H15R 5386   5.952   4.138   8.198  0.4820 -1.9956  0.2489
   40POPC  H15S 5387   5.856   4.014   8.109 -0.4797 -1.3346  1.7964
   40POPC  C216 5388   5.741   4.123   8.266  0.2300  0.6046  0.3969
   40POPC  H16R 5389   5.642   4.105   8.219  0.1983 -0.7353  0.9465
   40POPC  H16S 5390   5.746   4.227   8.303 -1.6173  1.5463 -1.8687
   40POPC  C217 5391   5.759   4.020   8.378  0.0136 -0.0228 -0.1632
   40POPC  H17R 5392   5.862   4.025   8.420 -0.3249  0.3365  0.6297
   40POPC  H17S 5393   5.762   3.919   8.331  0.2555 -1.3784  2.6700
   40POPC  C218 5394   5.656   4.016   8.485 -0.4146  0.0251  0.2488
   40POPC  H18R 5395   5.554   4.022   8.440 -0.5470  1.5526  0.7013
   40POPC  H18S 5396   5.671   4.100   8.557  0.5155  0.2810 -0.2403
   40POPC  H18T 5397   5.666   3.921   8.541 -1.6491  0.2491  0.8633
   40POPC   C33 5398   6.217   5.031   7.159  0.0831  0.0253  0.6682
   40POPC   H3X 5399   6.109   5.055   7.150 -0.3902 -1.7372  1.2941
   40POPC   H3Y 5400   6.264   5.117   7.211  2.4954 -0.1119 -1.1700
   40POPC   C34 5401   6.229   4.890   7.234 -0.2595  0.1240 -0.6428
   40POPC   H4X 5402   6.334   4.858   7.243 -0.2845 -0.0450 -0.9590
   40POPC   H4Y 5403   6.162   4.812   7.190  0.9355 -0.8522 -0.7413
   40POPC   C35 5404   6.184   4.906   7.381  0.1052  0.3697  0.4936
   40POPC   H5X 5405   6.077   4.919   7.404  0.0024  1.6479 -0.6419
   40POPC   H5Y 5406   6.234   4.998   7.419 -0.9060  0.5605  1.3699
   40POPC   C36 5407   6.214   4.780   7.456 -0.0714 -0.7698  0.1917
   40POPC   H6X 5408   6.323   4.762   7.451  0.2385  1.4060 -0.9838
   40POPC   H6Y 5409   6.162   4.695   7.405 -2.0853 -0.1403  1.1197
   40POPC   C37 5410   6.177   4.780   7.608  0.1492  0.1770  0.3670
   40POPC   H7X 5411   6.212   4.684   7.651 -0.2743  0.3239  1.0471
   40POPC   H7Y 5412   6.067   4.773   7.621  0.0019  1.8233  0.1565
   40POPC   C38 5413   6.240   4.893   7.686 -1.2312 -0.5188 -0.5698
   40POPC   H8X 5414   6.192   4.992   7.668 -2.6922 -1.2817 -0.9221
   40POPC   H8Y 5415   6.350   4.888   7.670 -1.0185  1.6348 -0.0008
   40POPC   C39 5416   6.225   4.867   7.840 -0.0590  0.3093  0.4518
   40POPC   H9X 5417   6.274   4.769   7.860  1.2587  1.1617  1.5214
   40POPC   H9Y 5418   6.116   4.877   7.859 -0.2781 -1.3013  0.0720
   40POPC  C310 5419   6.299   4.965   7.921 -0.5176  0.1356  0.5798
   40POPC  H10X 5420   6.255   5.067   7.923  0.9553  0.7782  1.6592
   40POPC  H10Y 5421   6.405   4.971   7.886 -0.7392 -0.0338 -0.1313
   40POPC  C311 5422   6.301   4.925   8.068  0.0924 -0.5447  0.1973
   40POPC  H11X 5423   6.211   4.877   8.113  0.1829  0.2620  1.2736
   40POPC  H11Y 5424   6.316   5.021   8.123 -0.1658 -0.9996  1.0836
   40POPC  C312 5425   6.436   4.846   8.092 -0.5554 -0.0576 -0.1851
   40POPC  H12X 5426   6.524   4.911   8.072 -0.8737  0.6107  0.5373
   40POPC  H12Y 5427   6.440   4.772   8.009  2.3352 -0.4861  0.2856
   40POPC  C313 5428   6.439   4.789   8.234 -0.1870  0.4978 -0.4829
   40POPC  H13X 5429   6.528   4.724   8.239 -0.4959 -0.1073 -2.4198
   40POPC  H13Y 5430   6.351   4.724   8.251 -0.6727  1.3860  0.4247
   40POPC  C314 5431   6.437   4.875   8.361 -0.5251  0.1886 -0.0396
   40POPC  H14X 5432   6.361   4.954   8.344 -0.3221  0.4293  0.1615
   40POPC  H14Y 5433   6.539   4.921   8.362 -0.4253 -0.0340  1.2370
   40POPC  C315 5434   6.411   4.784   8.480  0.3467  0.4410 -0.2689
   40POPC  H15X 5435   6.328   4.712   8.461  0.3404 -0.0138  1.3718
   40POPC  H15Y 5436   6.377   4.830   8.576 -0.7639 -0.9999  0.0511
   40POPC  C316 5437   6.524   4.690   8.521  0.6644 -0.1329  0.6156
   40POPC  H16X 5438   6.595   4.738   8.591 -0.1180  0.4799  1.0006
   40POPC  H16Y 5439   6.567   4.635   8.435 -0.3070  0.6855 -0.4053
   40POPC  H16Z 5440   6.484   4.615   8.593  0.0388 -1.0490 -0.6629
   41CHL1    C3 5441   5.116   2.280  10.003  0.8114 -0.1613 -0.2391
   41CHL1    H3 5442   5.220   2.243   9.994  0.0888 -2.2281 -0.3828
   41CHL1    O3 5443   5.071   2.290  10.136  0.1666  0.3450 -0.4110
   41CHL1   H3' 5444   4.976   2.280  10.132  0.0553  0.5719  1.3801
   41CHL1    C4 5445   5.122   2.414   9.928  1.0487 -0.8797 -0.4135
   41CHL1   H4A 5446   5.021   2.460   9.932  1.9029  1.0051 -0.0094
   41CHL1   H4B 5447   5.190   2.474   9.992  1.8906 -0.9219 -1.2602
   41CHL1    C5 5448   5.150   2.403   9.777 -0.0455 -0.6505 -0.2782
   41CHL1    C6 5449   5.240   2.475   9.711  0.8267  0.8144  0.4816
   41CHL1    H6 5450   5.298   2.550   9.766  0.9879  0.5626  0.6555
   41CHL1    C7 5451   5.268   2.473   9.565 -0.0776  0.6112  0.4418
   41CHL1   H7A 5452   5.297   2.575   9.532 -0.0841  0.4840  0.0380
   41CHL1   H7B 5453   5.359   2.409   9.552  0.6562  1.1616  2.6340
   41CHL1    C8 5454   5.155   2.408   9.480  0.1183  0.0475  0.3378
   41CHL1    H8 5455   5.067   2.475   9.482 -0.9077 -1.2756 -0.0823
   41CHL1   C14 5456   5.203   2.371   9.340  0.7569 -0.2792 -1.4070
   41CHL1   H14 5457   5.285   2.297   9.344  0.4731 -0.5857 -1.2565
   41CHL1   C15 5458   5.273   2.479   9.252  0.3711 -0.7268 -0.1007
   41CHL1  H15A 5459   5.203   2.566   9.252 -0.2535 -1.2195 -1.6375
   41CHL1  H15B 5460   5.373   2.511   9.289 -0.3810  2.2735 -0.5185
   41CHL1   C16 5461   5.291   2.408   9.128  0.8209 -0.3385 -0.3910
   41CHL1  H16A 5462   5.263   2.473   9.042 -0.2966 -1.2161 -0.7119
   41CHL1  H16B 5463   5.393   2.366   9.118  0.8588 -0.0385 -1.2991
   41CHL1   C17 5464   5.196   2.283   9.130 -0.0466  0.0423  0.2322
   41CHL1   H17 5465   5.266   2.201   9.157  2.5657  2.2186  0.2632
   41CHL1   C13 5466   5.104   2.302   9.252 -0.0442 -0.1458  0.1331
   41CHL1   C18 5467   4.996   2.401   9.208 -0.3881  0.1092 -0.9647
   41CHL1  H18A 5468   4.935   2.336   9.141  0.3908  1.7406 -3.3089
   41CHL1  H18B 5469   4.938   2.438   9.296 -0.7672 -1.1440 -0.6772
   41CHL1  H18C 5470   5.033   2.481   9.141 -0.7443  0.1012 -1.1709
   41CHL1   C12 5471   5.053   2.181   9.325  0.4776 -0.6627  0.0500
   41CHL1  H12A 5472   4.991   2.119   9.257  1.7331 -3.0016  0.9965
   41CHL1  H12B 5473   5.146   2.124   9.342  0.5934  0.0148  1.8138
   41CHL1   C11 5474   4.992   2.214   9.459  0.3577  0.4744 -0.1680
   41CHL1  H11A 5475   4.900   2.273   9.440  0.8631  0.5821 -2.4170
   41CHL1  H11B 5476   4.957   2.113   9.490 -0.6049  0.7964 -0.1940
   41CHL1    C9 5477   5.104   2.284   9.553  0.1382 -0.3518 -0.5095
   41CHL1    H9 5478   5.191   2.215   9.555  0.2178 -0.2504 -0.4865
   41CHL1   C10 5479   5.064   2.301   9.702 -0.0300 -0.2509  0.0440
   41CHL1   C19 5480   4.913   2.339   9.700 -0.4643 -0.4712 -0.1768
   41CHL1  H19A 5481   4.850   2.252   9.670  2.6915 -2.7907 -0.2519
   41CHL1  H19B 5482   4.882   2.368   9.803 -1.4711  2.7997 -1.3571
   41CHL1  H19C 5483   4.891   2.411   9.618 -1.8820 -1.1640 -0.4346
   41CHL1    C1 5484   5.079   2.164   9.777  0.3622  0.2505  0.4539
   41CHL1   H1A 5485   5.029   2.084   9.717 -0.7433  0.7757  0.6501
   41CHL1   H1B 5486   5.187   2.138   9.775  0.1487 -0.6127 -0.8117
   41CHL1    C2 5487   5.040   2.171   9.928 -0.0925 -0.1859  0.4594
   41CHL1   H2A 5488   5.069   2.071   9.968  1.0399 -0.2821 -0.5988
   41CHL1   H2B 5489   4.931   2.187   9.943  0.2433  1.9743  0.6994
   41CHL1   C20 5490   5.139   2.252   8.995 -0.5873  0.7620 -0.3298
   41CHL1   H20 5491   5.081   2.343   8.969  1.1920  2.2632  0.7869
   41CHL1   C21 5492   5.045   2.131   8.986  0.5208  0.3540  0.0757
   41CHL1  H21A 5493   5.109   2.044   9.011 -0.2499 -0.0897  0.5556
   41CHL1  H21B 5494   5.004   2.147   8.884  2.9607 -0.4292 -1.0542
   41CHL1  H21C 5495   4.965   2.131   9.063  2.2415  2.2455  1.9267
   41CHL1   C22 5496   5.245   2.252   8.875  0.7330 -0.4414  0.3618
   41CHL1  H22A 5497   5.189   2.220   8.784  0.7261  1.9341 -0.5013
   41CHL1  H22B 5498   5.291   2.352   8.858  0.5514 -0.1096  1.7664
   41CHL1   C23 5499   5.365   2.163   8.888 -1.0283  0.2001  0.4790
   41CHL1  H23A 5500   5.429   2.196   8.972  0.4773 -1.6218  0.0913
   41CHL1  H23B 5501   5.337   2.058   8.913  0.0516 -0.1323  0.3577
   41CHL1   C24 5502   5.444   2.155   8.756  0.3351  0.2136  0.0612
   41CHL1  H24A 5503   5.374   2.099   8.691  0.0658 -0.6411  1.0907
   41CHL1  H24B 5504   5.477   2.253   8.714  0.2641 -0.3691 -1.3662
   41CHL1   C25 5505   5.573   2.066   8.766  0.2517 -0.1817  0.1608
   41CHL1   H25 5506   5.548   1.965   8.803  0.4302  0.4669  2.0781
   41CHL1   C26 5507   5.634   2.059   8.627 -0.4942  0.3716  1.0735
   41CHL1  H26A 5508   5.678   2.156   8.597  1.2593 -0.6226  0.3576
   41CHL1  H26B 5509   5.727   1.999   8.633  0.5682  1.9791  0.9914
   41CHL1  H26C 5510   5.561   2.028   8.550 -2.3678  0.2964  2.8226
   41CHL1   C27 5511   5.677   2.120   8.867 -0.6152 -0.3655 -0.1358
   41CHL1  H27A 5512   5.732   2.200   8.813 -2.3425  1.0660  0.1781
   41CHL1  H27B 5513   5.620   2.143   8.960 -0.1184 -1.8715  0.5504
   41CHL1  H27C 5514   5.747   2.039   8.894 -1.8727 -1.1295  0.8817
   42CHL1    C3 5515   4.896   1.803   9.885  0.1643 -0.7373 -0.2833
   42CHL1    H3 5516   4.949   1.901   9.877  0.2513 -0.9161 -1.9656
   42CHL1    O3 5517   4.899   1.780  10.022  0.9781  0.1090  0.2918
   42CHL1   H3' 5518   4.870   1.689  10.032  0.4146 -0.0077 -2.0123
   42CHL1    C4 5519   4.747   1.820   9.842  0.2240  0.3660 -0.1592
   42CHL1   H4A 5520   4.694   1.727   9.871  0.2499 -0.4109 -2.4803
   42CHL1   H4B 5521   4.708   1.899   9.909 -0.1835 -0.7604  0.9554
   42CHL1    C5 5522   4.735   1.856   9.698  0.2499  0.0732  0.8935
   42CHL1    C6 5523   4.667   1.962   9.653 -0.1143 -0.3210 -0.9754
   42CHL1    H6 5524   4.624   2.027   9.731  1.9014 -2.0187  1.6429
   42CHL1    C7 5525   4.635   1.992   9.509 -0.0295 -0.5795  0.4356
   42CHL1   H7A 5526   4.528   2.017   9.493 -0.0276  0.4337  1.9007
   42CHL1   H7B 5527   4.695   2.082   9.486 -1.3203  0.4347  0.9739
   42CHL1    C8 5528   4.670   1.878   9.410  0.2504  0.6932 -0.8014
   42CHL1    H8 5529   4.590   1.802   9.424  0.5697  0.7062  1.2688
   42CHL1   C14 5530   4.677   1.930   9.269  0.2055  0.3676  0.1980
   42CHL1   H14 5531   4.758   2.003   9.249 -0.4275  0.5946 -1.6952
   42CHL1   C15 5532   4.560   2.014   9.210 -0.1120 -0.7772  0.4781
   42CHL1  H15A 5533   4.466   1.958   9.230 -1.0995 -0.2332 -2.3636
   42CHL1  H15B 5534   4.569   2.120   9.242 -0.7720 -0.6125  0.1275
   42CHL1   C16 5535   4.591   2.001   9.056 -0.6049 -0.0886  0.1680
   42CHL1  H16A 5536   4.502   1.962   9.003  1.4610 -4.3993 -0.2860
   42CHL1  H16B 5537   4.626   2.100   9.019  0.3367  0.1085  1.5455
   42CHL1   C17 5538   4.701   1.899   9.034 -0.3447 -0.6144 -0.3167
   42CHL1   H17 5539   4.797   1.955   9.042 -0.2470 -0.8410  0.0760
   42CHL1   C13 5540   4.708   1.812   9.166  0.1810 -0.9615  0.5815
   42CHL1   C18 5541   4.599   1.697   9.163 -0.5169  0.1733  0.8607
   42CHL1  H18A 5542   4.597   1.664   9.270  4.0220  1.6515  1.5164
   42CHL1  H18B 5543   4.502   1.725   9.118  1.2310  0.4137 -2.9066
   42CHL1  H18C 5544   4.634   1.606   9.109 -2.6277 -1.7156  2.5618
   42CHL1   C12 5545   4.843   1.750   9.210  0.3574 -0.0313 -0.1234
   42CHL1  H12A 5546   4.877   1.666   9.147 -0.2878  0.4897 -1.1756
   42CHL1  H12B 5547   4.915   1.831   9.185 -0.0891  0.3174 -0.2917
   42CHL1   C11 5548   4.854   1.697   9.350 -0.2294 -0.9174 -0.4190
   42CHL1  H11A 5549   4.810   1.595   9.360 -1.7360 -0.2844 -0.5084
   42CHL1  H11B 5550   4.962   1.678   9.364  0.4594  2.3551 -0.8600
   42CHL1    C9 5551   4.805   1.800   9.455 -0.0996  0.1843  0.3632
   42CHL1    H9 5552   4.872   1.888   9.464 -1.8398  1.5612  0.2667
   42CHL1   C10 5553   4.794   1.749   9.605 -0.2240 -0.5718 -0.3253
   42CHL1   C19 5554   4.702   1.624   9.618  0.1854  0.0672  0.1419
   42CHL1  H19A 5555   4.698   1.593   9.724 -1.3371 -0.9651 -0.1890
   42CHL1  H19B 5556   4.595   1.644   9.594  0.2275  0.8731  0.6337
   42CHL1  H19C 5557   4.743   1.535   9.566  0.6505  0.6224 -0.4509
   42CHL1    C1 5558   4.937   1.708   9.655 -0.2205 -0.1224 -0.7292
   42CHL1   H1A 5559   4.975   1.618   9.604 -2.2086 -0.7545 -1.1209
   42CHL1   H1B 5560   5.000   1.792   9.618  0.8046 -0.2001  0.7852
   42CHL1    C2 5561   4.956   1.688   9.803  0.6478 -0.3808 -0.2500
   42CHL1   H2A 5562   5.065   1.677   9.822  0.5651 -0.8269 -0.0160
   42CHL1   H2B 5563   4.908   1.590   9.826 -2.2622  1.2528  0.7972
   42CHL1   C20 5564   4.690   1.830   8.892  0.3095 -0.2268  0.0151
   42CHL1   H20 5565   4.610   1.753   8.893 -1.2452  1.3745  2.1105
   42CHL1   C21 5566   4.832   1.769   8.857  0.5726 -0.0034  0.0429
   42CHL1  H21A 5567   4.863   1.680   8.917 -3.2065 -2.0935 -0.9618
   42CHL1  H21B 5568   4.912   1.842   8.883  0.0923  1.5495 -2.6155
   42CHL1  H21C 5569   4.833   1.741   8.749 -3.2650 -0.6659  0.1319
   42CHL1   C22 5570   4.655   1.929   8.784  0.1452 -0.6843 -0.7432
   42CHL1  H22A 5571   4.628   1.865   8.696  2.3062 -0.4607 -1.5926
   42CHL1  H22B 5572   4.562   1.987   8.804  1.7035  1.6627 -0.1903
   42CHL1   C23 5573   4.767   2.031   8.753  0.3643 -0.1384 -0.7367
   42CHL1  H23A 5574   4.807   2.074   8.848 -1.2751  3.1507 -1.4666
   42CHL1  H23B 5575   4.858   1.986   8.706  0.2401  0.3784 -1.4755
   42CHL1   C24 5576   4.728   2.137   8.648  0.6817  0.4188 -0.1203
   42CHL1  H24A 5577   4.717   2.096   8.546 -0.8188 -0.4584  0.3942
   42CHL1  H24B 5578   4.627   2.173   8.675  1.0645  2.1864 -0.9665
   42CHL1   C25 5579   4.824   2.257   8.642 -1.2010 -0.4711 -0.0044
   42CHL1   H25 5580   4.928   2.218   8.644 -1.1841 -0.4536 -0.6584
   42CHL1   C26 5581   4.797   2.343   8.517 -0.2568  0.4180 -0.2908
   42CHL1  H26A 5582   4.688   2.365   8.509 -0.3974 -0.0331  0.3686
   42CHL1  H26B 5583   4.851   2.440   8.514 -0.7105  0.6740 -0.3777
   42CHL1  H26C 5584   4.813   2.289   8.421 -2.4273 -0.2951 -0.2844
   42CHL1   C27 5585   4.817   2.357   8.767 -0.2945 -0.3714  0.1820
   42CHL1  H27A 5586   4.889   2.439   8.745  0.8366 -1.1815  0.8301
   42CHL1  H27B 5587   4.711   2.390   8.774  0.2667  2.0495 -2.0874
   42CHL1  H27C 5588   4.848   2.302   8.859  0.1337 -4.2948 -2.2023
   43CHL1    C3 5589   5.569   2.003  10.012  0.2818  0.1786 -0.4301
   43CHL1    H3 5590   5.670   2.019   9.968  1.0392 -3.2637 -0.0546
   43CHL1    O3 5591   5.568   2.051  10.147 -0.7625  0.6030  0.1043
   43CHL1   H3' 5592   5.480   2.088  10.154 -1.4146 -0.7293 -0.7108
   43CHL1    C4 5593   5.455   2.069   9.943 -0.0538 -0.7618  0.1002
   43CHL1   H4A 5594   5.359   2.046   9.994  0.8320  2.5398  3.4308
   43CHL1   H4B 5595   5.467   2.178   9.959 -0.3941 -0.9440  1.6215
   43CHL1    C5 5596   5.459   2.034   9.799  0.9986  0.6001 -0.7159
   43CHL1    C6 5597   5.472   2.115   9.696 -0.4122  0.2865 -0.0594
   43CHL1    H6 5598   5.484   2.222   9.721  1.9102 -0.4786  2.3125
   43CHL1    C7 5599   5.479   2.089   9.550 -0.4822 -0.0104  0.5554
   43CHL1   H7A 5600   5.404   2.154   9.500 -1.8385 -0.9343  1.3556
   43CHL1   H7B 5601   5.580   2.112   9.508  0.3339 -1.5768  1.5937
   43CHL1    C8 5602   5.437   1.945   9.516  0.0621  0.0474  0.0151
   43CHL1    H8 5603   5.326   1.941   9.520 -0.0291  1.4241 -0.8001
   43CHL1   C14 5604   5.490   1.901   9.378  0.3527 -0.4412 -0.0702
   43CHL1   H14 5605   5.598   1.914   9.398  0.3252 -1.2569  0.6480
   43CHL1   C15 5606   5.460   2.003   9.264  0.1566 -0.2965  0.4894
   43CHL1  H15A 5607   5.356   2.038   9.286 -0.0518  0.8905 -2.2372
   43CHL1  H15B 5608   5.521   2.095   9.254 -0.3875 -0.3661 -4.0795
   43CHL1   C16 5609   5.471   1.909   9.141 -0.2887  0.4318  0.3447
   43CHL1  H16A 5610   5.375   1.924   9.087 -1.4727  2.1860  2.8203
   43CHL1  H16B 5611   5.547   1.946   9.069  1.3393 -1.3513  1.1056
   43CHL1   C17 5612   5.506   1.767   9.195  0.1194 -0.0183 -0.2734
   43CHL1   H17 5613   5.617   1.764   9.201 -0.0399 -1.9654  1.9556
   43CHL1   C13 5614   5.461   1.758   9.343 -0.1910 -0.3564  0.3439
   43CHL1   C18 5615   5.309   1.747   9.335  0.1748 -0.1919 -0.0457
   43CHL1  H18A 5616   5.281   1.640   9.327  0.1197  0.0401 -3.7213
   43CHL1  H18B 5617   5.259   1.791   9.424  2.4133  1.8824  0.2302
   43CHL1  H18C 5618   5.263   1.806   9.253 -1.6180 -1.3310  0.1105
   43CHL1   C12 5619   5.512   1.656   9.443  0.5655 -0.3927 -0.0185
   43CHL1  H12A 5620   5.479   1.554   9.415  0.9852 -0.6911  0.5693
   43CHL1  H12B 5621   5.621   1.677   9.443  1.2169 -3.4504 -1.4982
   43CHL1   C11 5622   5.462   1.697   9.581  0.0636  1.1793 -0.3600
   43CHL1  H11A 5623   5.359   1.659   9.599  0.8733 -0.9967 -0.1084
   43CHL1  H11B 5624   5.526   1.636   9.648  0.0129  1.2852 -0.2136
   43CHL1    C9 5625   5.489   1.840   9.629  1.2226  0.1505  0.2406
   43CHL1    H9 5626   5.599   1.858   9.625  0.8049  3.0343  0.8810
   43CHL1   C10 5627   5.448   1.880   9.778 -0.0719 -0.4585 -0.0349
   43CHL1   C19 5628   5.302   1.847   9.791  0.6617 -0.3616 -0.4874
   43CHL1  H19A 5629   5.240   1.895   9.713 -0.4410  1.7282  1.6106
   43CHL1  H19B 5630   5.290   1.736   9.787 -0.3387 -0.3158  0.8914
   43CHL1  H19C 5631   5.263   1.874   9.891  1.6952 -1.2133  0.1674
   43CHL1    C1 5632   5.532   1.802   9.880  0.5332 -0.1170 -0.3373
   43CHL1   H1A 5633   5.494   1.697   9.881 -1.4004  0.5748  2.3592
   43CHL1   H1B 5634   5.638   1.805   9.849  0.9398  1.5369  1.1681
   43CHL1    C2 5635   5.534   1.859  10.018  0.1425 -0.2489 -0.0907
   43CHL1   H2A 5636   5.611   1.808  10.080  0.9728  0.1741 -0.7750
   43CHL1   H2B 5637   5.444   1.848  10.082  0.3505 -0.0234  0.2400
   43CHL1   C20 5638   5.472   1.650   9.099  0.1672  0.2354 -0.6712
   43CHL1   H20 5639   5.370   1.610   9.115 -0.1384  0.8519 -1.0335
   43CHL1   C21 5640   5.566   1.531   9.136  0.6184 -0.5428  1.1777
   43CHL1  H21A 5641   5.554   1.495   9.241 -2.2794  0.0164  1.0735
   43CHL1  H21B 5642   5.667   1.557   9.097 -0.0052 -0.2837 -0.2656
   43CHL1  H21C 5643   5.538   1.448   9.068 -2.2574  1.8048 -0.5749
   43CHL1   C22 5644   5.487   1.694   8.949  0.3881  0.4814  0.4592
   43CHL1  H22A 5645   5.429   1.785   8.923  0.2318 -0.0908 -1.2568
   43CHL1  H22B 5646   5.582   1.749   8.934  1.3107 -1.3780 -0.5835
   43CHL1   C23 5647   5.476   1.587   8.842  1.2325  0.2950 -0.4888
   43CHL1  H23A 5648   5.577   1.539   8.843  1.8949  1.6587 -0.0566
   43CHL1  H23B 5649   5.396   1.518   8.874  0.2378  2.0583  0.8607
   43CHL1   C24 5650   5.447   1.631   8.691 -0.0189  1.2513  0.1293
   43CHL1  H24A 5651   5.498   1.726   8.666  2.1968  0.0391 -0.0756
   43CHL1  H24B 5652   5.482   1.551   8.622  1.6803  0.0522  2.2783
   43CHL1   C25 5653   5.294   1.648   8.660  1.1609  0.4984  0.2779
   43CHL1   H25 5654   5.247   1.552   8.692  1.7107 -0.0577 -0.5480
   43CHL1   C26 5655   5.227   1.762   8.742  0.4656 -0.2622 -0.2515
   43CHL1  H26A 5656   5.127   1.763   8.695  0.0381 -2.0808  0.5619
   43CHL1  H26B 5657   5.216   1.744   8.851 -3.1022 -1.1917 -0.6992
   43CHL1  H26C 5658   5.271   1.862   8.721  0.6782 -0.1617  0.6163
   43CHL1   C27 5659   5.270   1.675   8.505 -0.0747 -0.4281 -0.0035
   43CHL1  H27A 5660   5.283   1.582   8.446  0.5063 -0.9165  0.8730
   43CHL1  H27B 5661   5.168   1.719   8.495 -0.9149 -2.6065 -1.4982
   43CHL1  H27C 5662   5.346   1.741   8.459 -0.5267 -0.2710 -0.5240
   44CHL1    C3 5663   5.889   2.321  10.284  0.2834  0.4228 -0.6786
   44CHL1    H3 5664   5.920   2.226  10.236  0.4584 -0.0728  0.4025
   44CHL1    O3 5665   5.884   2.324  10.428  0.3417  0.0853  0.6193
   44CHL1   H3' 5666   5.812   2.384  10.447  0.4500 -0.0514  1.4859
   44CHL1    C4 5667   5.971   2.442  10.238  0.2210  0.1062  0.6539
   44CHL1   H4A 5668   5.918   2.533  10.274 -2.2534 -0.9283 -0.1959
   44CHL1   H4B 5669   6.072   2.434  10.282  0.6081 -0.8072 -0.3806
   44CHL1    C5 5670   5.975   2.448  10.087  0.1188  0.0188  0.2643
   44CHL1    C6 5671   6.092   2.437  10.024  0.9431 -0.2487 -0.6488
   44CHL1    H6 5672   6.183   2.423  10.083  0.7334 -3.3697 -0.9505
   44CHL1    C7 5673   6.119   2.439   9.879  0.0024  0.4568  0.3097
   44CHL1   H7A 5674   6.192   2.516   9.845 -2.0668  1.5836 -1.7339
   44CHL1   H7B 5675   6.162   2.341   9.852 -3.5348 -1.0936 -0.0128
   44CHL1    C8 5676   5.983   2.466   9.810 -0.3837  0.4965  0.3177
   44CHL1    H8 5677   5.970   2.576   9.806 -0.7832  0.4028 -2.4684
   44CHL1   C14 5678   5.994   2.422   9.668 -0.3508 -0.8066  0.5700
   44CHL1   H14 5679   6.000   2.311   9.668  2.8103 -0.6929 -1.7905
   44CHL1   C15 5680   6.114   2.466   9.586 -0.7533  0.1651 -0.0520
   44CHL1  H15A 5681   6.149   2.568   9.608  0.4708 -0.4064  0.7086
   44CHL1  H15B 5682   6.189   2.394   9.626  0.0796  1.6790  1.1324
   44CHL1   C16 5683   6.076   2.441   9.436  0.2234 -0.3509  0.2622
   44CHL1  H16A 5684   6.087   2.543   9.394 -0.0028 -0.0467  0.9333
   44CHL1  H16B 5685   6.131   2.364   9.377 -1.5166  0.2057 -2.1943
   44CHL1   C17 5686   5.922   2.408   9.440  0.2067 -0.7912  0.4421
   44CHL1   H17 5687   5.910   2.297   9.431 -1.3097 -0.5963 -0.1893
   44CHL1   C13 5688   5.874   2.445   9.575 -0.1343  1.0355 -0.0200
   44CHL1   C18 5689   5.837   2.596   9.579  0.3613 -0.4642 -0.1610
   44CHL1  H18A 5690   5.738   2.606   9.529  0.0819 -2.1243  0.0281
   44CHL1  H18B 5691   5.823   2.634   9.682 -0.1690 -0.2619 -0.3074
   44CHL1  H18C 5692   5.921   2.653   9.534  0.5788 -0.1066  0.6783
   44CHL1   C12 5693   5.764   2.357   9.633  0.0531 -0.2398  0.2198
   44CHL1  H12A 5694   5.670   2.346   9.575 -0.0345 -2.9252  0.7968
   44CHL1  H12B 5695   5.801   2.253   9.650  2.1154  0.4001 -0.2305
   44CHL1   C11 5696   5.730   2.397   9.778 -0.2629  0.1917  0.0327
   44CHL1  H11A 5697   5.685   2.498   9.775 -0.1459  0.2794  0.9499
   44CHL1  H11B 5698   5.654   2.326   9.817  1.8621 -1.7265  0.8704
   44CHL1    C9 5699   5.862   2.393   9.869  0.2254 -0.7420  0.2505
   44CHL1    H9 5700   5.885   2.284   9.870 -1.6675 -1.1573  1.2430
   44CHL1   C10 5701   5.841   2.433  10.015 -0.0365 -0.3516  0.4163
   44CHL1   C19 5702   5.790   2.583  10.008  0.6250  0.4396  0.1478
   44CHL1  H19A 5703   5.707   2.599   9.935  0.5358  0.4884  0.2584
   44CHL1  H19B 5704   5.750   2.614  10.107 -3.0588  0.1043 -1.1512
   44CHL1  H19C 5705   5.868   2.657   9.981  1.4971 -0.4684  0.1356
   44CHL1    C1 5706   5.743   2.342  10.078 -0.1551  0.6875 -0.2340
   44CHL1   H1A 5707   5.640   2.376  10.052  0.1488  0.3735 -1.8992
   44CHL1   H1B 5708   5.765   2.240  10.040  2.0877  0.5170  1.4150
   44CHL1    C2 5709   5.739   2.340  10.234 -0.1390 -0.4958  0.2196
   44CHL1   H2A 5710   5.680   2.255  10.273  0.6776 -1.0530  0.2538
   44CHL1   H2B 5711   5.710   2.440  10.271  0.7390  0.5638 -1.8508
   44CHL1   C20 5712   5.842   2.450   9.315 -0.2486 -0.5226 -0.8826
   44CHL1   H20 5713   5.843   2.561   9.310  1.4617 -0.5435 -1.3432
   44CHL1   C21 5714   5.693   2.403   9.323  0.0038 -0.6674  0.0397
   44CHL1  H21A 5715   5.632   2.466   9.391  2.3263  1.4846  0.1945
   44CHL1  H21B 5716   5.690   2.299   9.362  2.3128 -1.0442 -0.7044
   44CHL1  H21C 5717   5.644   2.407   9.223  0.6247 -0.3026 -0.2538
   44CHL1   C22 5718   5.912   2.399   9.188  0.1665  1.1300  0.4807
   44CHL1  H22A 5719   6.018   2.428   9.198  0.1239  1.1840  0.7782
   44CHL1  H22B 5720   5.896   2.289   9.177  0.1606  1.2569 -0.8330
   44CHL1   C23 5721   5.862   2.467   9.061 -0.1197  0.1842  0.1410
   44CHL1  H23A 5722   5.754   2.443   9.050 -0.0873  0.0784  0.0526
   44CHL1  H23B 5723   5.887   2.575   9.054  1.4699 -0.3798 -3.7059
   44CHL1   C24 5724   5.920   2.397   8.938 -0.6939  0.0709 -0.2551
   44CHL1  H24A 5725   6.030   2.403   8.955 -0.8212  0.0332  0.5788
   44CHL1  H24B 5726   5.881   2.294   8.926 -0.4004  0.0736 -1.3160
   44CHL1   C25 5727   5.897   2.477   8.807  0.0407 -0.4425  0.2575
   44CHL1   H25 5728   5.944   2.577   8.820 -2.5157  0.9278 -0.7372
   44CHL1   C26 5729   5.967   2.407   8.694 -0.3321 -0.1305  0.1071
   44CHL1  H26A 5730   6.078   2.404   8.706  0.2938  2.1400 -4.1863
   44CHL1  H26B 5731   5.943   2.298   8.693 -2.2200  0.2731 -1.8611
   44CHL1  H26C 5732   5.951   2.442   8.589  1.5947 -3.2276 -1.3103
   44CHL1   C27 5733   5.745   2.489   8.773 -0.7354 -0.2720  0.2216
   44CHL1  H27A 5734   5.682   2.494   8.864 -0.7932  1.5428  0.1014
   44CHL1  H27B 5735   5.724   2.583   8.717  4.2803  1.2880  0.7381
   44CHL1  H27C 5736   5.712   2.413   8.699 -3.0915 -0.5991  1.5563
   45CHL1    C3 5737   2.615   0.791  10.246  0.8541  0.1354 -0.0387
   45CHL1    H3 5738   2.719   0.782  10.282  0.8440 -1.7800 -0.4372
   45CHL1    O3 5739   2.516   0.767  10.341 -0.1462 -0.2673  0.3843
   45CHL1   H3' 5740   2.435   0.770  10.289  0.7391 -2.4199 -1.2160
   45CHL1    C4 5741   2.594   0.925  10.179 -0.3377  0.2144 -0.4731
   45CHL1   H4A 5742   2.494   0.925  10.132  0.4859 -1.0461 -2.3127
   45CHL1   H4B 5743   2.590   1.001  10.260 -1.8011 -1.8241  1.3948
   45CHL1    C5 5744   2.697   0.958  10.067 -0.5072 -0.4383 -0.1747
   45CHL1    C6 5745   2.781   1.065  10.081 -0.8031  0.1345 -0.0166
   45CHL1    H6 5746   2.771   1.133  10.166  0.1555  1.3129 -0.8367
   45CHL1    C7 5747   2.895   1.095   9.988  0.2064  0.3295  0.6048
   45CHL1   H7A 5748   2.905   1.204   9.975 -0.4370  0.3934  0.6162
   45CHL1   H7B 5749   2.997   1.065  10.020 -0.7396 -0.9392  2.5256
   45CHL1    C8 5750   2.873   1.016   9.847  0.0393 -0.1237 -0.8956
   45CHL1    H8 5751   2.975   1.013   9.803  0.2150  0.5099 -0.5513
   45CHL1   C14 5752   2.781   1.093   9.750  0.4076 -0.3978  0.3277
   45CHL1   H14 5753   2.686   1.114   9.802 -1.3446  1.1047 -3.3017
   45CHL1   C15 5754   2.863   1.222   9.708  0.9180  0.6886 -0.4086
   45CHL1  H15A 5755   2.801   1.311   9.731 -2.0731 -1.2465 -0.7391
   45CHL1  H15B 5756   2.958   1.224   9.767 -0.5670  0.7413  2.0601
   45CHL1   C16 5757   2.891   1.212   9.563  0.3054 -0.3748  0.8322
   45CHL1  H16A 5758   2.827   1.287   9.511  1.8902  2.4923  2.9332
   45CHL1  H16B 5759   2.994   1.233   9.529  0.0456  0.9431  0.8331
   45CHL1   C17 5760   2.847   1.070   9.519 -0.6693 -0.0412 -0.6012
   45CHL1   H17 5761   2.938   1.008   9.539 -0.0878  0.7686 -0.7292
   45CHL1   C13 5762   2.742   1.018   9.622 -0.1329 -0.3761  0.0986
   45CHL1   C18 5763   2.597   1.058   9.580  0.7316  0.3132 -0.3485
   45CHL1  H18A 5764   2.567   0.982   9.505 -0.8098  0.9230 -0.3772
   45CHL1  H18B 5765   2.519   1.046   9.658  0.2958 -1.0755 -0.9685
   45CHL1  H18C 5766   2.590   1.159   9.534 -0.7394  0.0391 -0.7404
   45CHL1   C12 5767   2.746   0.856   9.623 -0.4044  0.2861  0.2900
   45CHL1  H12A 5768   2.642   0.822   9.640  0.0939 -1.2972  0.2837
   45CHL1  H12B 5769   2.774   0.809   9.526 -1.1890  2.2396 -0.9138
   45CHL1   C11 5770   2.830   0.790   9.741 -0.1825  0.5524 -0.0371
   45CHL1  H11A 5771   2.807   0.683   9.758 -1.6164  1.0416  1.2393
   45CHL1  H11B 5772   2.931   0.791   9.696  0.3751  0.7099  1.2108
   45CHL1    C9 5773   2.831   0.870   9.869  0.6559 -0.0110  0.3883
   45CHL1    H9 5774   2.917   0.822   9.921  2.1963 -1.0686 -3.0333
   45CHL1   C10 5775   2.701   0.848   9.960  0.3441 -0.5226 -0.4527
   45CHL1   C19 5776   2.570   0.854   9.877 -0.3339  0.1378  0.3442
   45CHL1  H19A 5777   2.564   0.941   9.809  1.4783 -0.4377 -0.5832
   45CHL1  H19B 5778   2.561   0.762   9.815 -3.5863  1.8835 -1.8623
   45CHL1  H19C 5779   2.480   0.856   9.943  0.8136 -1.1958  2.0262
   45CHL1    C1 5780   2.711   0.708  10.026  0.4123  0.2672  0.7579
   45CHL1   H1A 5781   2.693   0.628   9.951 -0.5615  1.3244 -0.1668
   45CHL1   H1B 5782   2.809   0.690  10.075  0.6881 -2.6399 -0.7796
   45CHL1    C2 5783   2.602   0.688  10.131 -0.0858 -0.0354 -0.3619
   45CHL1   H2A 5784   2.605   0.589  10.182  0.0875 -0.1724 -0.6374
   45CHL1   H2B 5785   2.501   0.703  10.087  0.3714  1.9841 -0.7271
   45CHL1   C20 5786   2.818   1.046   9.362 -0.1648 -0.1494 -0.3395
   45CHL1   H20 5787   2.761   0.950   9.358 -2.3126  0.9679  1.9799
   45CHL1   C21 5788   2.961   1.009   9.306  0.5104 -0.7362 -0.3446
   45CHL1  H21A 5789   3.021   1.102   9.308  0.6609 -0.8457  0.2763
   45CHL1  H21B 5790   2.954   0.964   9.204 -1.6931 -0.3242 -0.4089
   45CHL1  H21C 5791   3.004   0.923   9.361 -1.2797 -0.5731  1.3787
   45CHL1   C22 5792   2.750   1.156   9.279  0.8879 -0.0020 -0.4092
   45CHL1  H22A 5793   2.647   1.173   9.317  0.6137 -0.9310 -0.6953
   45CHL1  H22B 5794   2.803   1.253   9.276  0.5548  0.1276 -2.8714
   45CHL1   C23 5795   2.730   1.115   9.132  0.5816 -0.4880 -0.2937
   45CHL1  H23A 5796   2.812   1.139   9.061 -1.4456  1.4525 -2.0581
   45CHL1  H23B 5797   2.710   1.006   9.127 -1.1760 -0.3345  2.4353
   45CHL1   C24 5798   2.624   1.195   9.061  0.8611 -0.9155 -0.4025
   45CHL1  H24A 5799   2.520   1.172   9.093  0.9555 -0.6046  0.1373
   45CHL1  H24B 5800   2.642   1.304   9.076 -1.2670 -0.2690 -2.2254
   45CHL1   C25 5801   2.612   1.181   8.908 -0.3166 -0.4265 -0.3711
   45CHL1   H25 5802   2.528   1.247   8.879  0.3196 -0.2755 -1.9487
   45CHL1   C26 5803   2.742   1.240   8.837  0.3731  0.2685 -0.3088
   45CHL1  H26A 5804   2.718   1.223   8.730 -0.5843  1.9381 -0.3798
   45CHL1  H26B 5805   2.777   1.345   8.846  0.8775  0.0532  0.2683
   45CHL1  H26C 5806   2.830   1.179   8.867  0.8246  2.0166  2.0278
   45CHL1   C27 5807   2.592   1.036   8.854  0.1880  0.3433  0.0808
   45CHL1  H27A 5808   2.683   0.972   8.858  0.3391  0.6492  1.7260
   45CHL1  H27B 5809   2.521   0.987   8.924 -1.0258  1.0442 -0.6312
   45CHL1  H27C 5810   2.546   1.045   8.753  1.9038 -0.0040 -0.7397
   46CHL1    C3 5811   5.780   5.131  10.091 -1.0126  0.2691 -0.7292
   46CHL1    H3 5812   5.885   5.167  10.099  0.0350 -2.4035 -1.7385
   46CHL1    O3 5813   5.736   5.094  10.221  0.5778  0.0119 -0.7075
   46CHL1   H3' 5814   5.676   5.022  10.200  0.9999 -0.5768  0.0639
   46CHL1    C4 5815   5.704   5.258  10.047 -0.2231  0.0709 -0.0374
   46CHL1   H4A 5816   5.599   5.228  10.064  0.1690 -1.7200 -0.6744
   46CHL1   H4B 5817   5.729   5.345  10.113 -0.7158  1.6160 -1.8455
   46CHL1    C5 5818   5.737   5.298   9.905  0.7121  0.4484 -0.6400
   46CHL1    C6 5819   5.789   5.415   9.860  0.5486  0.2317  0.4756
   46CHL1    H6 5820   5.811   5.498   9.929  0.8295  1.2827 -0.8692
   46CHL1    C7 5821   5.811   5.454   9.715  0.5887 -0.3936 -0.8028
   46CHL1   H7A 5822   5.798   5.561   9.689  2.6765 -0.1257 -0.8001
   46CHL1   H7B 5823   5.918   5.432   9.696  0.9404  0.6431 -0.0382
   46CHL1    C8 5824   5.722   5.367   9.616 -0.6907  0.6415 -0.1984
   46CHL1    H8 5825   5.613   5.369   9.638 -0.4587 -3.8410  1.8763
   46CHL1   C14 5826   5.757   5.399   9.470  0.5410  0.7559 -0.2189
   46CHL1   H14 5827   5.865   5.379   9.481 -0.0635 -1.7694  1.6982
   46CHL1   C15 5828   5.751   5.536   9.418 -0.2697 -0.3893 -0.2964
   46CHL1  H15A 5829   5.649   5.577   9.432  0.1183  1.1220 -1.7307
   46CHL1  H15B 5830   5.829   5.602   9.462 -0.5836 -0.1950 -0.0310
   46CHL1   C16 5831   5.768   5.516   9.266 -0.9574  0.0335  0.2456
   46CHL1  H16A 5832   5.690   5.577   9.217 -1.3354 -0.9120 -0.3528
   46CHL1  H16B 5833   5.866   5.551   9.229 -0.6385 -1.3217 -0.2235
   46CHL1   C17 5834   5.757   5.365   9.236 -0.3833  0.7733 -0.4078
   46CHL1   H17 5835   5.853   5.311   9.220 -0.6040  0.8640 -2.0620
   46CHL1   C13 5836   5.708   5.298   9.367 -0.2029  0.1439 -0.2829
   46CHL1   C18 5837   5.547   5.309   9.361 -0.1030 -0.1171 -0.6592
   46CHL1  H18A 5838   5.508   5.247   9.278 -0.9873 -1.5520  0.7845
   46CHL1  H18B 5839   5.496   5.285   9.457 -0.7554  2.1697 -0.4244
   46CHL1  H18C 5840   5.515   5.414   9.353 -3.1509 -0.9673 -0.2443
   46CHL1   C12 5841   5.756   5.162   9.401 -0.1297  0.9852  0.1138
   46CHL1  H12A 5842   5.714   5.082   9.336  0.2369  0.0561  0.9989
   46CHL1  H12B 5843   5.866   5.153   9.389 -0.1149 -0.3736  1.1584
   46CHL1   C11 5844   5.716   5.121   9.543 -0.2707 -0.0656  0.0556
   46CHL1  H11A 5845   5.605   5.114   9.533 -0.2837  1.1756 -0.9100
   46CHL1  H11B 5846   5.766   5.026   9.570 -1.3531 -0.4702  0.6757
   46CHL1    C9 5847   5.753   5.224   9.649 -0.2337 -0.0131 -0.6257
   46CHL1    H9 5848   5.864   5.227   9.647 -0.2424 -0.4168 -2.0099
   46CHL1   C10 5849   5.712   5.190   9.797 -0.5210 -0.3094  0.2212
   46CHL1   C19 5850   5.561   5.161   9.798 -0.0493  0.4362 -0.5302
   46CHL1  H19A 5851   5.531   5.082   9.726 -0.6949  1.6812 -1.6539
   46CHL1  H19B 5852   5.530   5.131   9.900 -1.7662 -1.2137 -1.5195
   46CHL1  H19C 5853   5.508   5.255   9.770 -0.2502  1.5850  3.3070
   46CHL1    C1 5854   5.794   5.059   9.840  0.3487 -0.4844 -0.6974
   46CHL1   H1A 5855   5.792   4.965   9.781 -0.8317 -0.7707 -0.2145
   46CHL1   H1B 5856   5.902   5.085   9.838  0.1297  0.4037 -1.8983
   46CHL1    C2 5857   5.763   5.019   9.987 -0.3060 -0.0272 -0.1716
   46CHL1   H2A 5858   5.840   4.945  10.016  1.2415  1.5804 -0.0623
   46CHL1   H2B 5859   5.661   4.979  10.004 -0.9620  2.0369  0.9464
   46CHL1   C20 5860   5.688   5.328   9.103 -0.3405  0.2665  0.2099
   46CHL1   H20 5861   5.578   5.333   9.108 -0.7263 -4.0838 -1.9798
   46CHL1   C21 5862   5.725   5.180   9.058 -0.5996 -0.0474  0.1545
   46CHL1  H21A 5863   5.828   5.174   9.017  0.1594 -3.4105  2.2949
   46CHL1  H21B 5864   5.664   5.169   8.966 -3.0617 -0.8677  1.8024
   46CHL1  H21C 5865   5.697   5.093   9.122 -0.1475  0.9317  1.7044
   46CHL1   C22 5866   5.725   5.432   8.981  0.1557 -0.7839 -0.2897
   46CHL1  H22A 5867   5.680   5.532   8.997 -2.4894 -1.9291 -0.3604
   46CHL1  H22B 5868   5.834   5.451   8.974  0.0268 -0.0149 -0.2311
   46CHL1   C23 5869   5.668   5.385   8.845  0.4287  0.0260 -0.9591
   46CHL1  H23A 5870   5.721   5.293   8.811  0.2614 -0.2217 -0.5589
   46CHL1  H23B 5871   5.560   5.358   8.855  0.5584 -1.1045 -2.3397
   46CHL1   C24 5872   5.692   5.490   8.724 -0.3728  0.5421 -0.7812
   46CHL1  H24A 5873   5.639   5.581   8.759 -1.6546 -1.0611  1.6041
   46CHL1  H24B 5874   5.795   5.532   8.721 -0.1850  0.0223 -2.7847
   46CHL1   C25 5875   5.652   5.448   8.575  0.4685 -0.4126  0.5569
   46CHL1   H25 5876   5.547   5.412   8.569  0.1081  0.5347  1.1178
   46CHL1   C26 5877   5.672   5.572   8.483 -0.2139  0.0644 -0.4965
   46CHL1  H26A 5878   5.777   5.605   8.498 -0.3501  0.6206 -0.7503
   46CHL1  H26B 5879   5.671   5.536   8.378 -1.8886 -0.1319 -0.4285
   46CHL1  H26C 5880   5.592   5.647   8.503  0.0520 -0.5115  3.0153
   46CHL1   C27 5881   5.748   5.336   8.529  0.0349  0.5421  0.1844
   46CHL1  H27A 5882   5.852   5.374   8.518  0.0407  0.2147 -1.0268
   46CHL1  H27B 5883   5.756   5.248   8.595  0.1748 -0.8466 -1.6389
   46CHL1  H27C 5884   5.727   5.300   8.426  0.9315  0.5303 -0.0051
   47CHL1    C3 5885   6.128   1.925  10.104  0.0018  0.5041 -0.2092
   47CHL1    H3 5886   6.228   1.876  10.104 -0.3008 -0.1523  2.2091
   47CHL1    O3 5887   6.109   1.951  10.241 -0.3611  0.2073 -0.2038
   47CHL1   H3' 5888   6.014   1.958  10.254 -0.4914  0.6333 -1.3682
   47CHL1    C4 5889   6.118   2.052  10.028 -0.6872  0.3279  0.1936
   47CHL1   H4A 5890   6.018   2.095  10.049 -0.7240  0.5481 -0.4275
   47CHL1   H4B 5891   6.187   2.124  10.076 -1.5623  1.2149  0.1151
   47CHL1    C5 5892   6.141   2.023   9.883  0.1602 -0.2257  0.7740
   47CHL1    C6 5893   6.242   2.072   9.809 -0.4309  0.3415 -0.2425
   47CHL1    H6 5894   6.310   2.136   9.867  0.2231 -0.9686  0.4598
   47CHL1    C7 5895   6.249   2.053   9.661 -0.1040  0.0869  0.1991
   47CHL1   H7A 5896   6.271   2.147   9.606 -0.4917 -0.8922 -1.6861
   47CHL1   H7B 5897   6.334   1.982   9.648  0.3996  0.2039  2.7094
   47CHL1    C8 5898   6.120   1.994   9.593 -1.0987  0.1961 -0.4387
   47CHL1    H8 5899   6.043   2.074   9.592 -1.2835  0.1431  3.1141
   47CHL1   C14 5900   6.150   1.946   9.451 -0.7891  0.4704  0.1912
   47CHL1   H14 5901   6.223   1.865   9.473 -3.7575 -1.4527  3.5584
   47CHL1   C15 5902   6.226   2.033   9.353  0.6275 -0.0803 -0.2229
   47CHL1  H15A 5903   6.195   2.139   9.342  1.7381  0.2846  0.0309
   47CHL1  H15B 5904   6.335   2.033   9.376  0.5592 -0.0148  0.1089
   47CHL1   C16 5905   6.201   1.970   9.217  0.5079  0.3499  0.0721
   47CHL1  H16A 5906   6.154   2.045   9.150  1.2178  0.0876 -0.7383
   47CHL1  H16B 5907   6.289   1.918   9.173  0.6713 -0.4725  1.3468
   47CHL1   C17 5908   6.106   1.853   9.238  0.0192 -0.5250 -0.0355
   47CHL1   H17 5909   6.177   1.775   9.270  1.6015  0.0954 -1.9575
   47CHL1   C13 5910   6.039   1.883   9.378  0.1643 -0.1332 -0.3234
   47CHL1   C18 5911   5.919   1.969   9.358  0.1329 -0.1753  0.0849
   47CHL1  H18A 5912   5.949   2.051   9.289 -0.5523 -1.0392 -1.2485
   47CHL1  H18B 5913   5.836   1.914   9.310 -0.3826 -2.2762  3.2610
   47CHL1  H18C 5914   5.881   2.010   9.454 -0.4441 -2.6842  0.9401
   47CHL1   C12 5915   5.991   1.759   9.463 -0.2006  0.4704 -0.4169
   47CHL1  H12A 5916   5.900   1.713   9.418  0.4985 -2.8800  1.4336
   47CHL1  H12B 5917   6.069   1.680   9.464 -1.1597 -0.4878  2.3498
   47CHL1   C11 5918   5.959   1.792   9.611 -0.1105 -0.0043 -0.0437
   47CHL1  H11A 5919   5.865   1.851   9.602 -1.4292 -1.9984  0.3231
   47CHL1  H11B 5920   5.946   1.696   9.665  1.9763  0.3981  1.2427
   47CHL1    C9 5921   6.074   1.876   9.677  1.0720  0.3857 -1.0864
   47CHL1    H9 5922   6.149   1.795   9.678  0.0308 -0.5990  0.8163
   47CHL1   C10 5923   6.044   1.918   9.819  0.3427  0.0532 -0.3237
   47CHL1   C19 5924   5.911   2.001   9.816  0.4291  0.3380  0.1209
   47CHL1  H19A 5925   5.932   2.097   9.766  4.3094  0.6062  2.0891
   47CHL1  H19B 5926   5.831   1.950   9.758  0.3019  1.7401 -0.9631
   47CHL1  H19C 5927   5.877   2.036   9.916  1.2340  1.7994 -0.1120
   47CHL1    C1 5928   6.033   1.786   9.909  0.0732  0.6951 -0.0679
   47CHL1   H1A 5929   5.939   1.731   9.889  0.4878 -0.0056 -0.0807
   47CHL1   H1B 5930   6.118   1.716   9.894 -0.8590 -0.2017 -1.2576
   47CHL1    C2 5931   6.019   1.823  10.058  0.5643  0.2376 -0.2076
   47CHL1   H2A 5932   6.028   1.734  10.124 -0.3814  0.7278  0.5950
   47CHL1   H2B 5933   5.916   1.858  10.085  0.2371 -0.4756 -0.5309
   47CHL1   C20 5934   6.020   1.811   9.112  0.2243  0.1038 -0.2284
   47CHL1   H20 5935   5.952   1.896   9.090 -0.9267 -0.4523  1.0491
   47CHL1   C21 5936   5.932   1.691   9.134 -0.8831 -0.3517 -0.0600
   47CHL1  H21A 5937   5.880   1.662   9.040 -0.4885  0.5575 -0.5592
   47CHL1  H21B 5938   5.850   1.707   9.207 -0.5614  0.5049  0.1152
   47CHL1  H21C 5939   5.995   1.606   9.171 -0.3652 -0.1445 -0.4685
   47CHL1   C22 5940   6.105   1.791   8.981  0.2403 -0.2451 -0.4321
   47CHL1  H22A 5941   6.210   1.822   8.999  0.1061  1.0676 -1.8261
   47CHL1  H22B 5942   6.095   1.682   8.963  2.5909 -0.6211  0.4079
   47CHL1   C23 5943   6.038   1.868   8.863 -0.2682  0.3611 -0.8869
   47CHL1  H23A 5944   5.928   1.856   8.874 -0.0133 -1.0687  0.2991
   47CHL1  H23B 5945   6.047   1.979   8.873 -2.8792  0.7164 -2.1438
   47CHL1   C24 5946   6.095   1.828   8.733  0.3129 -0.8132 -0.2990
   47CHL1  H24A 5947   6.203   1.854   8.724 -0.4263  2.1805 -0.9682
   47CHL1  H24B 5948   6.081   1.718   8.726 -3.2801 -0.3623 -1.0758
   47CHL1   C25 5949   6.016   1.887   8.607 -0.6976  0.5040 -0.6696
   47CHL1   H25 5950   5.906   1.877   8.620 -0.4779 -0.9942  0.1294
   47CHL1   C26 5951   6.042   2.035   8.601  0.1687 -0.1402 -0.1698
   47CHL1  H26A 5952   5.971   2.087   8.668 -1.0958  0.9381 -2.2987
   47CHL1  H26B 5953   6.009   2.093   8.512  1.2097  0.4920 -0.1519
   47CHL1  H26C 5954   6.151   2.057   8.612 -0.5565  2.4034  2.4594
   47CHL1   C27 5955   6.063   1.827   8.472 -0.0301  0.2242 -0.5649
   47CHL1  H27A 5956   6.026   1.725   8.446 -0.4867  0.4032 -0.6276
   47CHL1  H27B 5957   6.033   1.895   8.388  1.2137  0.4601 -0.8263
   47CHL1  H27C 5958   6.173   1.817   8.467  0.1399  1.6177  0.0964
   48CHL1    C3 5959   0.240   2.341  10.151  0.3518  0.0943 -0.5482
   48CHL1    H3 5960   0.149   2.278  10.140  0.0057  0.7140 -1.2812
   48CHL1    O3 5961   0.287   2.333  10.278 -0.1106  0.0428 -0.2698
   48CHL1   H3' 5962   0.329   2.247  10.288 -2.2479 -0.9189  0.6457
   48CHL1    C4 5963   0.356   2.305  10.057  0.1176 -0.4893 -0.2526
   48CHL1   H4A 5964   0.455   2.351  10.074  0.4085 -0.3843 -2.0888
   48CHL1   H4B 5965   0.380   2.199  10.079 -0.2011 -0.7297 -1.0170
   48CHL1    C5 5966   0.314   2.328   9.915 -1.1218  0.1725  0.1261
   48CHL1    C6 5967   0.322   2.231   9.822 -0.4542 -0.4146 -0.4036
   48CHL1    H6 5968   0.351   2.129   9.853  1.4216 -0.0872 -1.0412
   48CHL1    C7 5969   0.294   2.243   9.674 -0.6274 -0.7794 -0.3161
   48CHL1   H7A 5970   0.378   2.207   9.611  0.4652  1.7288 -0.3426
   48CHL1   H7B 5971   0.202   2.186   9.645 -0.7101 -0.5255 -0.5556
   48CHL1    C8 5972   0.285   2.391   9.641 -0.0765 -0.2283  0.0009
   48CHL1    H8 5973   0.390   2.427   9.634 -1.4284  3.4736 -3.0409
   48CHL1   C14 5974   0.236   2.416   9.492 -0.1233 -0.4071  0.8752
   48CHL1   H14 5975   0.127   2.391   9.491  0.0285 -1.1155 -1.3123
   48CHL1   C15 5976   0.300   2.331   9.382  0.0937 -0.0783 -0.3687
   48CHL1  H15A 5977   0.407   2.329   9.412 -0.5444  0.5926  2.1200
   48CHL1  H15B 5978   0.259   2.228   9.385 -1.8918  0.6362 -2.2050
   48CHL1   C16 5979   0.267   2.405   9.248  0.6196  0.8202  0.5334
   48CHL1  H16A 5980   0.363   2.418   9.195  1.6057 -1.5251  1.6807
   48CHL1  H16B 5981   0.187   2.341   9.206 -1.6900  3.3117  0.9435
   48CHL1   C17 5982   0.210   2.541   9.294  0.4868  0.1040  0.4369
   48CHL1   H17 5983   0.100   2.530   9.286  0.7050 -0.8166 -1.6708
   48CHL1   C13 5984   0.244   2.560   9.445  0.7842 -0.5208  0.5714
   48CHL1   C18 5985   0.385   2.615   9.452  0.3754 -0.5697 -0.4712
   48CHL1  H18A 5986   0.450   2.561   9.380  0.7053 -1.3698  0.4146
   48CHL1  H18B 5987   0.393   2.722   9.424  1.8263 -0.7711 -0.8232
   48CHL1  H18C 5988   0.435   2.608   9.551 -1.4575 -2.7164  0.3651
   48CHL1   C12 5989   0.155   2.642   9.533  0.7957 -0.4225  0.4033
   48CHL1  H12A 5990   0.165   2.747   9.497  0.3795 -1.2632 -2.3245
   48CHL1  H12B 5991   0.050   2.615   9.505  0.4781 -0.9660  2.0787
   48CHL1   C11 5992   0.178   2.623   9.683  0.1514 -0.4865  0.5272
   48CHL1  H11A 5993   0.272   2.679   9.704  0.0325 -1.1433  3.0194
   48CHL1  H11B 5994   0.096   2.667   9.744  0.5461  0.4384  0.3967
   48CHL1    C9 5995   0.204   2.480   9.739 -1.1433  0.4927  0.3970
   48CHL1    H9 5996   0.102   2.437   9.744 -1.5736  1.6133  1.2769
   48CHL1   C10 5997   0.263   2.472   9.882  0.8964 -0.3071  0.4483
   48CHL1   C19 5998   0.387   2.559   9.893 -0.4456 -0.6836 -0.3726
   48CHL1  H19A 5999   0.460   2.531   9.814  1.3133 -1.4896  1.5061
   48CHL1  H19B 6000   0.366   2.666   9.875 -2.7154 -1.7129 -4.4534
   48CHL1  H19C 6001   0.435   2.557   9.993  0.5550  0.2984 -0.8232
   48CHL1    C1 6002   0.159   2.525   9.989 -0.3161  0.3467 -0.7012
   48CHL1   H1A 6003   0.144   2.632   9.964  2.7295  0.9153 -0.3461
   48CHL1   H1B 6004   0.061   2.477   9.969 -0.4031  0.6674 -1.0555
   48CHL1    C2 6005   0.195   2.490  10.133  0.4443  0.5835 -0.5830
   48CHL1   H2A 6006   0.109   2.503  10.203  1.1059 -0.7063  0.4765
   48CHL1   H2B 6007   0.278   2.561  10.154  2.1082 -1.4605 -0.1419
   48CHL1   C20 6008   0.255   2.658   9.197  0.2273  0.6046 -0.0834
   48CHL1   H20 6009   0.364   2.669   9.208  0.1866  1.5777 -0.6440
   48CHL1   C21 6010   0.181   2.785   9.243  0.0760 -0.5421  0.3490
   48CHL1  H21A 6011   0.250   2.848   9.304  0.2222  0.1479 -0.5139
   48CHL1  H21B 6012   0.093   2.762   9.305  0.6962 -0.2416  1.3509
   48CHL1  H21C 6013   0.163   2.856   9.159  2.5712  0.1680  0.3563
   48CHL1   C22 6014   0.229   2.635   9.048  0.7904 -1.1475  1.4483
   48CHL1  H22A 6015   0.256   2.729   8.996  1.3574 -1.5344  1.0380
   48CHL1  H22B 6016   0.309   2.566   9.012 -0.5117 -2.4578  0.9762
   48CHL1   C23 6017   0.085   2.595   9.002  0.0433 -0.5047  0.2430
   48CHL1  H23A 6018   0.053   2.493   9.032 -1.6651  0.5784  2.3274
   48CHL1  H23B 6019   0.016   2.674   9.041  0.7515  1.3606 -2.1835
   48CHL1   C24 6020   0.077   2.597   8.842 -0.8917 -0.7617 -0.0585
   48CHL1  H24A 6021   0.067   2.702   8.810  0.4631 -0.4375  0.5886
   48CHL1  H24B 6022   0.166   2.559   8.789  1.0067  1.1641  1.6714
   48CHL1   C25 6023  -0.047   2.525   8.784  0.4702 -0.3440  0.0541
   48CHL1   H25 6024  -0.050   2.420   8.820 -0.5988  0.1486  1.4710
   48CHL1   C26 6025  -0.182   2.578   8.834 -0.2875  0.5327 -0.4699
   48CHL1  H26A 6026  -0.262   2.521   8.783 -0.5863  1.2839 -0.8515
   48CHL1  H26B 6027  -0.192   2.548   8.940  1.8887 -0.6028 -0.5452
   48CHL1  H26C 6028  -0.186   2.687   8.814  2.5523  0.2958 -2.6571
   48CHL1   C27 6029  -0.046   2.513   8.636  0.2269 -0.0641 -0.3700
   48CHL1  H27A 6030   0.029   2.446   8.589  3.6098  1.6795  2.3772
   48CHL1  H27B 6031  -0.144   2.472   8.604 -0.4877  0.5021  1.0767
   48CHL1  H27C 6032  -0.037   2.609   8.579 -0.5368  0.9982  1.2720
   49CHL1    C3 6033   5.462   4.762   9.922  0.6557 -0.5416 -0.2129
   49CHL1    H3 6034   5.519   4.857   9.925 -0.3388  0.0892 -0.9261
   49CHL1    O3 6035   5.451   4.718  10.056 -0.7949  0.4217 -0.2627
   49CHL1   H3' 6036   5.405   4.634  10.063  0.4524 -0.1553  1.2089
   49CHL1    C4 6037   5.325   4.787   9.858  1.0326  0.3669  0.4974
   49CHL1   H4A 6038   5.259   4.698   9.871  0.5885  0.3312 -1.7500
   49CHL1   H4B 6039   5.272   4.865   9.916  1.7867  0.6932  0.7490
   49CHL1    C5 6040   5.316   4.819   9.714 -0.1804  0.1493  0.1504
   49CHL1    C6 6041   5.258   4.928   9.662 -0.1336  0.2820  0.2742
   49CHL1    H6 6042   5.204   5.000   9.726  0.6250  2.4357 -1.4652
   49CHL1    C7 6043   5.260   4.981   9.525  0.3323 -0.0190  0.0591
   49CHL1   H7A 6044   5.163   5.026   9.493 -1.0728 -0.7239  3.0920
   49CHL1   H7B 6045   5.332   5.065   9.516 -0.0462  0.0611 -2.6239
   49CHL1    C8 6046   5.310   4.870   9.421 -0.0825 -0.8884 -0.6820
   49CHL1    H8 6047   5.230   4.795   9.410 -1.7135  0.3685  2.0770
   49CHL1   C14 6048   5.346   4.931   9.282  0.2528 -0.2043  0.1165
   49CHL1   H14 6049   5.413   5.016   9.306 -1.7226  1.3513  0.2780
   49CHL1   C15 6050   5.245   5.009   9.194  0.1375  0.6789 -0.4237
   49CHL1  H15A 6051   5.145   4.963   9.205  0.3520  0.3780  0.2732
   49CHL1  H15B 6052   5.243   5.118   9.216  0.0656  0.6073 -0.0720
   49CHL1   C16 6053   5.295   4.992   9.052 -0.3619 -0.0306  0.0294
   49CHL1  H16A 6054   5.209   4.964   8.987 -1.2414  0.0401  1.1335
   49CHL1  H16B 6055   5.339   5.087   9.014  0.9164 -0.9681 -0.8143
   49CHL1   C17 6056   5.419   4.895   9.057 -0.3740  0.0284 -0.2791
   49CHL1   H17 6057   5.503   4.966   9.071 -0.2882  0.6090 -3.3555
   49CHL1   C13 6058   5.406   4.824   9.191  1.0798  0.8051 -0.5157
   49CHL1   C18 6059   5.301   4.715   9.173  0.4803 -0.1146 -0.6620
   49CHL1  H18A 6060   5.291   4.641   9.255 -2.3535  1.2340  0.2749
   49CHL1  H18B 6061   5.202   4.755   9.142  1.4269  0.9448 -2.3766
   49CHL1  H18C 6062   5.335   4.648   9.091 -0.8450 -1.7403  0.0594
   49CHL1   C12 6063   5.531   4.758   9.250 -0.1912 -0.0328 -0.1278
   49CHL1  H12A 6064   5.574   4.685   9.178 -3.4836 -0.5546 -1.6292
   49CHL1  H12B 6065   5.617   4.825   9.273  0.3255 -1.5833  2.6742
   49CHL1   C11 6066   5.500   4.690   9.385  0.4873  0.0428  0.3624
   49CHL1  H11A 6067   5.443   4.598   9.363  1.0961  0.3368 -2.7109
   49CHL1  H11B 6068   5.592   4.651   9.435  2.3607  3.2733 -0.3601
   49CHL1    C9 6069   5.434   4.790   9.486  0.1506 -0.9480  0.2899
   49CHL1    H9 6070   5.510   4.870   9.500 -0.5356 -0.5325  1.6705
   49CHL1   C10 6071   5.414   4.730   9.627  0.0277 -0.5859 -0.0686
   49CHL1   C19 6072   5.345   4.589   9.606 -0.1555 -0.1923  0.3942
   49CHL1  H19A 6073   5.333   4.523   9.695 -2.4186  1.8897  1.7061
   49CHL1  H19B 6074   5.261   4.599   9.534  1.3334 -0.1952 -1.3737
   49CHL1  H19C 6075   5.428   4.533   9.559 -1.2600  0.5001 -2.4502
   49CHL1    C1 6076   5.553   4.720   9.695  0.7259  0.3356  0.0883
   49CHL1   H1A 6077   5.612   4.653   9.629 -0.5611 -0.5752 -0.1716
   49CHL1   H1B 6078   5.604   4.817   9.710  1.3871 -0.3028  2.0373
   49CHL1    C2 6079   5.537   4.664   9.834 -1.0258 -0.4476  0.2659
   49CHL1   H2A 6080   5.634   4.630   9.876 -0.9432  1.0351  1.3311
   49CHL1   H2B 6081   5.469   4.577   9.826 -1.2630 -0.3146  0.7651
   49CHL1   C20 6082   5.448   4.816   8.927 -0.0791 -0.6797  0.3465
   49CHL1   H20 6083   5.452   4.707   8.945  3.0566 -0.3150  2.2943
   49CHL1   C21 6084   5.597   4.838   8.892  0.6046  0.0093 -0.1705
   49CHL1  H21A 6085   5.614   4.940   8.851  0.4935 -0.5934 -1.7926
   49CHL1  H21B 6086   5.631   4.768   8.812  1.9918 -0.7326  1.0525
   49CHL1  H21C 6087   5.659   4.810   8.979  0.2980 -2.1699 -0.6174
   49CHL1   C22 6088   5.356   4.835   8.808 -0.3373 -0.4102 -0.0546
   49CHL1  H22A 6089   5.250   4.817   8.838 -0.0369 -1.8534  0.1590
   49CHL1  H22B 6090   5.358   4.943   8.782 -0.5618  0.0550  1.7717
   49CHL1   C23 6091   5.379   4.728   8.700 -0.8406 -0.5590  0.2957
   49CHL1  H23A 6092   5.484   4.744   8.668 -1.0774  1.5606  0.4661
   49CHL1  H23B 6093   5.348   4.637   8.755  1.0641 -1.0573  0.5760
   49CHL1   C24 6094   5.282   4.747   8.583 -0.1131 -0.2512 -0.6033
   49CHL1  H24A 6095   5.178   4.736   8.623 -0.1360  0.9915 -0.2980
   49CHL1  H24B 6096   5.293   4.856   8.568  0.9138 -0.2050  0.4484
   49CHL1   C25 6097   5.317   4.684   8.447 -0.2770  0.1288 -0.6287
   49CHL1   H25 6098   5.408   4.743   8.420 -0.3454 -0.9713 -3.4829
   49CHL1   C26 6099   5.365   4.538   8.453 -0.7061  0.8515 -0.5180
   49CHL1  H26A 6100   5.455   4.537   8.519 -1.4641 -2.0261  0.5695
   49CHL1  H26B 6101   5.290   4.467   8.493 -0.6642  1.6912  1.1137
   49CHL1  H26C 6102   5.397   4.504   8.353 -1.4665  1.3983 -0.9478
   49CHL1   C27 6103   5.209   4.700   8.341  0.0991  0.3129 -0.7440
   49CHL1  H27A 6104   5.160   4.799   8.355 -1.7537 -1.0319  2.8421
   49CHL1  H27B 6105   5.259   4.693   8.242 -2.4028  1.9494 -2.2131
   49CHL1  H27C 6106   5.147   4.608   8.352  0.4713  0.4677  3.1589
   50CHL1    C3 6107   1.317   5.629  10.059  0.7215  0.6480 -0.1572
   50CHL1    H3 6108   1.268   5.726  10.033 -1.9889 -0.9781 -1.3059
   50CHL1    O3 6109   1.303   5.609  10.197 -1.1531  0.1209 -0.5009
   50CHL1   H3' 6110   1.390   5.609  10.237 -0.5778 -0.8385 -1.7481
   50CHL1    C4 6111   1.251   5.518   9.973 -0.2596  0.2156 -0.2223
   50CHL1   H4A 6112   1.286   5.422  10.016 -0.5492  0.9096  1.6069
   50CHL1   H4B 6113   1.143   5.517  10.000 -0.5109 -2.6082 -1.1856
   50CHL1    C5 6114   1.276   5.528   9.827  0.1751 -0.0457  0.7714
   50CHL1    C6 6115   1.171   5.543   9.745 -0.0636  0.1654  0.2408
   50CHL1    H6 6116   1.067   5.536   9.782  0.4240  1.7121  1.9845
   50CHL1    C7 6117   1.188   5.558   9.594  0.1232 -0.2253 -0.7803
   50CHL1   H7A 6118   1.117   5.492   9.539 -1.0778 -1.9148  2.6559
   50CHL1   H7B 6119   1.174   5.667   9.574 -0.5601  0.3845  2.6551
   50CHL1    C8 6120   1.334   5.517   9.555 -0.5723 -0.3454  0.2491
   50CHL1    H8 6121   1.340   5.406   9.553  1.3520 -0.3229  2.8087
   50CHL1   C14 6122   1.365   5.565   9.413  0.0467  0.1092  0.6687
   50CHL1   H14 6123   1.383   5.674   9.420 -1.8085  0.4581  0.2451
   50CHL1   C15 6124   1.254   5.563   9.308  0.2745  0.0655 -1.0494
   50CHL1  H15A 6125   1.208   5.462   9.303 -1.0895  0.5908  0.5470
   50CHL1  H15B 6126   1.160   5.616   9.332  0.1684  0.3261 -2.0214
   50CHL1   C16 6127   1.332   5.592   9.183  0.2467  0.8471 -0.8196
   50CHL1  H16A 6128   1.302   5.506   9.119 -1.6396  0.3465  0.7009
   50CHL1  H16B 6129   1.305   5.695   9.149 -0.6319  1.6267  2.1029
   50CHL1   C17 6130   1.483   5.573   9.212  0.4788 -0.2041 -0.3879
   50CHL1   H17 6131   1.512   5.678   9.234  1.9552 -1.1380  2.3245
   50CHL1   C13 6132   1.492   5.510   9.351  0.0629  0.7411  0.0669
   50CHL1   C18 6133   1.482   5.362   9.347 -0.3617  0.5337 -0.3877
   50CHL1  H18A 6134   1.378   5.328   9.326 -0.7131  0.5832  1.1851
   50CHL1  H18B 6135   1.556   5.328   9.272 -0.9846 -0.5389 -0.5292
   50CHL1  H18C 6136   1.501   5.304   9.439 -1.7441  0.4966 -0.1038
   50CHL1   C12 6137   1.613   5.547   9.443  0.2728 -0.3324  0.1771
   50CHL1  H12A 6138   1.708   5.497   9.413  0.3465 -1.5859  2.3722
   50CHL1  H12B 6139   1.627   5.655   9.422  0.9240  0.2929  3.5225
   50CHL1   C11 6140   1.593   5.529   9.593  0.2111  0.6811 -0.1738
   50CHL1  H11A 6141   1.607   5.421   9.612  2.0143  0.9798  0.3049
   50CHL1  H11B 6142   1.676   5.584   9.643  0.8858 -0.7029  0.2498
   50CHL1    C9 6143   1.454   5.565   9.649  0.0964  0.2610  0.5226
   50CHL1    H9 6144   1.438   5.673   9.634  2.2950  0.2070 -2.7631
   50CHL1   C10 6145   1.426   5.533   9.797  0.5857 -0.1664 -0.0937
   50CHL1   C19 6146   1.489   5.397   9.830  0.5804 -0.4112  0.6589
   50CHL1  H19A 6147   1.463   5.376   9.936  2.0665 -0.4910  1.0152
   50CHL1  H19B 6148   1.456   5.319   9.759  2.4449 -0.4728 -0.1529
   50CHL1  H19C 6149   1.598   5.379   9.818  0.7160 -0.7062  2.2161
   50CHL1    C1 6150   1.489   5.641   9.885  0.1907  0.0143  0.2657
   50CHL1   H1A 6151   1.596   5.642   9.857  0.0771  1.1819 -0.1915
   50CHL1   H1B 6152   1.455   5.740   9.846 -2.8773 -0.5914  1.2400
   50CHL1    C2 6153   1.472   5.630  10.033 -0.0278 -0.5015 -0.2264
   50CHL1   H2A 6154   1.518   5.718  10.082 -1.7840 -0.3085  1.1031
   50CHL1   H2B 6155   1.508   5.531  10.070  0.5284 -1.4413 -3.1442
   50CHL1   C20 6156   1.562   5.529   9.092  0.5207 -1.1760  0.5108
   50CHL1   H20 6157   1.541   5.422   9.072 -1.5892 -1.4124  3.6584
   50CHL1   C21 6158   1.710   5.552   9.133 -0.5596 -0.5876 -0.1921
   50CHL1  H21A 6159   1.779   5.536   9.047 -1.4392  0.4691 -1.1064
   50CHL1  H21B 6160   1.747   5.478   9.207 -1.3979 -0.3436  0.4720
   50CHL1  H21C 6161   1.736   5.653   9.172  1.4273 -1.3658  0.5619
   50CHL1   C22 6162   1.537   5.611   8.967  0.2098  0.3673  0.4720
   50CHL1  H22A 6163   1.592   5.571   8.879 -1.3148 -2.0867  0.5760
   50CHL1  H22B 6164   1.432   5.624   8.932 -0.6108 -2.0803  1.9661
   50CHL1   C23 6165   1.593   5.757   8.983  0.3485 -0.3794  0.1998
   50CHL1  H23A 6166   1.580   5.796   9.086  0.2819 -0.1319  0.0976
   50CHL1  H23B 6167   1.695   5.758   8.939  1.3684 -2.7548  2.4403
   50CHL1   C24 6168   1.515   5.860   8.898 -0.3188 -0.7919 -0.0676
   50CHL1  H24A 6169   1.511   5.832   8.790  1.0051 -0.7566 -0.1271
   50CHL1  H24B 6170   1.408   5.863   8.929 -0.3703  1.4945 -0.3656
   50CHL1   C25 6171   1.552   6.006   8.909 -0.1772 -0.2207 -0.1991
   50CHL1   H25 6172   1.545   6.018   9.019  0.0097  1.5782 -0.3681
   50CHL1   C26 6173   1.690   6.043   8.854  0.3618 -0.2519  0.1794
   50CHL1  H26A 6174   1.713   6.151   8.866  3.6426 -0.7521 -1.1611
   50CHL1  H26B 6175   1.773   5.987   8.902  0.0925 -1.5562 -0.8432
   50CHL1  H26C 6176   1.676   6.008   8.749  0.1164 -1.7163  0.6867
   50CHL1   C27 6177   1.440   6.091   8.844  0.7076 -0.0789 -0.3340
   50CHL1  H27A 6178   1.484   6.182   8.797  0.3456  0.0702 -0.3820
   50CHL1  H27B 6179   1.383   6.040   8.763 -0.9031  0.6767  0.3257
   50CHL1  H27C 6180   1.380   6.129   8.929  0.6622  3.7852 -1.9918
   51CHL1    C3 6181   2.712   2.419  10.208  0.0042 -0.0225 -0.3351
   51CHL1    H3 6182   2.762   2.321  10.192 -0.1817 -0.1000 -0.4428
   51CHL1    O3 6183   2.657   2.417  10.338  0.7238 -0.0267  0.1786
   51CHL1   H3' 6184   2.566   2.389  10.324  0.4964  1.0386 -0.5118
   51CHL1    C4 6185   2.816   2.538  10.201  0.1462 -0.3188 -0.2060
   51CHL1   H4A 6186   2.767   2.635  10.223  1.2782  0.1338  0.3567
   51CHL1   H4B 6187   2.889   2.521  10.282 -1.2112 -1.2977  0.8388
   51CHL1    C5 6188   2.881   2.549  10.068 -0.1959  0.2010  0.0790
   51CHL1    C6 6189   3.012   2.523  10.053 -0.4346 -0.2604 -0.0363
   51CHL1    H6 6190   3.074   2.505  10.142  2.3048  1.1498 -1.5808
   51CHL1    C7 6191   3.085   2.536   9.919 -0.2839  0.1124 -0.0393
   51CHL1   H7A 6192   3.173   2.604   9.923  0.6624 -1.1183  0.7254
   51CHL1   H7B 6193   3.117   2.435   9.883  0.5617  0.1919  0.4685
   51CHL1    C8 6194   2.995   2.605   9.807  0.0147 -0.4129 -0.2084
   51CHL1    H8 6195   2.985   2.714   9.825 -3.4022 -0.7578  0.2518
   51CHL1   C14 6196   3.057   2.573   9.673  0.5638 -0.0646  0.4924
   51CHL1   H14 6197   3.054   2.462   9.671 -0.2872 -0.0814  2.0435
   51CHL1   C15 6198   3.206   2.610   9.643  0.2315  0.2137  0.5506
   51CHL1  H15A 6199   3.219   2.715   9.678 -1.4382  1.0001 -1.1553
   51CHL1  H15B 6200   3.272   2.543   9.703 -1.0588 -1.2390  0.3726
   51CHL1   C16 6201   3.219   2.602   9.493 -0.3543 -0.2378 -0.3209
   51CHL1  H16A 6202   3.274   2.692   9.458  1.6800 -1.3091  0.0024
   51CHL1  H16B 6203   3.276   2.509   9.470 -2.5040 -1.5081 -0.5886
   51CHL1   C17 6204   3.078   2.595   9.440 -0.2324  0.5990  0.5938
   51CHL1   H17 6205   3.057   2.486   9.437  0.8373  0.3819  0.9699
   51CHL1   C13 6206   2.981   2.636   9.556  0.4282 -0.1670  0.7715
   51CHL1   C18 6207   2.986   2.785   9.560 -0.1950 -0.4676  0.0558
   51CHL1  H18A 6208   3.088   2.830   9.554 -0.8236  0.8346 -1.0705
   51CHL1  H18B 6209   2.933   2.824   9.471  0.4251  0.6201  0.1448
   51CHL1  H18C 6210   2.933   2.818   9.652 -0.5864 -0.3431 -0.2107
   51CHL1   C12 6211   2.837   2.582   9.558 -0.1355  0.3853  0.6531
   51CHL1  H12A 6212   2.780   2.633   9.477 -0.5808 -0.8538  0.1885
   51CHL1  H12B 6213   2.845   2.474   9.534  1.1502  0.6232 -0.0153
   51CHL1   C11 6214   2.765   2.600   9.694  0.1156  0.5660 -0.1007
   51CHL1  H11A 6215   2.755   2.708   9.717 -1.5015  0.2113  0.8961
   51CHL1  H11B 6216   2.668   2.548   9.686  0.1960  0.1768  1.3889
   51CHL1    C9 6217   2.850   2.549   9.816  0.1807 -0.3998  1.5384
   51CHL1    H9 6218   2.857   2.439   9.800  1.4102 -0.2544  1.0218
   51CHL1   C10 6219   2.783   2.572   9.952 -0.0418  0.7672  0.2043
   51CHL1   C19 6220   2.727   2.717   9.964  0.2718  0.5888 -0.7441
   51CHL1  H19A 6221   2.815   2.781   9.942  0.0671  1.5046  1.0333
   51CHL1  H19B 6222   2.651   2.739   9.886  0.7725 -0.6531 -1.5956
   51CHL1  H19C 6223   2.676   2.752  10.056  1.5135  0.1458  0.1208
   51CHL1    C1 6224   2.663   2.456   9.964  0.6020 -0.5849 -0.2249
   51CHL1   H1A 6225   2.585   2.488   9.891 -1.1386 -0.5494  1.5882
   51CHL1   H1B 6226   2.709   2.363   9.925  2.6101  0.9813 -1.7260
   51CHL1    C2 6227   2.600   2.437  10.105 -0.5269  0.0426 -0.0052
   51CHL1   H2A 6228   2.530   2.352  10.121 -0.2353 -0.2371 -0.2360
   51CHL1   H2B 6229   2.549   2.535  10.120 -1.8087 -0.8976  2.0680
   51CHL1   C20 6230   3.047   2.650   9.300  0.4058 -0.0252  0.1248
   51CHL1   H20 6231   2.939   2.677   9.299  0.4872  0.6018  3.7598
   51CHL1   C21 6232   3.073   2.532   9.202 -0.1374  0.3450  0.0079
   51CHL1  H21A 6233   3.008   2.449   9.237 -0.2947  0.1229 -0.7931
   51CHL1  H21B 6234   3.178   2.500   9.216 -0.4076 -0.6379 -0.1518
   51CHL1  H21C 6235   3.055   2.570   9.099  0.7252  0.6827 -0.0222
   51CHL1   C22 6236   3.138   2.772   9.260 -0.4973 -0.4181 -0.3228
   51CHL1  H22A 6237   3.145   2.832   9.354  1.0522  0.0650 -0.7426
   51CHL1  H22B 6238   3.238   2.743   9.222  0.1328 -0.7431  1.4927
   51CHL1   C23 6239   3.065   2.847   9.154 -0.6543 -0.7236 -1.1709
   51CHL1  H23A 6240   3.063   2.791   9.059  1.2296 -1.6960 -0.6601
   51CHL1  H23B 6241   2.960   2.858   9.190 -0.2037  3.9856 -1.0093
   51CHL1   C24 6242   3.128   2.990   9.131 -0.5885  0.3116  0.0512
   51CHL1  H24A 6243   3.075   3.038   9.046 -2.4249 -0.0027  0.9891
   51CHL1  H24B 6244   3.123   3.044   9.227  4.6374  0.9837  0.0657
   51CHL1   C25 6245   3.278   2.988   9.094  0.4031 -0.1456 -0.3371
   51CHL1   H25 6246   3.330   2.939   9.178  0.6792  0.6557 -0.0342
   51CHL1   C26 6247   3.300   2.919   8.964  0.3983 -0.3811 -0.0725
   51CHL1  H26A 6248   3.271   2.812   8.956  1.3514 -0.7501  1.2481
   51CHL1  H26B 6249   3.231   2.962   8.888 -0.1409 -1.0254  0.0433
   51CHL1  H26C 6250   3.406   2.927   8.931  0.3633 -0.4810 -0.2134
   51CHL1   C27 6251   3.331   3.129   9.093 -0.5709 -0.4803 -0.1521
   51CHL1  H27A 6252   3.290   3.182   9.182 -2.8448  0.2331 -1.5920
   51CHL1  H27B 6253   3.442   3.141   9.098 -0.5169  0.1437 -2.6558
   51CHL1  H27C 6254   3.282   3.186   9.012 -0.4212 -2.0284 -1.3622
   52CHL1    C3 6255   6.456   1.507  10.066  0.1162 -0.3086 -0.0220
   52CHL1    H3 6256   6.565   1.498  10.050  0.0302  1.7895 -2.1307
   52CHL1    O3 6257   6.442   1.531  10.200 -0.5243  0.8143 -0.2308
   52CHL1   H3' 6258   6.355   1.564  10.223  0.1071  2.0956  0.3619
   52CHL1    C4 6259   6.414   1.627   9.983  0.1650  0.1728  0.2319
   52CHL1   H4A 6260   6.309   1.654  10.010  0.7467 -0.3681  3.1484
   52CHL1   H4B 6261   6.478   1.708  10.022 -1.1322  1.4301 -0.2238
   52CHL1    C5 6262   6.436   1.608   9.832  0.1673 -0.4851  0.3521
   52CHL1    C6 6263   6.504   1.698   9.762  0.3491 -0.3667 -0.8897
   52CHL1    H6 6264   6.532   1.786   9.822  0.0126 -1.3824  0.7859
   52CHL1    C7 6265   6.532   1.690   9.617  0.4333 -0.0757  0.3920
   52CHL1   H7A 6266   6.515   1.790   9.573  0.8828 -0.2576 -0.2010
   52CHL1   H7B 6267   6.638   1.660   9.610  0.8248  1.5464 -0.8593
   52CHL1    C8 6268   6.447   1.583   9.546  0.0702 -0.3378 -0.4873
   52CHL1    H8 6269   6.345   1.628   9.545 -1.4393 -3.5387  0.9856
   52CHL1   C14 6270   6.504   1.559   9.415  0.0443 -0.4762  0.6532
   52CHL1   H14 6271   6.611   1.533   9.428  1.2014  1.3973 -4.0201
   52CHL1   C15 6272   6.501   1.682   9.322 -0.6394  0.2866 -0.0237
   52CHL1  H15A 6273   6.410   1.742   9.342 -0.1341  1.6533 -1.6998
   52CHL1  H15B 6274   6.587   1.752   9.325 -2.2970  2.4011 -0.6328
   52CHL1   C16 6275   6.507   1.616   9.175 -1.2171 -0.3831  0.4509
   52CHL1  H16A 6276   6.437   1.669   9.108  0.5296 -0.7712 -1.7405
   52CHL1  H16B 6277   6.613   1.629   9.145 -0.5507 -1.7246  2.1025
   52CHL1   C17 6278   6.485   1.462   9.190  0.0506 -0.0731  0.5193
   52CHL1   H17 6279   6.588   1.421   9.205  0.0692 -0.3269 -0.2886
   52CHL1   C13 6280   6.427   1.447   9.334  0.0477 -0.2583  0.3922
   52CHL1   C18 6281   6.278   1.486   9.313  0.0889  0.1700 -0.3287
   52CHL1  H18A 6282   6.269   1.577   9.249  2.4832  0.1493 -0.7402
   52CHL1  H18B 6283   6.220   1.405   9.264  1.3943  0.2947 -2.1379
   52CHL1  H18C 6284   6.232   1.512   9.411  0.1318  1.9821 -0.7742
   52CHL1   C12 6285   6.457   1.325   9.408 -0.6717  0.2000 -0.5266
   52CHL1  H12A 6286   6.400   1.239   9.366 -0.5040 -0.3810  0.4076
   52CHL1  H12B 6287   6.563   1.291   9.409 -0.2500  1.5083  0.9214
   52CHL1   C11 6288   6.402   1.324   9.550  0.2015 -0.7679 -0.5023
   52CHL1  H11A 6289   6.291   1.319   9.539  0.0173  0.5460  0.6552
   52CHL1  H11B 6290   6.450   1.237   9.599  0.9161  0.0834  0.3203
   52CHL1    C9 6291   6.449   1.449   9.631 -0.0950  0.3012 -0.3165
   52CHL1    H9 6292   6.557   1.430   9.647  0.2155  0.4625 -2.1105
   52CHL1   C10 6293   6.387   1.469   9.769 -0.9920  0.2082  0.0815
   52CHL1   C19 6294   6.232   1.473   9.748  0.8589 -0.1106 -0.3077
   52CHL1  H19A 6295   6.189   1.555   9.686  1.3115 -0.1583 -0.6906
   52CHL1  H19B 6296   6.185   1.382   9.705  2.3689 -0.8534 -0.4120
   52CHL1  H19C 6297   6.188   1.480   9.850 -1.2577 -1.5188 -1.0853
   52CHL1    C1 6298   6.423   1.353   9.869 -0.4738  0.1808 -0.0547
   52CHL1   H1A 6299   6.358   1.272   9.829 -1.8824  0.8186  0.8989
   52CHL1   H1B 6300   6.530   1.327   9.854 -0.1282 -0.2982  2.9580
   52CHL1    C2 6301   6.397   1.374  10.020  0.4885  0.5407  0.1840
   52CHL1   H2A 6302   6.450   1.294  10.077  1.7388  1.4166  0.2702
   52CHL1   H2B 6303   6.287   1.377  10.037  0.2067 -2.3859 -0.7591
   52CHL1   C20 6304   6.427   1.383   9.068 -0.2557  0.1324 -0.7351
   52CHL1   H20 6305   6.327   1.429   9.052  0.1797  1.0647 -0.8029
   52CHL1   C21 6306   6.403   1.236   9.093 -0.3265  0.6767  0.0558
   52CHL1  H21A 6307   6.376   1.186   8.998 -1.2646 -1.7086  1.5400
   52CHL1  H21B 6308   6.322   1.207   9.164 -0.9322 -2.0281 -1.6585
   52CHL1  H21C 6309   6.499   1.200   9.137 -0.3179  0.7309  0.0815
   52CHL1   C22 6310   6.500   1.410   8.941 -0.5112  1.1266  0.4678
   52CHL1  H22A 6311   6.515   1.520   8.938  2.7491  0.7152  0.4554
   52CHL1  H22B 6312   6.600   1.362   8.932 -0.8283  0.3018  1.2787
   52CHL1   C23 6313   6.426   1.384   8.812  0.2703  0.0211 -0.0083
   52CHL1  H23A 6314   6.401   1.276   8.804  1.1622 -0.4090  2.6717
   52CHL1  H23B 6315   6.331   1.442   8.806  1.4766  2.4507  2.8450
   52CHL1   C24 6316   6.512   1.441   8.695  0.4977 -0.0649 -0.3424
   52CHL1  H24A 6317   6.534   1.549   8.707  1.3060 -0.1075 -1.3950
   52CHL1  H24B 6318   6.607   1.387   8.675  0.2969 -0.5187 -0.0902
   52CHL1   C25 6319   6.431   1.443   8.559  0.5524 -0.0547  0.2427
   52CHL1   H25 6320   6.505   1.474   8.482  1.1573 -1.5504  0.2002
   52CHL1   C26 6321   6.365   1.312   8.511 -0.5354 -0.1639  0.6332
   52CHL1  H26A 6322   6.281   1.292   8.580 -1.6780 -3.0939 -1.5273
   52CHL1  H26B 6323   6.313   1.329   8.414  1.4646  1.0079 -0.2731
   52CHL1  H26C 6324   6.435   1.226   8.502  1.7604  1.6568  0.6936
   52CHL1   C27 6325   6.322   1.550   8.547 -0.0698  0.4484 -0.0321
   52CHL1  H27A 6326   6.228   1.505   8.588  0.1659 -0.2108 -0.2127
   52CHL1  H27B 6327   6.353   1.638   8.607  2.6363 -0.6675  0.2626
   52CHL1  H27C 6328   6.292   1.582   8.444 -0.7812 -1.0736 -0.3202
   53CHL1    C3 6329   0.884   0.842  10.237 -0.4143 -0.3084  0.8788
   53CHL1    H3 6330   0.794   0.906  10.224  0.6657  0.3107 -4.8371
   53CHL1    O3 6331   0.923   0.814  10.375  0.8217 -0.3762  0.3610
   53CHL1   H3' 6332   1.010   0.774  10.367  0.3019 -1.1886 -1.4016
   53CHL1    C4 6333   0.863   0.709  10.171  0.4500  0.3221  0.1217
   53CHL1   H4A 6334   0.955   0.651  10.195  0.4764  0.5799  0.6553
   53CHL1   H4B 6335   0.777   0.659  10.221 -0.6250  0.1685 -1.8529
   53CHL1    C5 6336   0.848   0.717  10.022 -0.9163  0.4129  1.1033
   53CHL1    C6 6337   0.762   0.646   9.952  0.2511 -0.4189 -0.3317
   53CHL1    H6 6338   0.693   0.572   9.995  2.3463 -1.1952  1.7916
   53CHL1    C7 6339   0.758   0.650   9.799 -0.0821  0.5190  0.8389
   53CHL1   H7A 6340   0.736   0.551   9.754  1.8555  0.0638  0.8810
   53CHL1   H7B 6341   0.667   0.707   9.771 -0.1237  0.2051  0.3298
   53CHL1    C8 6342   0.885   0.703   9.730  0.5479 -0.4991 -0.3134
   53CHL1    H8 6343   0.967   0.629   9.731 -0.2010 -1.3671 -1.6536
   53CHL1   C14 6344   0.848   0.724   9.582 -0.1050  0.0304 -0.1825
   53CHL1   H14 6345   0.769   0.801   9.585 -1.7202 -1.6336  2.9097
   53CHL1   C15 6346   0.787   0.608   9.494 -0.3719 -0.6955 -0.5453
   53CHL1  H15A 6347   0.850   0.519   9.515 -2.9189 -2.4994 -0.3622
   53CHL1  H15B 6348   0.681   0.582   9.516 -1.1906  3.3509  0.6876
   53CHL1   C16 6349   0.818   0.648   9.347  0.0496  0.4614  0.3032
   53CHL1  H16A 6350   0.868   0.561   9.300  0.7617 -0.3092  2.4838
   53CHL1  H16B 6351   0.724   0.676   9.295  0.4505  0.0478 -0.6636
   53CHL1   C17 6352   0.909   0.770   9.362  0.0898 -0.4504 -0.5049
   53CHL1   H17 6353   0.832   0.850   9.368 -1.3820 -1.9145  0.4057
   53CHL1   C13 6354   0.964   0.777   9.504 -0.6640  0.0572 -0.2176
   53CHL1   C18 6355   1.092   0.693   9.513 -0.4345  0.3797 -0.1832
   53CHL1  H18A 6356   1.085   0.586   9.484 -0.1844  0.4694 -0.5714
   53CHL1  H18B 6357   1.182   0.734   9.462  0.2317  0.7717  1.2489
   53CHL1  H18C 6358   1.128   0.693   9.619  0.8839  0.2716 -0.6218
   53CHL1   C12 6359   0.996   0.921   9.563 -0.4413 -0.3345 -0.3529
   53CHL1  H12A 6360   1.077   0.969   9.504 -0.4674  0.1593  0.0119
   53CHL1  H12B 6361   0.905   0.984   9.553 -1.3787 -2.0655 -3.6107
   53CHL1   C11 6362   1.026   0.915   9.710 -0.1435  0.2366 -0.4654
   53CHL1  H11A 6363   1.123   0.861   9.720 -1.8239 -2.5640  1.3916
   53CHL1  H11B 6364   1.036   1.017   9.755 -3.3073 -0.4340  1.9403
   53CHL1    C9 6365   0.924   0.831   9.798 -0.4296  0.0410  0.3050
   53CHL1    H9 6366   0.835   0.898   9.799  0.2579  1.0523 -2.1903
   53CHL1   C10 6367   0.963   0.800   9.941 -0.2100 -0.0791  0.3198
   53CHL1   C19 6368   1.102   0.728   9.946  0.0270  0.1446 -1.0005
   53CHL1  H19A 6369   1.137   0.691  10.044  0.6737 -0.4160 -1.4337
   53CHL1  H19B 6370   1.108   0.634   9.886  2.9566  0.7597 -1.7290
   53CHL1  H19C 6371   1.177   0.801   9.908 -1.0328  1.6589 -0.2408
   53CHL1    C1 6372   0.964   0.939  10.018 -0.1032  0.2520 -0.5038
   53CHL1   H1A 6373   1.052   1.002   9.992  0.5422 -0.3645  0.1663
   53CHL1   H1B 6374   0.873   1.000  10.001 -1.1114 -0.7977  1.0030
   53CHL1    C2 6375   1.000   0.927  10.175  0.4059 -0.4767 -0.1940
   53CHL1   H2A 6376   1.012   1.020  10.234  1.1592 -0.7767  0.1282
   53CHL1   H2B 6377   1.088   0.860  10.188  0.8265  0.3665  1.4705
   53CHL1   C20 6378   1.007   0.817   9.248  0.4927  0.2308  0.0159
   53CHL1   H20 6379   1.082   0.884   9.296  0.5070  0.7067 -0.6634
   53CHL1   C21 6380   0.933   0.911   9.146 -0.0728  0.4076  0.4628
   53CHL1  H21A 6381   1.010   0.973   9.095  0.8886 -1.3061 -0.2048
   53CHL1  H21B 6382   0.883   0.990   9.206 -0.8967 -0.5827  1.0860
   53CHL1  H21C 6383   0.862   0.852   9.085  0.0880  0.2320  0.4459
   53CHL1   C22 6384   1.075   0.703   9.179 -0.0064  0.4387  0.3130
   53CHL1  H22A 6385   1.116   0.635   9.257  2.4249  2.7940  1.2001
   53CHL1  H22B 6386   1.011   0.644   9.111  0.0957  1.1632 -0.4231
   53CHL1   C23 6387   1.209   0.745   9.105 -0.5498  0.0583  0.2060
   53CHL1  H23A 6388   1.186   0.825   9.031  3.2342  0.3873 -0.6993
   53CHL1  H23B 6389   1.270   0.793   9.184 -0.9939  1.5946 -0.3663
   53CHL1   C24 6390   1.269   0.622   9.044  0.4458 -0.1425  0.4789
   53CHL1  H24A 6391   1.288   0.549   9.125 -3.1115 -1.9715 -0.2426
   53CHL1  H24B 6392   1.199   0.581   8.968  0.6353 -1.0599  0.7963
   53CHL1   C25 6393   1.408   0.634   8.974 -0.0204  0.1923  0.4291
   53CHL1   H25 6394   1.477   0.648   9.060  0.8409 -0.6482 -0.1140
   53CHL1   C26 6395   1.445   0.495   8.905  0.8275 -0.7900 -0.0569
   53CHL1  H26A 6396   1.529   0.512   8.833 -0.0346  0.0887 -0.8786
   53CHL1  H26B 6397   1.476   0.426   8.986  0.0362  0.7048  1.5524
   53CHL1  H26C 6398   1.356   0.453   8.854 -0.3639  1.4585  0.1083
   53CHL1   C27 6399   1.417   0.759   8.888  0.2887  0.3008 -0.3442
   53CHL1  H27A 6400   1.440   0.853   8.942 -1.4228  0.2289  0.5195
   53CHL1  H27B 6401   1.500   0.729   8.820 -2.0722 -0.9999 -2.7272
   53CHL1  H27C 6402   1.324   0.780   8.831  1.7694  1.0651 -2.5497
   54CHL1    C3 6403   0.888   1.773  10.087  0.2013  0.0370  0.0687
   54CHL1    H3 6404   0.980   1.717  10.060 -1.1068 -0.5403 -3.4555
   54CHL1    O3 6405   0.863   1.767  10.223 -0.2848 -0.0609  0.6500
   54CHL1   H3' 6406   0.881   1.682  10.264 -0.6374  0.0841  1.1244
   54CHL1    C4 6407   0.892   1.923  10.039 -0.0137  0.1100  0.0215
   54CHL1   H4A 6408   0.797   1.970  10.072  1.8386  2.6870  1.9717
   54CHL1   H4B 6409   0.966   1.983  10.096 -1.0777 -0.4180  1.9844
   54CHL1    C5 6410   0.912   1.944   9.889  0.8301  0.6303  0.3697
   54CHL1    C6 6411   1.009   2.021   9.836  0.0361 -0.2676  0.0028
   54CHL1    H6 6412   1.068   2.074   9.913  0.3363  0.1957 -0.5422
   54CHL1    C7 6413   1.034   2.046   9.690 -0.0753  0.1790 -0.3701
   54CHL1   H7A 6414   1.035   2.155   9.670  1.5659 -0.0099 -1.4379
   54CHL1   H7B 6415   1.139   2.011   9.676 -0.4653 -0.7767 -0.8891
   54CHL1    C8 6416   0.929   1.977   9.598 -0.3436  0.5201  0.9394
   54CHL1    H8 6417   0.852   2.055   9.580 -2.5380 -1.5236  1.1750
   54CHL1   C14 6418   0.998   1.946   9.475 -0.7035  0.0711  0.1198
   54CHL1   H14 6419   1.065   1.861   9.500  0.1239  0.5921 -0.3037
   54CHL1   C15 6420   1.084   2.050   9.410  0.2550 -0.2052  0.2151
   54CHL1  H15A 6421   1.038   2.151   9.408 -1.7064 -1.0875 -0.5107
   54CHL1  H15B 6422   1.186   2.050   9.453  0.3566  1.8987  0.0244
   54CHL1   C16 6423   1.087   2.009   9.256  0.7658 -0.0097 -0.4357
   54CHL1  H16A 6424   1.036   2.092   9.203 -0.5872 -0.2071  0.5055
   54CHL1  H16B 6425   1.193   2.001   9.224  0.4707 -2.2427 -0.9415
   54CHL1   C17 6426   1.003   1.869   9.242 -0.7427 -0.7460  0.0245
   54CHL1   H17 6427   1.080   1.795   9.271  1.3378  0.8263 -1.3359
   54CHL1   C13 6428   0.907   1.883   9.363 -0.6354 -0.0461 -0.4859
   54CHL1   C18 6429   0.793   1.982   9.331  0.4766 -0.3891 -0.2280
   54CHL1  H18A 6430   0.705   1.973   9.399  0.2070  0.9804 -0.3721
   54CHL1  H18B 6431   0.827   2.088   9.322  2.4402 -0.9769 -0.0475
   54CHL1  H18C 6432   0.753   1.960   9.230  0.5321 -0.3509 -0.2587
   54CHL1   C12 6433   0.860   1.744   9.425  0.2156 -0.0931 -0.6718
   54CHL1  H12A 6434   0.791   1.700   9.349 -1.6910 -0.5352  1.2481
   54CHL1  H12B 6435   0.955   1.690   9.444  0.8604  0.1132 -3.1630
   54CHL1   C11 6436   0.786   1.766   9.553 -0.7922 -0.4630 -0.1791
   54CHL1  H11A 6437   0.693   1.821   9.527 -0.4773  0.0223 -0.2755
   54CHL1  H11B 6438   0.751   1.668   9.592 -0.2187 -0.9350 -0.8438
   54CHL1    C9 6439   0.875   1.846   9.657  0.0528  0.4594 -0.4497
   54CHL1    H9 6440   0.961   1.777   9.666  0.6219  1.1759 -0.2698
   54CHL1   C10 6441   0.822   1.857   9.805  0.4048 -0.9913  0.2573
   54CHL1   C19 6442   0.673   1.916   9.805 -0.3052 -0.0780 -0.2785
   54CHL1  H19A 6443   0.640   1.939   9.908  0.3234  0.5477 -0.2141
   54CHL1  H19B 6444   0.664   2.007   9.742  2.3139  0.5307  0.1546
   54CHL1  H19C 6445   0.595   1.844   9.769 -0.6117 -0.8907  1.9653
   54CHL1    C1 6446   0.805   1.708   9.861 -0.5209 -0.8375 -0.3428
   54CHL1   H1A 6447   0.714   1.660   9.818  0.0278 -3.3711  1.1962
   54CHL1   H1B 6448   0.897   1.651   9.834 -1.1228 -2.0434  0.1113
   54CHL1    C2 6449   0.779   1.701  10.008 -0.4182  0.6588 -0.4943
   54CHL1   H2A 6450   0.776   1.596  10.044 -1.4714  0.7176 -0.3969
   54CHL1   H2B 6451   0.677   1.743  10.017 -0.2981  1.0960 -1.1918
   54CHL1   C20 6452   0.945   1.854   9.098 -0.0742 -0.3225 -0.2912
   54CHL1   H20 6453   0.869   1.933   9.078 -0.5565 -1.2790 -2.3523
   54CHL1   C21 6454   0.875   1.718   9.081  0.7360 -0.8203 -0.2544
   54CHL1  H21A 6455   0.883   1.683   8.976 -0.5175 -0.4697 -0.4626
   54CHL1  H21B 6456   0.768   1.730   9.108  1.1114 -0.6216  1.1990
   54CHL1  H21C 6457   0.929   1.648   9.148  0.7990  0.7680  1.4069
   54CHL1   C22 6458   1.053   1.874   8.996  0.2745 -0.5560  0.2547
   54CHL1  H22A 6459   1.008   1.859   8.896  1.4215  2.1309 -0.7076
   54CHL1  H22B 6460   1.088   1.979   8.993  0.4556 -0.6342 -0.4985
   54CHL1   C23 6461   1.164   1.779   9.006 -0.5424 -0.1852  0.1410
   54CHL1  H23A 6462   1.226   1.799   9.095 -1.5531  2.2134  0.3422
   54CHL1  H23B 6463   1.124   1.676   9.001  1.9628 -1.1120 -1.4114
   54CHL1   C24 6464   1.260   1.778   8.883 -0.4976  0.4244  0.6702
   54CHL1  H24A 6465   1.252   1.880   8.839  0.5882  0.4168  0.4179
   54CHL1  H24B 6466   1.364   1.771   8.922 -0.8359  0.2332  1.5348
   54CHL1   C25 6467   1.232   1.680   8.775 -0.3729 -0.9186 -0.2808
   54CHL1   H25 6468   1.277   1.721   8.682  1.7467  1.0002  1.5360
   54CHL1   C26 6469   1.294   1.540   8.799 -0.3000 -0.2583 -0.2234
   54CHL1  H26A 6470   1.405   1.543   8.792 -0.3275  0.3877 -0.4338
   54CHL1  H26B 6471   1.263   1.504   8.899 -0.1774  1.3076  0.3970
   54CHL1  H26C 6472   1.273   1.475   8.712 -0.3735  0.9032 -1.0910
   54CHL1   C27 6473   1.085   1.653   8.731 -0.2596 -0.2351 -0.2316
   54CHL1  H27A 6474   1.018   1.611   8.809 -1.0303 -0.3566 -0.9453
   54CHL1  H27B 6475   1.044   1.750   8.695  2.3419  0.8078 -0.4760
   54CHL1  H27C 6476   1.083   1.585   8.643  0.7686 -1.1508  0.4332
   55CHL1    C3 6477   1.081   6.173  10.134 -1.0096  1.0377  0.2356
   55CHL1    H3 6478   1.012   6.085  10.143  1.2648 -0.9000 -0.6582
   55CHL1    O3 6479   1.106   6.219  10.262  0.0959  0.3666 -0.5382
   55CHL1   H3' 6480   1.016   6.239  10.290 -0.1520 -1.2275 -0.1537
   55CHL1    C4 6481   1.209   6.138  10.059  0.4470 -0.1010 -0.3943
   55CHL1   H4A 6482   1.271   6.230  10.064 -0.8336  0.6957  1.8683
   55CHL1   H4B 6483   1.250   6.051  10.114  0.2841 -0.7768 -1.3322
   55CHL1    C5 6484   1.201   6.103   9.912  0.4059 -0.3632  0.0066
   55CHL1    C6 6485   1.251   5.993   9.851 -0.0085  0.3167 -0.5766
   55CHL1    H6 6486   1.315   5.921   9.904  1.8444  2.2392 -0.1231
   55CHL1    C7 6487   1.241   5.961   9.709  0.0427 -0.2429 -0.5750
   55CHL1   H7A 6488   1.344   5.928   9.683  0.0982 -1.3520  0.9841
   55CHL1   H7B 6489   1.177   5.873   9.687 -1.6017  0.8534 -0.2924
   55CHL1    C8 6490   1.183   6.081   9.631  0.3066 -0.4251 -0.6094
   55CHL1    H8 6491   1.260   6.161   9.620 -2.7062  2.5116 -0.9523
   55CHL1   C14 6492   1.129   6.026   9.495  0.2519 -0.0486 -0.5892
   55CHL1   H14 6493   1.039   5.964   9.513 -0.6538  1.0056 -1.3800
   55CHL1   C15 6494   1.236   5.949   9.418 -0.0653  0.6124  0.0221
   55CHL1  H15A 6495   1.326   6.014   9.416  0.0357  0.4597 -0.5463
   55CHL1  H15B 6496   1.276   5.855   9.460 -0.4800  0.3346 -0.1952
   55CHL1   C16 6497   1.176   5.938   9.279 -0.2047 -0.0140 -0.5271
   55CHL1  H16A 6498   1.253   5.973   9.206 -0.5708  0.6944 -0.5757
   55CHL1  H16B 6499   1.157   5.835   9.244 -1.1104  0.2758 -0.8896
   55CHL1   C17 6500   1.055   6.045   9.274  0.5107  0.0586  0.0698
   55CHL1   H17 6501   0.961   5.988   9.289  1.0089  0.3052  4.9832
   55CHL1   C13 6502   1.065   6.131   9.407 -0.0859  0.1108  0.0023
   55CHL1   C18 6503   1.163   6.245   9.379 -0.4853 -0.1515 -0.2298
   55CHL1  H18A 6504   1.162   6.312   9.468  2.0115  1.2798 -1.2237
   55CHL1  H18B 6505   1.262   6.209   9.342 -0.4108 -0.3581  0.1746
   55CHL1  H18C 6506   1.119   6.317   9.307  1.8258 -0.7219 -2.2847
   55CHL1   C12 6507   0.934   6.176   9.472 -0.4544 -0.0483  0.3335
   55CHL1  H12A 6508   0.884   6.251   9.408  1.5179  1.1856  0.1930
   55CHL1  H12B 6509   0.862   6.092   9.483 -1.9794  1.1775 -0.1231
   55CHL1   C11 6510   0.958   6.227   9.615 -0.2368 -0.6877  0.0314
   55CHL1  H11A 6511   0.990   6.333   9.610 -2.7515  0.0717 -0.5282
   55CHL1  H11B 6512   0.857   6.226   9.662  0.4039 -0.0279  1.4380
   55CHL1    C9 6513   1.060   6.142   9.702  0.2426 -0.2191  0.2869
   55CHL1    H9 6514   1.003   6.047   9.716  1.5373 -0.9006  1.0237
   55CHL1   C10 6515   1.102   6.203   9.834 -0.4872 -0.2698  0.7663
   55CHL1   C19 6516   1.177   6.334   9.802  0.3569  0.0360  0.0440
   55CHL1  H19A 6517   1.114   6.419   9.767 -0.9944 -0.9494  0.0014
   55CHL1  H19B 6518   1.218   6.368   9.899  0.1512  1.2369 -0.2811
   55CHL1  H19C 6519   1.263   6.316   9.735  1.1427 -1.1606  1.3564
   55CHL1    C1 6520   0.977   6.239   9.913 -0.0698  0.1682 -1.1543
   55CHL1   H1A 6521   0.920   6.319   9.861  0.0663  0.8969 -0.1806
   55CHL1   H1B 6522   0.904   6.155   9.901 -1.8016  1.6572 -1.2815
   55CHL1    C2 6523   1.003   6.283  10.064  0.3686 -0.5433 -0.0363
   55CHL1   H2A 6524   0.911   6.309  10.120  1.1166  0.9935  0.5066
   55CHL1   H2B 6525   1.058   6.379  10.063 -1.4276  0.5460  2.8865
   55CHL1   C20 6526   1.038   6.113   9.137  0.1463 -0.1670 -0.0080
   55CHL1   H20 6527   1.140   6.154   9.119  0.1916 -0.7403 -1.1429
   55CHL1   C21 6528   0.929   6.217   9.129 -0.2132  0.3589 -0.3390
   55CHL1  H21A 6529   0.843   6.174   9.185 -0.7223  1.7872 -0.0043
   55CHL1  H21B 6530   0.885   6.251   9.033 -1.7372  1.2889  0.6768
   55CHL1  H21C 6531   0.958   6.312   9.178  1.2915 -0.4143  0.3050
   55CHL1   C22 6532   1.031   6.016   9.014 -0.3853 -0.5328 -0.2888
   55CHL1  H22A 6533   1.114   5.945   9.033  0.3702  0.4373  0.0487
   55CHL1  H22B 6534   0.935   5.960   9.019 -0.6071 -0.0783  0.6752
   55CHL1   C23 6535   1.048   6.086   8.884  0.8449  0.0138 -0.1749
   55CHL1  H23A 6536   0.955   6.139   8.857 -0.2176 -1.3848  0.6770
   55CHL1  H23B 6537   1.131   6.159   8.898 -0.1129  0.6648  2.4514
   55CHL1   C24 6538   1.087   5.986   8.773  0.3500  0.0452  0.0518
   55CHL1  H24A 6539   1.172   5.916   8.791  0.8942  0.5330 -0.5971
   55CHL1  H24B 6540   1.003   5.920   8.745 -0.1543  0.0014  1.6354
   55CHL1   C25 6541   1.131   6.051   8.630 -0.8230  0.1349  0.0128
   55CHL1   H25 6542   1.206   6.125   8.665  1.5567 -2.5718  0.7766
   55CHL1   C26 6543   1.214   5.953   8.543 -0.1779  0.3410 -0.5867
   55CHL1  H26A 6544   1.289   5.886   8.591 -1.1022 -0.5333 -0.3454
   55CHL1  H26B 6545   1.137   5.892   8.492 -0.7777 -0.4886  1.2706
   55CHL1  H26C 6546   1.253   6.005   8.452  0.2680  0.3762 -0.3770
   55CHL1   C27 6547   1.024   6.121   8.550  0.8752  0.2098  0.5556
   55CHL1  H27A 6548   0.959   6.169   8.625  2.4836 -0.4216  2.4184
   55CHL1  H27B 6549   1.068   6.196   8.481  1.7311  0.5563  1.4517
   55CHL1  H27C 6550   0.960   6.056   8.487 -0.0313 -0.3055  1.9874
   56CHL1    C3 6551   6.093   4.681  10.269  0.3825 -0.5334  0.3552
   56CHL1    H3 6552   6.009   4.751  10.287  0.3163 -0.8150  1.1576
   56CHL1    O3 6553   6.122   4.617  10.389 -0.0855  0.3126 -0.4685
   56CHL1   H3' 6554   6.212   4.584  10.385 -0.9361 -2.2828  0.5803
   56CHL1    C4 6555   6.074   4.570  10.164 -0.1984  0.4565 -0.0300
   56CHL1   H4A 6556   6.170   4.513  10.165 -0.5075 -0.0605  0.3531
   56CHL1   H4B 6557   5.990   4.504  10.195 -0.0816 -0.4214 -1.5158
   56CHL1    C5 6558   6.047   4.621  10.028  0.5456  0.3161  0.2391
   56CHL1    C6 6559   5.939   4.575   9.961  0.0640 -0.1654 -0.3918
   56CHL1    H6 6560   5.872   4.502  10.008  1.9276  1.4635  5.1606
   56CHL1    C7 6561   5.904   4.618   9.822 -0.6942 -0.3179  0.5439
   56CHL1   H7A 6562   5.877   4.524   9.770  0.9071 -0.4706 -0.0195
   56CHL1   H7B 6563   5.828   4.699   9.829  2.0504  2.4348 -0.5004
   56CHL1    C8 6564   6.020   4.688   9.746  0.2592  0.1025 -1.0886
   56CHL1    H8 6565   6.106   4.625   9.716  0.7183  0.2049 -0.0020
   56CHL1   C14 6566   5.977   4.761   9.622 -0.2565 -0.0945 -0.2036
   56CHL1   H14 6567   5.909   4.838   9.665  0.4202  1.2548 -1.5145
   56CHL1   C15 6568   5.901   4.685   9.518  0.0694  0.7176 -0.0100
   56CHL1  H15A 6569   5.955   4.593   9.490  0.1895  0.8011 -0.0586
   56CHL1  H15B 6570   5.797   4.649   9.538 -0.2379  0.8929 -1.2644
   56CHL1   C16 6571   5.901   4.785   9.403 -0.2632  0.7577 -0.4355
   56CHL1  H16A 6572   5.924   4.719   9.316  1.1171  1.2607 -0.4621
   56CHL1  H16B 6573   5.800   4.825   9.381 -1.0486 -1.3320 -0.7295
   56CHL1   C17 6574   6.009   4.894   9.426  0.0772  0.0875 -0.3667
   56CHL1   H17 6575   5.946   4.980   9.458  1.5713  1.7600 -1.7964
   56CHL1   C13 6576   6.087   4.844   9.551  0.3830  0.5209  0.4295
   56CHL1   C18 6577   6.202   4.751   9.496  0.3645 -0.4740 -0.1917
   56CHL1  H18A 6578   6.283   4.808   9.447 -0.4272 -0.4429 -1.4655
   56CHL1  H18B 6579   6.250   4.693   9.578 -1.8076 -1.2480  0.5811
   56CHL1  H18C 6580   6.161   4.670   9.433 -0.4811  1.4003 -2.0956
   56CHL1   C12 6581   6.129   4.961   9.649 -0.1410 -0.1174 -0.4171
   56CHL1  H12A 6582   6.222   5.007   9.610  1.1697 -2.0352  0.3619
   56CHL1  H12B 6583   6.046   5.030   9.676  0.0518 -0.6416  1.5586
   56CHL1   C11 6584   6.178   4.891   9.781  0.4214 -0.4746  0.3985
   56CHL1  H11A 6585   6.277   4.850   9.753 -0.2714 -1.1087 -1.1521
   56CHL1  H11B 6586   6.200   4.973   9.854  1.7428 -0.7864  0.3627
   56CHL1    C9 6587   6.082   4.790   9.848 -0.1098 -0.3440  0.8525
   56CHL1    H9 6588   5.995   4.853   9.879 -0.2866 -0.7099  1.0972
   56CHL1   C10 6589   6.147   4.722   9.973 -0.0260 -0.1958 -0.3521
   56CHL1   C19 6590   6.266   4.631   9.931  0.7566 -0.5622  0.9659
   56CHL1  H19A 6591   6.313   4.576  10.015  0.3178 -1.2354  0.7692
   56CHL1  H19B 6592   6.242   4.561   9.848 -1.6707  3.3352 -1.7618
   56CHL1  H19C 6593   6.349   4.702   9.910 -0.0322  0.3893  1.0118
   56CHL1    C1 6594   6.183   4.825  10.084 -0.5893 -0.3785 -0.2937
   56CHL1   H1A 6595   6.266   4.884  10.038 -1.5967  1.4809  0.2077
   56CHL1   H1B 6596   6.096   4.894  10.095  1.4999  2.5467 -1.2199
   56CHL1    C2 6597   6.217   4.760  10.214  0.3582  0.2169 -0.1375
   56CHL1   H2A 6598   6.243   4.843  10.283 -3.0385  0.9297  0.3347
   56CHL1   H2B 6599   6.305   4.692  10.211 -1.8083 -2.6875 -0.1532
   56CHL1   C20 6600   6.080   4.938   9.302 -0.0353  0.3402 -0.5854
   56CHL1   H20 6601   6.147   4.852   9.281 -1.1738 -0.6385 -0.2401
   56CHL1   C21 6602   6.153   5.072   9.327 -0.7479  0.3478  0.6387
   56CHL1  H21A 6603   6.185   5.118   9.231 -0.0513 -1.4036  0.0126
   56CHL1  H21B 6604   6.249   5.053   9.380 -0.6090  1.7228  0.9044
   56CHL1  H21C 6605   6.090   5.144   9.382 -0.4596 -0.3386  1.8810
   56CHL1   C22 6606   5.987   4.960   9.180 -0.1283 -0.0464 -0.1761
   56CHL1  H22A 6607   5.888   4.909   9.178 -0.0660 -0.1067 -2.3773
   56CHL1  H22B 6608   5.961   5.066   9.162 -0.6516 -0.1389  0.0167
   56CHL1   C23 6609   6.058   4.911   9.053  0.6619 -0.2773  0.1473
   56CHL1  H23A 6610   6.156   4.962   9.059  0.1887  0.7072 -0.2992
   56CHL1  H23B 6611   6.073   4.801   9.057  1.3767 -0.2078 -0.5612
   56CHL1   C24 6612   5.983   4.952   8.929 -0.3048  0.6537 -0.5907
   56CHL1  H24A 6613   5.890   4.893   8.913 -0.1449  0.2021  0.1292
   56CHL1  H24B 6614   5.962   5.061   8.927  1.6626  1.1743  2.5590
   56CHL1   C25 6615   6.060   4.908   8.805 -0.7494 -0.1250  0.3200
   56CHL1   H25 6616   6.168   4.932   8.806 -0.8615  0.4326 -0.3890
   56CHL1   C26 6617   6.037   4.764   8.765  0.3293 -0.3580 -0.0079
   56CHL1  H26A 6618   6.061   4.699   8.852  0.3226  0.6154  0.7305
   56CHL1  H26B 6619   5.931   4.737   8.746  0.2585  1.0955 -1.8263
   56CHL1  H26C 6620   6.105   4.724   8.687 -0.0598 -1.9263  0.4369
   56CHL1   C27 6621   5.999   5.000   8.693 -0.7601 -0.0540  0.8087
   56CHL1  H27A 6622   5.890   4.984   8.681 -1.1794  2.0268  1.5442
   56CHL1  H27B 6623   6.012   5.105   8.728 -1.1344  1.0730 -2.2907
   56CHL1  H27C 6624   6.049   4.982   8.595  1.4339 -1.1926  2.0956
   57CHL1    C3 6625   2.027   0.270  10.367 -0.4303 -0.7517 -0.8375
   57CHL1    H3 6626   2.132   0.252  10.336 -0.7456 -3.1386 -0.6448
   57CHL1    O3 6627   2.008   0.292  10.505 -0.0250 -0.2046  0.2381
   57CHL1   H3' 6628   1.924   0.249  10.525  0.7104 -1.6439  0.2859
   57CHL1    C4 6629   1.981   0.388  10.287 -0.0327  0.0913  0.0765
   57CHL1   H4A 6630   1.886   0.432  10.324 -1.7756 -2.1838 -1.5362
   57CHL1   H4B 6631   2.054   0.467  10.316  0.6575 -0.4703 -0.1210
   57CHL1    C5 6632   1.974   0.361  10.135 -0.0734 -0.1491 -0.0601
   57CHL1    C6 6633   2.038   0.448  10.057  0.0846  0.2882 -0.2113
   57CHL1    H6 6634   2.093   0.534  10.099 -0.7573  0.3013  0.8853
   57CHL1    C7 6635   2.027   0.444   9.902 -0.1559  0.8221 -0.3312
   57CHL1   H7A 6636   1.997   0.540   9.854  1.5488  1.1153 -0.8416
   57CHL1   H7B 6637   2.126   0.413   9.862 -0.8032 -1.8503  0.0716
   57CHL1    C8 6638   1.919   0.344   9.852  0.1615 -0.6074  0.6025
   57CHL1    H8 6639   1.826   0.402   9.868  1.3500  1.3614  0.6562
   57CHL1   C14 6640   1.935   0.309   9.705 -0.2345 -0.4926  0.1794
   57CHL1   H14 6641   2.032   0.259   9.684  1.5644  2.9142 -0.0673
   57CHL1   C15 6642   1.931   0.432   9.605  0.0526 -0.5498  0.0498
   57CHL1  H15A 6643   1.856   0.508   9.637 -0.3979 -1.1530  0.4301
   57CHL1  H15B 6644   2.029   0.483   9.595 -0.5916  0.9680  1.1411
   57CHL1   C16 6645   1.871   0.366   9.473  0.3444 -0.3892 -0.7198
   57CHL1  H16A 6646   1.780   0.415   9.434 -0.1357  1.1050  2.1852
   57CHL1  H16B 6647   1.950   0.378   9.395  1.0239  1.0833  0.1739
   57CHL1   C17 6648   1.851   0.211   9.507 -0.0922  0.6975 -0.1634
   57CHL1   H17 6649   1.949   0.165   9.485  0.0760  0.7626  0.4358
   57CHL1   C13 6650   1.827   0.210   9.657 -0.1977 -0.0428 -0.3563
   57CHL1   C18 6651   1.681   0.261   9.683 -0.2493 -0.2479 -0.0491
   57CHL1  H18A 6652   1.666   0.363   9.643  1.0852  0.5026  1.3319
   57CHL1  H18B 6653   1.613   0.187   9.634  0.1069  0.2579 -1.3346
   57CHL1  H18C 6654   1.660   0.270   9.791  1.7147  2.6774  0.1474
   57CHL1   C12 6655   1.854   0.075   9.733  0.4302  0.0303 -0.1144
   57CHL1  H12A 6656   1.779  -0.001   9.701 -0.9629  1.2403  0.2413
   57CHL1  H12B 6657   1.958   0.038   9.717  0.2118 -0.1546 -1.1273
   57CHL1   C11 6658   1.842   0.095   9.886  0.6253  0.1039  0.5210
   57CHL1  H11A 6659   1.733   0.095   9.911  0.8312 -0.0229  1.4331
   57CHL1  H11B 6660   1.897   0.010   9.933 -0.1455  0.5770  2.3091
   57CHL1    C9 6661   1.918   0.215   9.936  0.1433  0.3153  0.1482
   57CHL1    H9 6662   2.022   0.177   9.920  0.1124  0.5524 -0.6537
   57CHL1   C10 6663   1.898   0.231  10.087  0.2186  0.1902 -0.4794
   57CHL1   C19 6664   1.745   0.244  10.121  0.5745 -0.5135  0.5388
   57CHL1  H19A 6665   1.700   0.321  10.055  0.4129 -2.0290 -1.1475
   57CHL1  H19B 6666   1.683   0.153  10.106  2.6677 -1.9401  0.3772
   57CHL1  H19C 6667   1.721   0.282  10.223 -0.9849 -1.5532  0.5805
   57CHL1    C1 6668   1.967   0.116  10.173 -0.6807  0.1357  0.0377
   57CHL1   H1A 6669   1.926   0.019  10.137  1.3933 -0.0198 -2.0039
   57CHL1   H1B 6670   2.075   0.116  10.148 -0.9570  2.2407 -1.2794
   57CHL1    C2 6671   1.956   0.133  10.327  0.5287  0.2174  0.0788
   57CHL1   H2A 6672   2.011   0.047  10.372  0.4003 -0.8899 -1.8326
   57CHL1   H2B 6673   1.849   0.131  10.356  0.9256  1.9325  1.7871
   57CHL1   C20 6674   1.762   0.133   9.410 -0.4099  0.2547 -0.4355
   57CHL1   H20 6675   1.654   0.147   9.430  0.3505  3.1935  1.9884
   57CHL1   C21 6676   1.806  -0.013   9.412 -0.3074 -0.2607  0.2735
   57CHL1  H21A 6677   1.732  -0.069   9.352 -0.0865 -0.1961 -0.0587
   57CHL1  H21B 6678   1.795  -0.060   9.513 -0.2163 -2.9323 -0.9050
   57CHL1  H21C 6679   1.908  -0.032   9.371 -1.0393 -0.1424 -1.6580
   57CHL1   C22 6680   1.781   0.184   9.269 -0.4646  0.9442 -0.0152
   57CHL1  H22A 6681   1.751   0.288   9.245  0.2740  0.6574 -2.3563
   57CHL1  H22B 6682   1.888   0.172   9.240 -0.8001 -0.1060 -0.8381
   57CHL1   C23 6683   1.703   0.109   9.159  0.4877  0.3343  0.1316
   57CHL1  H23A 6684   1.753   0.011   9.153  2.5693  1.3412  0.5456
   57CHL1  H23B 6685   1.606   0.093   9.212 -0.1879  1.7899 -0.6323
   57CHL1   C24 6686   1.706   0.187   9.029 -0.2813  0.0009 -0.5998
   57CHL1  H24A 6687   1.652   0.283   9.044  1.5742  1.4467 -2.7882
   57CHL1  H24B 6688   1.805   0.224   8.996  0.0221  3.0981  3.4151
   57CHL1   C25 6689   1.642   0.104   8.915 -0.1052 -0.1593  0.4096
   57CHL1   H25 6690   1.706   0.015   8.898  2.7133  1.8550  0.1519
   57CHL1   C26 6691   1.496   0.066   8.940  0.1144  0.0875  0.7522
   57CHL1  H26A 6692   1.468  -0.005   8.859 -1.1479  0.4743  0.8421
   57CHL1  H26B 6693   1.480   0.007   9.033  0.9289 -1.1742  0.1087
   57CHL1  H26C 6694   1.428   0.152   8.952 -1.0016 -0.2235 -2.7620
   57CHL1   C27 6695   1.643   0.190   8.787 -0.1053 -0.2288 -0.4079
   57CHL1  H27A 6696   1.559   0.262   8.791  1.1147  1.2232 -0.3351
   57CHL1  H27B 6697   1.743   0.235   8.771 -0.2588 -0.1964 -1.3368
   57CHL1  H27C 6698   1.635   0.124   8.697  1.0838 -0.6742 -0.2011
   58CHL1    C3 6699   4.154   6.326  10.052  0.8306 -0.3951 -0.8657
   58CHL1    H3 6700   4.104   6.227  10.059  1.5793 -0.7790 -0.9359
   58CHL1    O3 6701   4.156   6.370  10.193  0.4951  0.0179  0.3251
   58CHL1   H3' 6702   4.224   6.323  10.240  0.8974 -0.8021 -1.0454
   58CHL1    C4 6703   4.292   6.301   9.998 -0.4066  0.9073  0.2709
   58CHL1   H4A 6704   4.359   6.390  10.004  0.9542  0.0781 -2.1787
   58CHL1   H4B 6705   4.334   6.219  10.061  0.3161  1.8610  1.0511
   58CHL1    C5 6706   4.298   6.273   9.849 -0.2068  0.1181 -0.2819
   58CHL1    C6 6707   4.348   6.157   9.807  0.1126  0.7333 -0.3396
   58CHL1    H6 6708   4.395   6.084   9.874 -0.6351  0.3146 -0.2612
   58CHL1    C7 6709   4.348   6.120   9.663 -0.1550 -0.4579  0.4643
   58CHL1   H7A 6710   4.437   6.060   9.637 -1.3662 -2.5264  1.0459
   58CHL1   H7B 6711   4.262   6.053   9.641 -0.1292  0.5378 -2.9479
   58CHL1    C8 6712   4.345   6.244   9.578  0.0852  0.6354 -0.1050
   58CHL1    H8 6713   4.441   6.298   9.594  0.4379 -0.1395  0.4437
   58CHL1   C14 6714   4.346   6.217   9.431 -0.9976  0.4850  0.2499
   58CHL1   H14 6715   4.265   6.145   9.407  1.0747 -2.1374  0.8378
   58CHL1   C15 6716   4.478   6.142   9.381  0.7775  0.5040  0.2217
   58CHL1  H15A 6717   4.565   6.171   9.444  3.7273 -0.2545 -3.2838
   58CHL1  H15B 6718   4.452   6.039   9.412 -0.7696  0.6885 -0.4119
   58CHL1   C16 6719   4.480   6.159   9.225 -0.2917  0.2973  0.3251
   58CHL1  H16A 6720   4.575   6.206   9.193  0.1215  0.2671  1.4691
   58CHL1  H16B 6721   4.469   6.061   9.175 -0.9640  0.8451 -0.6143
   58CHL1   C17 6722   4.357   6.253   9.195  0.7512  0.2229  0.3482
   58CHL1   H17 6723   4.272   6.185   9.172 -1.7347  2.6811  1.9464
   58CHL1   C13 6724   4.339   6.332   9.330  0.2203 -0.2890 -0.0220
   58CHL1   C18 6725   4.454   6.429   9.348  0.1207 -0.0736  0.2514
   58CHL1  H18A 6726   4.434   6.521   9.288 -0.8869 -0.6591 -0.3146
   58CHL1  H18B 6727   4.464   6.460   9.454  0.5260 -0.4165  0.3125
   58CHL1  H18C 6728   4.555   6.399   9.314 -0.5577 -0.7393 -1.1887
   58CHL1   C12 6729   4.198   6.396   9.368 -0.6918 -0.3573  0.3873
   58CHL1  H12A 6730   4.178   6.489   9.312  2.7765 -1.0352 -2.2259
   58CHL1  H12B 6731   4.117   6.322   9.350 -0.5618  0.0343 -2.0602
   58CHL1   C11 6732   4.204   6.444   9.517 -0.0465  0.2660  0.0548
   58CHL1  H11A 6733   4.280   6.525   9.518 -0.1280  0.3356  0.9881
   58CHL1  H11B 6734   4.105   6.485   9.547  0.4714  1.5875 -0.0040
   58CHL1    C9 6735   4.230   6.328   9.616  0.5233 -0.7364 -1.1984
   58CHL1    H9 6736   4.145   6.258   9.601  0.6726 -0.6133 -2.7542
   58CHL1   C10 6737   4.228   6.377   9.760 -0.4602  0.6902  0.2380
   58CHL1   C19 6738   4.310   6.507   9.762  0.5809  0.5603  0.7227
   58CHL1  H19A 6739   4.412   6.494   9.720  0.5404 -0.7061  1.0044
   58CHL1  H19B 6740   4.261   6.595   9.715  0.8337 -0.1503 -0.9181
   58CHL1  H19C 6741   4.335   6.541   9.864 -1.3827  1.4846  0.9128
   58CHL1    C1 6742   4.087   6.378   9.815  1.0026 -0.4419 -0.5686
   58CHL1   H1A 6743   4.034   6.455   9.756 -2.1538 -1.1583  1.2117
   58CHL1   H1B 6744   4.021   6.289   9.801  0.6209 -0.2277 -0.1459
   58CHL1    C2 6745   4.076   6.420   9.964  0.3778  0.0874  0.3304
   58CHL1   H2A 6746   3.973   6.410  10.004  0.5685  2.7893  1.5858
   58CHL1   H2B 6747   4.111   6.525   9.976 -0.8596  0.4736  0.6263
   58CHL1   C20 6748   4.381   6.338   9.065  0.5294  1.1580  0.2784
   58CHL1   H20 6749   4.472   6.401   9.063 -0.2714  2.3365 -2.1529
   58CHL1   C21 6750   4.273   6.435   9.039  1.0377  0.2219  0.3631
   58CHL1  H21A 6751   4.315   6.489   8.951  2.6140 -0.3141  0.7923
   58CHL1  H21B 6752   4.245   6.503   9.122 -0.3461 -1.2369  1.1248
   58CHL1  H21C 6753   4.180   6.383   9.007  2.0289  0.3930 -3.0561
   58CHL1   C22 6754   4.395   6.241   8.943  0.2272  0.4448  0.0889
   58CHL1  H22A 6755   4.323   6.156   8.947  0.2424  0.3968 -0.6288
   58CHL1  H22B 6756   4.359   6.297   8.855  0.3013 -0.7808 -0.7367
   58CHL1   C23 6757   4.544   6.211   8.895  0.1695 -0.2199 -0.3885
   58CHL1  H23A 6758   4.590   6.153   8.978  1.0235  1.4258  0.3045
   58CHL1  H23B 6759   4.541   6.144   8.806  0.0211  0.4916 -0.9202
   58CHL1   C24 6760   4.633   6.330   8.863 -0.5185  0.0107  0.6204
   58CHL1  H24A 6761   4.580   6.394   8.789 -1.3068  0.3729  1.4910
   58CHL1  H24B 6762   4.653   6.397   8.949  0.4118  1.3112 -0.5853
   58CHL1   C25 6763   4.777   6.297   8.805  0.3560  0.1753 -0.2442
   58CHL1   H25 6764   4.801   6.210   8.869  0.4357 -0.8794 -1.6934
   58CHL1   C26 6765   4.761   6.247   8.665 -0.1500 -0.3838 -0.2059
   58CHL1  H26A 6766   4.731   6.140   8.672 -0.5792 -0.1103  3.2514
   58CHL1  H26B 6767   4.693   6.316   8.611 -0.7185 -0.0858  0.8651
   58CHL1  H26C 6768   4.861   6.250   8.617 -0.6887  2.5786 -1.2387
   58CHL1   C27 6769   4.871   6.421   8.814  0.5351 -0.3237  0.0803
   58CHL1  H27A 6770   4.873   6.479   8.908  1.0875 -1.4756  0.7890
   58CHL1  H27B 6771   4.977   6.389   8.803  1.0821  1.3706  0.3917
   58CHL1  H27C 6772   4.851   6.486   8.726  1.8974 -0.0752 -0.0543
   59CHL1    C3 6773   3.831   4.816  10.463  0.7203  0.4065  0.8331
   59CHL1    H3 6774   3.751   4.891  10.478  1.6589  1.7444 -0.7324
   59CHL1    O3 6775   3.877   4.784  10.593  0.0127  0.0449  0.6527
   59CHL1   H3' 6776   3.947   4.720  10.581 -1.5223 -1.6025  0.3218
   59CHL1    C4 6777   3.768   4.689  10.405  0.1067  0.2168  0.4979
   59CHL1   H4A 6778   3.836   4.601  10.418  1.8385  1.4917  0.2410
   59CHL1   H4B 6779   3.676   4.673  10.465  0.0402 -2.3591 -0.2075
   59CHL1    C5 6780   3.734   4.701  10.260  0.1633  0.1345  0.0326
   59CHL1    C6 6781   3.608   4.673  10.223  0.4220 -0.1694 -0.2304
   59CHL1    H6 6782   3.539   4.627  10.295  0.8410 -4.2731 -2.2551
   59CHL1    C7 6783   3.565   4.669  10.079  0.1659  0.1190  0.0761
   59CHL1   H7A 6784   3.489   4.592  10.053 -1.0786  1.4648 -0.3542
   59CHL1   H7B 6785   3.516   4.763  10.045  1.4035 -0.0300 -2.2001
   59CHL1    C8 6786   3.689   4.674   9.981 -0.1978 -0.3868  0.2207
   59CHL1    H8 6787   3.732   4.572   9.988  0.7499 -0.2222 -2.5975
   59CHL1   C14 6788   3.636   4.694   9.839 -0.7751  0.4260  0.0139
   59CHL1   H14 6789   3.574   4.786   9.846  1.9103  2.2735  0.6450
   59CHL1   C15 6790   3.544   4.588   9.771  0.2726 -0.3464 -1.0535
   59CHL1  H15A 6791   3.583   4.485   9.781 -0.4875 -0.6506 -1.1485
   59CHL1  H15B 6792   3.449   4.590   9.829 -0.1755 -2.9425 -1.6256
   59CHL1   C16 6793   3.530   4.633   9.630 -0.2336 -0.0445 -0.3320
   59CHL1  H16A 6794   3.556   4.542   9.572  1.7254 -0.8394  1.7239
   59CHL1  H16B 6795   3.425   4.666   9.610 -0.8088 -1.0526  0.9359
   59CHL1   C17 6796   3.636   4.743   9.603 -0.2381 -0.5621 -0.8715
   59CHL1   H17 6797   3.586   4.841   9.613 -0.6571 -1.0012  1.7038
   59CHL1   C13 6798   3.737   4.730   9.724  0.6085  0.3552 -0.3388
   59CHL1   C18 6799   3.832   4.608   9.715 -1.1368  0.7962  0.2202
   59CHL1  H18A 6800   3.872   4.574   9.813 -0.1497  1.3120 -0.0010
   59CHL1  H18B 6801   3.771   4.523   9.678  0.7263 -0.5556  0.1657
   59CHL1  H18C 6802   3.911   4.624   9.638  1.6198 -1.1216  2.5160
   59CHL1   C12 6803   3.816   4.851   9.768 -0.4146  0.0364 -0.9420
   59CHL1  H12A 6804   3.905   4.879   9.707  1.3508  0.9954  1.9675
   59CHL1  H12B 6805   3.743   4.935   9.758 -0.2790  0.0214 -2.0935
   59CHL1   C11 6806   3.877   4.836   9.915  0.1974  0.0854 -0.4260
   59CHL1  H11A 6807   3.953   4.758   9.895  0.8341  0.7831 -0.7578
   59CHL1  H11B 6808   3.929   4.930   9.945 -0.2013 -0.1215  0.9541
   59CHL1    C9 6809   3.780   4.795  10.028  0.6076  0.9486 -0.5439
   59CHL1    H9 6810   3.708   4.879  10.035 -0.0849  0.2139  1.1562
   59CHL1   C10 6811   3.840   4.764  10.174  0.5713 -0.2511 -0.1699
   59CHL1   C19 6812   3.952   4.652  10.152 -0.8675 -0.6156 -0.0451
   59CHL1  H19A 6813   3.979   4.591  10.240 -0.6012 -0.9376 -0.3456
   59CHL1  H19B 6814   3.918   4.593  10.064  0.6467 -0.6571 -0.6225
   59CHL1  H19C 6815   4.043   4.709  10.120 -1.0270 -1.5171 -2.2243
   59CHL1    C1 6816   3.896   4.892  10.240 -0.6197  0.2394 -0.5295
   59CHL1   H1A 6817   3.969   4.925  10.163 -2.1329  0.4144 -1.9178
   59CHL1   H1B 6818   3.824   4.976  10.236 -0.4507  0.3303 -1.7088
   59CHL1    C2 6819   3.947   4.863  10.378 -0.3611  0.5956  0.0861
   59CHL1   H2A 6820   3.985   4.959  10.419  1.5803 -0.1948  0.1909
   59CHL1   H2B 6821   4.027   4.785  10.377 -0.8670  0.0809 -0.1382
   59CHL1   C20 6822   3.687   4.751   9.457 -0.4099 -0.0248  0.2878
   59CHL1   H20 6823   3.785   4.700   9.446 -0.3572  0.3318 -0.9684
   59CHL1   C21 6824   3.717   4.899   9.428 -0.2543  0.0279 -0.4349
   59CHL1  H21A 6825   3.623   4.957   9.438 -0.8357 -1.2331  1.8794
   59CHL1  H21B 6826   3.777   4.908   9.335  1.1241  0.8471  0.5081
   59CHL1  H21C 6827   3.785   4.932   9.510 -0.4854 -0.9517  0.1610
   59CHL1   C22 6828   3.596   4.698   9.351 -0.2835 -0.1729  0.0294
   59CHL1  H22A 6829   3.593   4.589   9.371  0.3875 -0.1039  0.5059
   59CHL1  H22B 6830   3.491   4.733   9.357  0.2745  1.3750  0.9058
   59CHL1   C23 6831   3.643   4.711   9.207  0.7173  0.2540  0.8644
   59CHL1  H23A 6832   3.658   4.817   9.178  0.8676  0.0748  0.2753
   59CHL1  H23B 6833   3.740   4.657   9.198 -0.5079 -1.8774  0.3069
   59CHL1   C24 6834   3.542   4.658   9.100 -0.4931 -0.1828  0.1587
   59CHL1  H24A 6835   3.509   4.562   9.145 -1.0076 -1.7107 -3.3389
   59CHL1  H24B 6836   3.460   4.732   9.107  0.6437  1.1004  0.0861
   59CHL1   C25 6837   3.589   4.630   8.962 -0.0408 -0.2165 -0.1225
   59CHL1   H25 6838   3.656   4.541   8.961  0.6319  0.2803 -1.7627
   59CHL1   C26 6839   3.460   4.590   8.883 -0.8995  0.1947 -0.1300
   59CHL1  H26A 6840   3.389   4.671   8.906  0.4485  1.7865 -1.4791
   59CHL1  H26B 6841   3.493   4.597   8.777  1.2543  2.6540  0.6466
   59CHL1  H26C 6842   3.412   4.491   8.902 -1.0093  0.2338 -0.2023
   59CHL1   C27 6843   3.651   4.753   8.902  1.0399  0.5851 -0.1820
   59CHL1  H27A 6844   3.731   4.783   8.973  1.3943  1.3818 -0.9202
   59CHL1  H27B 6845   3.697   4.748   8.801  1.8185  0.9051  0.1510
   59CHL1  H27C 6846   3.574   4.832   8.888  0.6877  0.2022 -0.4224
   60CHL1    C3 6847   3.093   4.246  10.292 -0.0951  0.9186 -0.6044
   60CHL1    H3 6848   3.089   4.357  10.298 -2.8630  0.7375  1.3394
   60CHL1    O3 6849   3.096   4.207  10.427 -0.1996  0.4299  0.4720
   60CHL1   H3' 6850   3.126   4.116  10.434 -2.6295 -0.5916 -1.4155
   60CHL1    C4 6851   2.975   4.187  10.213  0.6979 -0.5654  0.1518
   60CHL1   H4A 6852   2.969   4.076  10.222 -0.4059 -0.7221 -2.1502
   60CHL1   H4B 6853   2.890   4.239  10.261  1.0352 -0.4583  0.6359
   60CHL1    C5 6854   2.975   4.212  10.062  0.0924  0.6650  0.2231
   60CHL1    C6 6855   2.871   4.268   9.996 -0.0414  0.5691 -0.0710
   60CHL1    H6 6856   2.775   4.290  10.045  0.6322  1.6021  0.8047
   60CHL1    C7 6857   2.861   4.292   9.848  0.1659  0.6903 -0.0653
   60CHL1   H7A 6858   2.765   4.247   9.816  0.7157 -0.4239 -0.1800
   60CHL1   H7B 6859   2.862   4.401   9.827  0.9781  0.4040 -1.6091
   60CHL1    C8 6860   2.982   4.230   9.772 -0.0107 -0.9092 -0.5725
   60CHL1    H8 6861   2.958   4.123   9.756 -3.1504 -0.1818 -1.1006
   60CHL1   C14 6862   2.985   4.298   9.633 -0.6625 -0.7650 -0.4487
   60CHL1   H14 6863   3.005   4.401   9.669 -0.1141 -1.6967  1.9956
   60CHL1   C15 6864   2.855   4.311   9.558  0.3431  0.0027 -1.1824
   60CHL1  H15A 6865   2.782   4.228   9.569  1.5362 -0.5924  3.3291
   60CHL1  H15B 6866   2.789   4.397   9.580 -1.4473 -1.9349  1.3464
   60CHL1   C16 6867   2.901   4.323   9.413 -0.1585  0.4046 -0.1254
   60CHL1  H16A 6868   2.857   4.238   9.356  0.8192 -0.5448  0.5277
   60CHL1  H16B 6869   2.862   4.420   9.377 -1.5986 -0.3529 -0.6547
   60CHL1   C17 6870   3.058   4.331   9.414 -0.2442 -0.3303 -0.6846
   60CHL1   H17 6871   3.070   4.436   9.446 -1.1808 -0.8039  1.3550
   60CHL1   C13 6872   3.093   4.251   9.539  0.8808  0.2213  0.7767
   60CHL1   C18 6873   3.081   4.094   9.515  0.3896 -0.2806  0.0311
   60CHL1  H18A 6874   2.990   4.070   9.456  0.7645 -1.4082 -0.0854
   60CHL1  H18B 6875   3.173   4.048   9.472 -0.1652 -0.7163 -0.7097
   60CHL1  H18C 6876   3.076   4.047   9.615 -0.7245 -2.7664 -1.1573
   60CHL1   C12 6877   3.225   4.288   9.618 -0.4143 -0.1770  0.5678
   60CHL1  H12A 6878   3.313   4.262   9.555 -1.8626  0.5964 -1.8322
   60CHL1  H12B 6879   3.237   4.399   9.625  1.0623 -0.1646 -1.5800
   60CHL1   C11 6880   3.234   4.233   9.758  0.4092 -0.2003  0.0741
   60CHL1  H11A 6881   3.245   4.124   9.737  0.7338 -0.5248  1.8252
   60CHL1  H11B 6882   3.330   4.258   9.809  0.5914  1.0385 -0.8676
   60CHL1    C9 6883   3.111   4.257   9.846 -0.1799  0.2285 -0.7380
   60CHL1    H9 6884   3.114   4.366   9.872  0.3927 -0.1365  0.8366
   60CHL1   C10 6885   3.113   4.186   9.984  0.3766 -0.0478 -0.4330
   60CHL1   C19 6886   3.139   4.040   9.970  0.0091 -0.0789  0.0079
   60CHL1  H19A 6887   3.060   4.009   9.899 -1.0324  2.0384  0.2234
   60CHL1  H19B 6888   3.238   4.022   9.922  1.1265  1.1285  1.7804
   60CHL1  H19C 6889   3.146   3.993  10.070  0.7444  0.8458  0.3916
   60CHL1    C1 6890   3.232   4.245  10.073  0.6989  0.4151  0.1053
   60CHL1   H1A 6891   3.328   4.221  10.023  0.0794 -1.1148 -0.3856
   60CHL1   H1B 6892   3.230   4.354  10.054  0.8898  0.3359 -0.3974
   60CHL1    C2 6893   3.230   4.207  10.224  1.3049  0.1664  0.3706
   60CHL1   H2A 6894   3.319   4.253  10.272  0.1553  1.6433  1.1485
   60CHL1   H2B 6895   3.257   4.100  10.237  2.7518  0.1592 -2.3025
   60CHL1   C20 6896   3.124   4.296   9.281 -0.2731 -0.1042 -0.5196
   60CHL1   H20 6897   3.097   4.191   9.255 -1.5081  0.4833 -1.6349
   60CHL1   C21 6898   3.275   4.300   9.296 -0.0399 -0.2322 -0.1248
   60CHL1  H21A 6899   3.313   4.273   9.195  0.5324 -1.7811  0.4887
   60CHL1  H21B 6900   3.314   4.216   9.357  1.0318  1.2259  1.2270
   60CHL1  H21C 6901   3.310   4.398   9.335 -0.6157  0.5346 -1.5030
   60CHL1   C22 6902   3.079   4.383   9.162 -0.1355 -0.1228 -0.5687
   60CHL1  H22A 6903   2.971   4.412   9.155 -0.2076 -0.2903 -0.1414
   60CHL1  H22B 6904   3.135   4.477   9.181 -2.5259  0.7743  2.5471
   60CHL1   C23 6905   3.118   4.321   9.021  0.1467 -0.1670  0.5128
   60CHL1  H23A 6906   3.227   4.308   9.009  0.2129 -0.1325  1.0363
   60CHL1  H23B 6907   3.067   4.223   9.004 -1.2136  0.3744  1.3344
   60CHL1   C24 6908   3.080   4.422   8.913 -0.1998  0.2434  0.1150
   60CHL1  H24A 6909   2.978   4.460   8.935 -0.2623 -0.8721  1.8871
   60CHL1  H24B 6910   3.149   4.508   8.920  0.1193  0.1387 -1.6296
   60CHL1   C25 6911   3.080   4.367   8.770 -0.1135  0.2829 -0.4309
   60CHL1   H25 6912   3.028   4.448   8.712 -2.6415 -1.3844 -0.5759
   60CHL1   C26 6913   3.216   4.333   8.711 -0.0517 -0.5263 -0.1614
   60CHL1  H26A 6914   3.256   4.236   8.747  1.8809 -0.7368 -2.7068
   60CHL1  H26B 6915   3.202   4.307   8.603 -1.8802  1.8473 -0.5363
   60CHL1  H26C 6916   3.294   4.412   8.714 -0.4956 -0.0644 -0.7831
   60CHL1   C27 6917   2.985   4.250   8.742 -1.3425 -0.6445  0.2013
   60CHL1  H27A 6918   2.987   4.221   8.634  2.8937  0.3382 -0.1020
   60CHL1  H27B 6919   3.008   4.171   8.816 -0.9708  0.5945  1.4407
   60CHL1  H27C 6920   2.886   4.292   8.768 -1.7677 -1.5240  0.0140
   61CHL1    C3 6921   0.315   3.555  10.389  0.2278  0.6101 -0.7911
   61CHL1    H3 6922   0.406   3.617  10.404 -0.6517  1.3604  1.5355
   61CHL1    O3 6923   0.272   3.520  10.519  0.1250 -0.2107  0.1366
   61CHL1   H3' 6924   0.334   3.453  10.550  0.4787  0.4572  0.8881
   61CHL1    C4 6925   0.198   3.617  10.323  0.6514 -0.1177 -0.3639
   61CHL1   H4A 6926   0.107   3.558  10.348  0.4330 -0.3234 -1.5729
   61CHL1   H4B 6927   0.186   3.717  10.368  0.7847  0.1741 -0.9647
   61CHL1    C5 6928   0.204   3.626  10.176 -1.0404  0.0632  0.4180
   61CHL1    C6 6929   0.166   3.738  10.119  1.1614 -0.0962 -0.1083
   61CHL1    H6 6930   0.142   3.821  10.188  0.0073 -0.4859 -0.0307
   61CHL1    C7 6931   0.163   3.754   9.969 -0.0764  0.0078  0.3809
   61CHL1   H7A 6932   0.070   3.804   9.937 -1.5028 -0.8259  3.1172
   61CHL1   H7B 6933   0.243   3.828   9.944 -0.6021  0.2068 -0.7134
   61CHL1    C8 6934   0.179   3.622   9.885 -0.1463  0.8573 -0.3318
   61CHL1    H8 6935   0.081   3.570   9.884 -0.5302  1.5876 -0.3566
   61CHL1   C14 6936   0.226   3.638   9.745  0.5875  0.5219  0.0011
   61CHL1   H14 6937   0.334   3.664   9.754  0.9839 -1.8481  2.6648
   61CHL1   C15 6938   0.147   3.744   9.660 -0.1216 -0.4869 -0.3429
   61CHL1  H15A 6939   0.037   3.732   9.671 -0.5289  2.9834 -0.2085
   61CHL1  H15B 6940   0.176   3.844   9.697 -0.7949 -0.1678 -0.6721
   61CHL1   C16 6941   0.194   3.705   9.511  0.0235 -0.0407  0.1177
   61CHL1  H16A 6942   0.109   3.684   9.442 -0.2777 -1.7878  0.9895
   61CHL1  H16B 6943   0.264   3.775   9.460 -0.0642  0.8801  1.2475
   61CHL1   C17 6944   0.282   3.576   9.525  0.5100  0.1291  1.2018
   61CHL1   H17 6945   0.388   3.602   9.545 -0.0524  1.9696  1.8286
   61CHL1   C13 6946   0.234   3.514   9.665 -0.3150  0.1185  0.0520
   61CHL1   C18 6947   0.107   3.441   9.643  0.1536  0.2415  0.9221
   61CHL1  H18A 6948   0.070   3.391   9.736  0.2332  0.6467  1.1717
   61CHL1  H18B 6949   0.031   3.511   9.605  1.5176  0.1058 -2.2005
   61CHL1  H18C 6950   0.113   3.366   9.561 -1.8878  0.6863  0.3503
   61CHL1   C12 6951   0.340   3.423   9.727  0.1880 -0.2918  0.4560
   61CHL1  H12A 6952   0.358   3.326   9.675  0.6365 -0.5739  1.1327
   61CHL1  H12B 6953   0.439   3.473   9.722  0.2765 -0.4425  0.6843
   61CHL1   C11 6954   0.310   3.400   9.874  0.0676 -1.4144 -0.6241
   61CHL1  H11A 6955   0.213   3.346   9.870 -0.8954  0.1660  0.9537
   61CHL1  H11B 6956   0.388   3.331   9.911  2.3514 -0.4294 -3.3381
   61CHL1    C9 6957   0.284   3.525   9.952 -0.4971  0.1609  0.4350
   61CHL1    H9 6958   0.381   3.578   9.965 -0.0565 -0.4915 -0.2188
   61CHL1   C10 6959   0.239   3.495  10.102  0.3343  0.4124  0.3765
   61CHL1   C19 6960   0.123   3.393  10.109  0.0816  0.0509 -0.3987
   61CHL1  H19A 6961   0.062   3.396  10.202 -1.5810 -0.0133 -1.4781
   61CHL1  H19B 6962   0.063   3.415  10.018  1.1969 -0.0889 -1.1844
   61CHL1  H19C 6963   0.160   3.288  10.105 -3.3850 -1.2829  1.2139
   61CHL1    C1 6964   0.362   3.439  10.173 -0.6566 -0.6997 -0.1690
   61CHL1   H1A 6965   0.399   3.344  10.130  1.2883 -0.2365  0.4170
   61CHL1   H1B 6966   0.443   3.514  10.158 -0.3302 -1.1323 -0.6011
   61CHL1    C2 6967   0.354   3.423  10.321 -0.8336 -0.8730 -0.3943
   61CHL1   H2A 6968   0.454   3.392  10.359  0.8018  2.3006 -1.8303
   61CHL1   H2B 6969   0.281   3.341  10.339 -2.3267  0.3065 -0.9675
   61CHL1   C20 6970   0.284   3.499   9.390  0.0017 -0.2892 -0.0909
   61CHL1   H20 6971   0.182   3.456   9.375  0.4643 -1.1266 -0.9420
   61CHL1   C21 6972   0.382   3.379   9.396 -0.2478 -0.5110 -0.1332
   61CHL1  H21A 6973   0.338   3.305   9.466 -4.0201 -0.3831 -2.2073
   61CHL1  H21B 6974   0.473   3.422   9.441 -0.4210 -1.3435  1.0159
   61CHL1  H21C 6975   0.415   3.342   9.296 -0.9470 -0.3778 -0.4192
   61CHL1   C22 6976   0.326   3.588   9.267 -0.6762  0.2397  0.6162
   61CHL1  H22A 6977   0.298   3.521   9.183 -1.7714 -1.8000  2.5348
   61CHL1  H22B 6978   0.260   3.677   9.255 -0.8523  0.2295  1.4690
   61CHL1   C23 6979   0.474   3.630   9.249  0.1462  0.1471 -0.1056
   61CHL1  H23A 6980   0.513   3.668   9.346 -1.2447  2.3464 -0.3969
   61CHL1  H23B 6981   0.539   3.541   9.236  0.3771 -0.0375  2.0404
   61CHL1   C24 6982   0.494   3.721   9.130  0.0935 -0.5045 -0.9860
   61CHL1  H24A 6983   0.392   3.762   9.112 -0.6547 -2.4696 -1.4087
   61CHL1  H24B 6984   0.565   3.802   9.155  2.1556 -2.4017 -0.5223
   61CHL1   C25 6985   0.546   3.650   9.001 -0.2579 -0.4868 -0.2024
   61CHL1   H25 6986   0.637   3.589   9.019  0.6249  0.2055 -2.0852
   61CHL1   C26 6987   0.443   3.559   8.940 -0.3350 -0.6095  0.4517
   61CHL1  H26A 6988   0.420   3.470   9.002  0.3149 -3.0113 -2.6132
   61CHL1  H26B 6989   0.349   3.614   8.921 -0.1797 -0.5792 -0.2411
   61CHL1  H26C 6990   0.479   3.523   8.841  0.7448  1.1662  0.1633
   61CHL1   C27 6991   0.593   3.759   8.900 -0.5974 -0.1798  0.2700
   61CHL1  H27A 6992   0.527   3.848   8.898  2.1355  1.9430  2.3461
   61CHL1  H27B 6993   0.688   3.809   8.929 -2.0327  3.5338 -1.1449
   61CHL1  H27C 6994   0.598   3.709   8.801 -1.5285  0.2065  0.0154
   62CHL1    C3 6995   0.991   0.193  10.136  0.4532 -0.0274  0.1474
   62CHL1    H3 6996   0.892   0.144  10.139  1.3614 -1.8480  0.8365
   62CHL1    O3 6997   1.022   0.231  10.268 -0.3240 -0.2756 -0.3492
   62CHL1   H3' 6998   0.949   0.282  10.303 -0.5927  0.2727 -1.6712
   62CHL1    C4 6999   1.088   0.083  10.088  0.1306  0.9789  0.2373
   62CHL1   H4A 7000   1.188   0.126  10.113  1.8337 -0.6416 -3.3638
   62CHL1   H4B 7001   1.076  -0.013  10.141  0.2657 -0.8536 -2.9298
   62CHL1    C5 7002   1.081   0.054   9.935  0.5494 -0.3420  0.6183
   62CHL1    C6 7003   1.067  -0.069   9.878  0.6952 -0.2361  0.6416
   62CHL1    H6 7004   1.064  -0.157   9.943 -0.7773 -0.3108  0.4914
   62CHL1    C7 7005   1.080  -0.099   9.733 -0.1772  0.6299 -0.4146
   62CHL1   H7A 7006   1.137  -0.194   9.724 -2.7182 -0.9298 -0.5262
   62CHL1   H7B 7007   0.977  -0.117   9.694  0.1486 -1.6940 -0.2512
   62CHL1    C8 7008   1.139   0.010   9.645  0.3098 -0.7108  0.1752
   62CHL1    H8 7009   1.249   0.019   9.652  0.1484  2.8757 -0.6662
   62CHL1   C14 7010   1.101  -0.011   9.500  0.1925  0.1165  0.1176
   62CHL1   H14 7011   0.990  -0.007   9.502  0.2058  0.1958  0.8248
   62CHL1   C15 7012   1.141  -0.145   9.439  0.0118 -0.2098 -0.1855
   62CHL1  H15A 7013   1.251  -0.161   9.447 -0.2906 -3.3526 -1.4423
   62CHL1  H15B 7014   1.095  -0.240   9.474 -1.3843 -0.3561 -2.2877
   62CHL1   C16 7015   1.115  -0.120   9.293 -0.5420 -0.0722 -0.3727
   62CHL1  H16A 7016   1.205  -0.153   9.237 -0.6559  0.7791 -1.0666
   62CHL1  H16B 7017   1.036  -0.187   9.255 -1.8664 -0.3154  2.6962
   62CHL1   C17 7018   1.100   0.039   9.277  0.7040  0.2919 -0.2949
   62CHL1   H17 7019   0.993   0.065   9.291  0.2437 -2.0622  0.9346
   62CHL1   C13 7020   1.155   0.102   9.406 -0.2884  0.2738 -0.1240
   62CHL1   C18 7021   1.310   0.110   9.399 -0.4313 -0.0411  0.6993
   62CHL1  H18A 7022   1.356   0.016   9.362  1.3385  0.7155  0.9099
   62CHL1  H18B 7023   1.358   0.194   9.344  0.6472 -0.2541  1.2947
   62CHL1  H18C 7024   1.352   0.121   9.501 -2.9863  0.7195  1.7051
   62CHL1   C12 7025   1.097   0.233   9.456  0.4178  0.1501  0.7113
   62CHL1  H12A 7026   1.129   0.316   9.389  0.2032 -1.8866 -1.9804
   62CHL1  H12B 7027   0.986   0.240   9.457  0.3531 -0.6972  0.1169
   62CHL1   C11 7028   1.138   0.262   9.601  0.2208  0.3546  0.0643
   62CHL1  H11A 7029   1.248   0.273   9.609  0.2168 -0.8715  2.5099
   62CHL1  H11B 7030   1.103   0.363   9.631  1.1030  1.2583 -1.9070
   62CHL1    C9 7031   1.084   0.146   9.694  0.2051 -0.3248  0.7656
   62CHL1    H9 7032   0.975   0.155   9.676  0.2876 -0.3315  0.2468
   62CHL1   C10 7033   1.103   0.175   9.846  0.5585  0.9981 -0.0239
   62CHL1   C19 7034   1.235   0.242   9.867 -0.0652  0.3269 -0.3157
   62CHL1  H19A 7035   1.319   0.173   9.843 -1.4363 -2.2879  2.1048
   62CHL1  H19B 7036   1.248   0.342   9.820 -0.4249  0.9772  0.9261
   62CHL1  H19C 7037   1.245   0.269   9.974 -1.1631  2.3864 -0.7096
   62CHL1    C1 7038   0.990   0.275   9.892  0.3067  0.7389  0.5825
   62CHL1   H1A 7039   0.995   0.363   9.824 -0.4677  0.6568  0.4136
   62CHL1   H1B 7040   0.892   0.224   9.877  0.6366  0.3318 -0.1809
   62CHL1    C2 7041   0.994   0.315  10.044 -0.3814  0.1057  0.2525
   62CHL1   H2A 7042   0.905   0.380  10.058 -0.3725 -0.3206  2.4958
   62CHL1   H2B 7043   1.084   0.375  10.072 -0.3579 -0.4098  1.3032
   62CHL1   C20 7044   1.144   0.082   9.135 -0.3073  0.3666 -0.3889
   62CHL1   H20 7045   1.250   0.054   9.123  0.6871  4.1285 -0.8066
   62CHL1   C21 7046   1.136   0.233   9.126  0.6620  0.1030 -0.5041
   62CHL1  H21A 7047   1.154   0.273   9.025 -1.1914  0.2487 -0.7957
   62CHL1  H21B 7048   1.215   0.285   9.184  1.3750  2.0104 -3.0994
   62CHL1  H21C 7049   1.032   0.259   9.153  0.1926 -3.1209  1.0632
   62CHL1   C22 7050   1.065   0.021   9.018 -0.6462  0.4478 -0.2165
   62CHL1  H22A 7051   0.968  -0.005   9.066 -0.2954  0.2826  0.4183
   62CHL1  H22B 7052   1.056   0.093   8.934 -1.3172  1.0346  0.3474
   62CHL1   C23 7053   1.130  -0.107   8.969  0.5606  0.2139  0.2460
   62CHL1  H23A 7054   1.241  -0.101   8.964  0.4779  2.2193  0.3875
   62CHL1  H23B 7055   1.113  -0.191   9.039 -0.9922 -1.2856 -1.8482
   62CHL1   C24 7056   1.073  -0.164   8.840 -0.0520  0.0208  0.1935
   62CHL1  H24A 7057   0.965  -0.189   8.844  0.2034 -1.5222 -1.6900
   62CHL1  H24B 7058   1.101  -0.098   8.755  1.3004  0.5220  1.0166
   62CHL1   C25 7059   1.139  -0.307   8.817  0.8572  0.0774 -0.0403
   62CHL1   H25 7060   1.104  -0.364   8.906 -0.2013 -0.7149 -0.9526
   62CHL1   C26 7061   1.095  -0.375   8.691  0.2999 -0.5563  0.1815
   62CHL1  H26A 7062   1.000  -0.423   8.723 -0.5611  0.6546 -0.5267
   62CHL1  H26B 7063   1.078  -0.310   8.603 -1.6594 -0.3997  0.6528
   62CHL1  H26C 7064   1.161  -0.461   8.664  1.0964  0.2264 -0.3793
   62CHL1   C27 7065   1.294  -0.303   8.816 -0.5309 -0.1556 -0.2072
   62CHL1  H27A 7066   1.317  -0.406   8.781 -2.9886 -1.8272  2.8876
   62CHL1  H27B 7067   1.330  -0.234   8.736 -1.3687 -0.7513 -1.1075
   62CHL1  H27C 7068   1.332  -0.280   8.918 -0.2235  0.3464 -0.4323
   63CHL1    C3 7069   2.560   1.478  10.283  0.0946  0.7715 -0.0998
   63CHL1    H3 7070   2.597   1.379  10.251 -2.6059  0.0186 -0.9499
   63CHL1    O3 7071   2.505   1.471  10.413 -1.0760 -0.3487  0.9141
   63CHL1   H3' 7072   2.568   1.421  10.465 -0.9069 -2.1259 -0.9344
   63CHL1    C4 7073   2.671   1.582  10.277 -0.3025  0.6271 -0.6945
   63CHL1   H4A 7074   2.635   1.677  10.324  0.2114  0.3286  0.3271
   63CHL1   H4B 7075   2.748   1.549  10.350 -1.7344  0.4380  0.7542
   63CHL1    C5 7076   2.716   1.597  10.136 -0.3087 -0.1939  0.0976
   63CHL1    C6 7077   2.850   1.590  10.119  0.1947  0.2673  0.1912
   63CHL1    H6 7078   2.917   1.565  10.203  1.6141 -0.8067 -1.2396
   63CHL1    C7 7079   2.912   1.611   9.984  0.2781 -0.5973  0.0619
   63CHL1   H7A 7080   3.016   1.650   9.985 -0.6784  2.0611 -0.3835
   63CHL1   H7B 7081   2.916   1.505   9.950  2.7232 -1.3357  2.4663
   63CHL1    C8 7082   2.815   1.675   9.871 -1.0442  0.0410  1.0077
   63CHL1    H8 7083   2.805   1.783   9.893  2.5489  0.5630  0.4992
   63CHL1   C14 7084   2.874   1.647   9.732 -0.2377  0.3130 -0.2316
   63CHL1   H14 7085   2.897   1.538   9.727  1.5708  0.6983 -0.7097
   63CHL1   C15 7086   3.008   1.710   9.698 -0.1310 -0.3690  0.0037
   63CHL1  H15A 7087   3.012   1.819   9.718  0.6913 -0.0315 -1.8843
   63CHL1  H15B 7088   3.094   1.665   9.752  1.1492  2.1415  0.1387
   63CHL1   C16 7089   3.011   1.701   9.537 -0.0638 -0.5386 -0.2438
   63CHL1  H16A 7090   3.032   1.803   9.497 -1.0355 -0.1002  0.3617
   63CHL1  H16B 7091   3.090   1.632   9.500 -0.8312 -0.6088 -1.7879
   63CHL1   C17 7092   2.866   1.658   9.484  0.2729 -0.4432 -0.1532
   63CHL1   H17 7093   2.865   1.547   9.482  0.7102 -0.4395 -1.0754
   63CHL1   C13 7094   2.778   1.686   9.613  0.4115 -0.3242 -0.2126
   63CHL1   C18 7095   2.756   1.840   9.614 -0.5935 -0.0091  0.2050
   63CHL1  H18A 7096   2.736   1.885   9.714  2.8327  1.8994  0.1093
   63CHL1  H18B 7097   2.839   1.901   9.573  1.0178 -0.3614  2.8303
   63CHL1  H18C 7098   2.659   1.861   9.564  0.0280  0.5880 -0.7726
   63CHL1   C12 7099   2.653   1.604   9.627  0.2121 -0.4337  0.5566
   63CHL1  H12A 7100   2.585   1.620   9.541  1.4277 -1.7826 -0.6875
   63CHL1  H12B 7101   2.675   1.496   9.614 -1.8622 -0.8453  0.2551
   63CHL1   C11 7102   2.587   1.631   9.764  0.1769 -0.5346 -0.0732
   63CHL1  H11A 7103   2.537   1.729   9.754  2.5561  0.7103 -0.1900
   63CHL1  H11B 7104   2.499   1.565   9.777 -0.3566  0.4242  1.2786
   63CHL1    C9 7105   2.676   1.601   9.887 -0.5461  0.0749  0.4279
   63CHL1    H9 7106   2.700   1.494   9.872  1.1597 -0.1333  3.9478
   63CHL1   C10 7107   2.607   1.625  10.027  0.4242 -0.1746 -0.3543
   63CHL1   C19 7108   2.559   1.775  10.046  0.0046 -0.1855  0.0935
   63CHL1  H19A 7109   2.644   1.846  10.036  0.1457 -0.2368  0.8449
   63CHL1  H19B 7110   2.484   1.780   9.965  1.9337  1.9941 -1.6101
   63CHL1  H19C 7111   2.513   1.795  10.145 -0.1837 -1.2795  0.2365
   63CHL1    C1 7112   2.493   1.524  10.045 -0.1953 -0.3160 -0.1266
   63CHL1   H1A 7113   2.410   1.551   9.975 -0.7934  0.1997  0.7733
   63CHL1   H1B 7114   2.538   1.428  10.011  2.3080  0.3893  1.1435
   63CHL1    C2 7115   2.441   1.527  10.190 -0.5659 -0.5914  0.2007
   63CHL1   H2A 7116   2.354   1.458  10.200  0.2918 -1.8627 -0.8558
   63CHL1   H2B 7117   2.420   1.632  10.215 -0.1930  0.2316 -2.6867
   63CHL1   C20 7118   2.832   1.713   9.349  0.1785 -0.2190 -0.0349
   63CHL1   H20 7119   2.807   1.820   9.365 -1.5813 -0.6582  0.2103
   63CHL1   C21 7120   2.712   1.635   9.300  0.0841 -0.1024  0.3139
   63CHL1  H21A 7121   2.682   1.679   9.202 -0.9830  0.9882  1.1149
   63CHL1  H21B 7122   2.619   1.638   9.361 -0.6384  0.6546 -0.8060
   63CHL1  H21C 7123   2.733   1.526   9.290 -0.3169 -0.2766  1.3189
   63CHL1   C22 7124   2.944   1.707   9.245 -0.1570 -0.2139 -0.3038
   63CHL1  H22A 7125   2.917   1.746   9.144  4.2575 -0.1194 -1.5854
   63CHL1  H22B 7126   3.036   1.763   9.273  0.9900 -2.2020 -0.0294
   63CHL1   C23 7127   2.994   1.563   9.215  0.5802  0.1707 -0.0395
   63CHL1  H23A 7128   3.032   1.509   9.305  0.2613  1.5557  0.9337
   63CHL1  H23B 7129   2.901   1.508   9.190  0.4764  0.8281 -1.1294
   63CHL1   C24 7130   3.092   1.537   9.108 -0.0013 -0.2087 -0.0109
   63CHL1  H24A 7131   3.074   1.603   9.020 -1.7583 -1.3948 -0.5822
   63CHL1  H24B 7132   3.193   1.562   9.148 -1.5877  1.7194  2.8704
   63CHL1   C25 7133   3.096   1.394   9.054  0.6283 -0.3539 -0.0489
   63CHL1   H25 7134   2.991   1.371   9.027  0.7178  1.5292 -2.0854
   63CHL1   C26 7135   3.177   1.366   8.925  0.0817 -0.4442 -0.2273
   63CHL1  H26A 7136   3.175   1.255   8.916 -0.6759 -0.4372 -0.1503
   63CHL1  H26B 7137   3.125   1.404   8.835  0.1823  0.4338  0.0784
   63CHL1  H26C 7138   3.282   1.402   8.938 -0.1494  0.0309  0.3803
   63CHL1   C27 7139   3.129   1.303   9.169  0.1714  0.1916 -0.4727
   63CHL1  H27A 7140   3.053   1.289   9.249  0.3222  3.1099  0.2446
   63CHL1  H27B 7141   3.151   1.202   9.129  0.4494  0.2307 -0.4208
   63CHL1  H27C 7142   3.219   1.340   9.223  0.1873 -1.7429  0.9040
   64CHL1    C3 7143   1.898   0.885   9.978 -0.6277  0.1563 -0.3609
   64CHL1    H3 7144   1.886   0.775   9.986  2.5514 -0.1564  0.9244
   64CHL1    O3 7145   1.836   0.941  10.094  0.5803 -1.0043  0.1390
   64CHL1   H3' 7146   1.900   0.932  10.165  0.4196 -0.3732  0.3585
   64CHL1    C4 7147   2.049   0.915   9.964  0.4570  0.5954 -0.2969
   64CHL1   H4A 7148   2.052   1.026   9.962  0.5724  0.6718  2.2325
   64CHL1   H4B 7149   2.090   0.877  10.060 -1.4712 -0.9514 -0.0508
   64CHL1    C5 7150   2.105   0.863   9.831 -0.4957  0.2084 -0.4461
   64CHL1    C6 7151   2.210   0.777   9.827  0.1934  1.1580 -0.1471
   64CHL1    H6 7152   2.260   0.757   9.923 -1.0750 -1.8418 -0.0871
   64CHL1    C7 7153   2.276   0.725   9.702 -0.1299  0.8761 -0.7432
   64CHL1   H7A 7154   2.386   0.727   9.711 -0.1907 -1.6318  1.1484
   64CHL1   H7B 7155   2.240   0.621   9.688 -0.3329  0.9340 -0.6509
   64CHL1    C8 7156   2.228   0.804   9.578  0.5883 -0.0608 -0.0529
   64CHL1    H8 7157   2.272   0.906   9.576  0.1637  0.1099 -0.7187
   64CHL1   C14 7158   2.275   0.724   9.455  0.3305 -1.2202 -0.0366
   64CHL1   H14 7159   2.227   0.624   9.459  0.1035 -1.2215 -2.1073
   64CHL1   C15 7160   2.429   0.689   9.442  0.7701  0.6286  0.1086
   64CHL1  H15A 7161   2.490   0.770   9.488 -0.4454 -0.2712  3.4223
   64CHL1  H15B 7162   2.431   0.599   9.507  2.8950  0.5188 -0.0675
   64CHL1   C16 7163   2.452   0.666   9.293  0.3291 -0.0307  0.5134
   64CHL1  H16A 7164   2.542   0.727   9.271 -0.2396  0.3018 -0.9088
   64CHL1  H16B 7165   2.472   0.560   9.267 -0.9592  0.0037 -0.6924
   64CHL1   C17 7166   2.324   0.708   9.215  0.0688 -0.1736 -0.8104
   64CHL1   H17 7167   2.268   0.613   9.204 -1.7624  0.9695 -1.6021
   64CHL1   C13 7168   2.241   0.789   9.324 -0.5135  0.1721  0.7284
   64CHL1   C18 7169   2.292   0.935   9.311  0.2539  0.8555 -0.4187
   64CHL1  H18A 7170   2.285   0.975   9.207 -1.1530  2.9667  0.4497
   64CHL1  H18B 7171   2.223   1.002   9.366 -2.4981 -2.6659  0.5470
   64CHL1  H18C 7172   2.391   0.950   9.360  0.9043  0.7338 -1.6552
   64CHL1   C12 7173   2.090   0.798   9.315 -0.3214  0.0264  0.2558
   64CHL1  H12A 7174   2.054   0.862   9.231  1.2757  0.8944  0.2117
   64CHL1  H12B 7175   2.043   0.699   9.296  2.2752 -1.7895  2.9201
   64CHL1   C11 7176   2.022   0.860   9.440 -0.1770  0.1080  0.2982
   64CHL1  H11A 7177   2.046   0.968   9.425  0.0250  0.2413  1.4909
   64CHL1  H11B 7178   1.912   0.844   9.434 -0.3618  1.5050 -0.3624
   64CHL1    C9 7179   2.075   0.820   9.577 -0.5884  0.0995 -0.4658
   64CHL1    H9 7180   2.039   0.716   9.595  0.9211  0.0009  2.2002
   64CHL1   C10 7181   2.030   0.902   9.695 -0.4270 -0.5741  0.1645
   64CHL1   C19 7182   2.051   1.055   9.659  0.1237  0.0650 -0.0810
   64CHL1  H19A 7183   2.157   1.065   9.626 -0.1756 -1.3260 -1.5347
   64CHL1  H19B 7184   1.975   1.084   9.583  0.8679  1.7678 -0.1864
   64CHL1  H19C 7185   2.036   1.119   9.748  0.6978 -1.0147  0.8066
   64CHL1    C1 7186   1.878   0.866   9.722 -0.4356  0.3201  0.6465
   64CHL1   H1A 7187   1.827   0.916   9.637  1.6713 -0.1236 -0.9296
   64CHL1   H1B 7188   1.860   0.757   9.724  0.5236  0.1735  1.9688
   64CHL1    C2 7189   1.822   0.929   9.852  0.0803  0.1842  0.1533
   64CHL1   H2A 7190   1.723   0.882   9.872  1.7069 -4.6615 -2.3579
   64CHL1   H2B 7191   1.819   1.040   9.847 -1.7423  0.0988 -1.1875
   64CHL1   C20 7192   2.351   0.758   9.070 -0.8020 -0.7642  0.4749
   64CHL1   H20 7193   2.426   0.839   9.080 -0.6253 -1.0903  1.8739
   64CHL1   C21 7194   2.220   0.808   9.002 -0.1321  0.7843 -0.0149
   64CHL1  H21A 7195   2.171   0.887   9.063  0.9330  0.4442  1.2877
   64CHL1  H21B 7196   2.148   0.726   8.982 -0.6156  1.5336 -1.4226
   64CHL1  H21C 7197   2.236   0.866   8.908  0.7834 -0.1836 -0.4697
   64CHL1   C22 7198   2.400   0.643   8.977  0.1919 -0.3220 -0.5300
   64CHL1  H22A 7199   2.473   0.576   9.027  0.9383  0.1983 -0.9113
   64CHL1  H22B 7200   2.311   0.579   8.957 -0.0305  0.2733 -1.4694
   64CHL1   C23 7201   2.462   0.682   8.843  0.5149 -0.5623 -0.0653
   64CHL1  H23A 7202   2.397   0.749   8.784  1.6726 -1.4571 -2.4634
   64CHL1  H23B 7203   2.547   0.748   8.872  0.0890 -1.2567  2.9458
   64CHL1   C24 7204   2.504   0.560   8.761 -0.4641 -0.4621  0.4003
   64CHL1  H24A 7205   2.542   0.482   8.830 -0.2058 -1.4264 -0.8068
   64CHL1  H24B 7206   2.405   0.523   8.727 -0.3142 -0.7161  0.2419
   64CHL1   C25 7207   2.604   0.574   8.646  0.2471 -0.4567 -0.3154
   64CHL1   H25 7208   2.652   0.474   8.638  1.4303  0.1227 -0.6074
   64CHL1   C26 7209   2.537   0.604   8.504  0.2441  0.1539  0.1571
   64CHL1  H26A 7210   2.506   0.710   8.506 -1.2445 -0.2239 -1.9264
   64CHL1  H26B 7211   2.582   0.567   8.410  0.0448  1.8554 -0.6144
   64CHL1  H26C 7212   2.437   0.556   8.507  0.8215 -1.2980 -2.4115
   64CHL1   C27 7213   2.716   0.683   8.676  0.4303  0.5548  0.4586
   64CHL1  H27A 7214   2.760   0.651   8.773  0.1654 -1.0699  0.0582
   64CHL1  H27B 7215   2.791   0.668   8.595 -2.0100 -2.3998 -1.3912
   64CHL1  H27C 7216   2.672   0.784   8.688 -1.5644 -0.3123  0.6166
   65CHL1    C3 7217   3.960   5.348  10.220  0.0505  0.1657 -0.4551
   65CHL1    H3 7218   3.989   5.455  10.227 -2.5627  0.9179 -0.8476
   65CHL1    O3 7219   3.966   5.271  10.340  0.3043 -0.3589  0.4782
   65CHL1   H3' 7220   3.883   5.266  10.387 -0.8203 -2.5357 -1.6199
   65CHL1    C4 7221   3.818   5.348  10.165  0.3715  0.4498  0.6107
   65CHL1   H4A 7222   3.794   5.240  10.164 -1.0678  0.7295 -2.3351
   65CHL1   H4B 7223   3.752   5.406  10.233  1.2928  2.6261 -0.2849
   65CHL1    C5 7224   3.800   5.399  10.023 -0.4724 -0.2186  0.4707
   65CHL1    C6 7225   3.708   5.487   9.979 -1.3297 -0.1022  0.1364
   65CHL1    H6 7226   3.631   5.525  10.046  1.0716  1.6660  1.9675
   65CHL1    C7 7227   3.676   5.522   9.835  0.4424 -0.9258 -0.0862
   65CHL1   H7A 7228   3.566   5.507   9.833  0.2192  0.6910 -0.0613
   65CHL1   H7B 7229   3.699   5.625   9.801 -2.6589 -0.5145 -1.1049
   65CHL1    C8 7230   3.743   5.426   9.732  0.1957  0.5064  0.4509
   65CHL1    H8 7231   3.697   5.324   9.724  0.6317  0.4431 -1.6419
   65CHL1   C14 7232   3.752   5.493   9.594 -0.1497 -0.1580  0.0196
   65CHL1   H14 7233   3.812   5.584   9.614  0.2572  0.0030 -1.8525
   65CHL1   C15 7234   3.627   5.561   9.536  0.1447 -0.3766 -1.1033
   65CHL1  H15A 7235   3.547   5.484   9.528  0.8817 -1.3955  1.0178
   65CHL1  H15B 7236   3.586   5.651   9.586  0.8836  0.4616 -1.9899
   65CHL1   C16 7237   3.667   5.577   9.389 -0.1877  0.3107 -0.6063
   65CHL1  H16A 7238   3.595   5.521   9.325 -0.6037  0.1483  0.0045
   65CHL1  H16B 7239   3.659   5.684   9.358  0.0990  0.4361 -0.2521
   65CHL1   C17 7240   3.809   5.515   9.367  0.0240  0.4193  0.0754
   65CHL1   H17 7241   3.884   5.595   9.382  0.3627  0.2738 -0.8462
   65CHL1   C13 7242   3.820   5.414   9.484  0.2728  0.3368  0.8243
   65CHL1   C18 7243   3.740   5.290   9.453  0.5752 -0.2147  0.4212
   65CHL1  H18A 7244   3.788   5.230   9.373 -2.4415 -0.3663 -1.3739
   65CHL1  H18B 7245   3.735   5.218   9.537 -1.0656  0.9378  1.3527
   65CHL1  H18C 7246   3.636   5.319   9.426  1.1613  0.9673 -0.6131
   65CHL1   C12 7247   3.961   5.379   9.536 -0.2270 -0.3514 -0.0663
   65CHL1  H12A 7248   4.002   5.303   9.466  2.7171  0.9158  0.2080
   65CHL1  H12B 7249   4.019   5.473   9.547  0.6142 -0.7742 -0.8177
   65CHL1   C11 7250   3.959   5.315   9.680 -0.3421 -0.5126  0.1834
   65CHL1  H11A 7251   3.928   5.208   9.672 -1.5525 -0.0830 -0.9862
   65CHL1  H11B 7252   4.065   5.332   9.707 -0.1945  0.8989 -1.2071
   65CHL1    C9 7253   3.884   5.398   9.780 -0.7180  0.4637 -1.1041
   65CHL1    H9 7254   3.928   5.498   9.798  1.0618 -0.4026 -0.4419
   65CHL1   C10 7255   3.896   5.335   9.923 -0.0455 -0.7175  0.7242
   65CHL1   C19 7256   3.864   5.183   9.915  0.9058  0.5473 -0.4523
   65CHL1  H19A 7257   3.941   5.120   9.867 -0.3132 -1.7570  0.5481
   65CHL1  H19B 7258   3.847   5.130  10.011 -0.2637 -1.7218 -1.8774
   65CHL1  H19C 7259   3.773   5.169   9.852  1.2126  0.2487 -0.8248
   65CHL1    C1 7260   4.039   5.344   9.982  0.4617 -0.1976 -0.7884
   65CHL1   H1A 7261   4.104   5.288   9.911 -2.2384 -0.7965 -2.8882
   65CHL1   H1B 7262   4.067   5.452   9.982 -1.0986  0.3373  3.9434
   65CHL1    C2 7263   4.057   5.287  10.117 -0.1664 -0.0379 -0.0150
   65CHL1   H2A 7264   4.160   5.312  10.152 -0.5552 -1.2973  2.1632
   65CHL1   H2B 7265   4.042   5.177  10.114  1.0453 -0.2106 -0.0169
   65CHL1   C20 7266   3.842   5.462   9.224  0.5168  0.0601  0.0024
   65CHL1   H20 7267   3.776   5.379   9.191 -0.6650  0.7187  0.6723
   65CHL1   C21 7268   3.978   5.391   9.214  0.0690 -0.2289  0.5481
   65CHL1  H21A 7269   3.977   5.298   9.275  1.0672 -0.4004  0.3111
   65CHL1  H21B 7270   4.059   5.454   9.257  0.0886  0.1263 -0.0030
   65CHL1  H21C 7271   3.979   5.363   9.107 -0.9629  1.0412  0.1914
   65CHL1   C22 7272   3.820   5.578   9.123  0.4595  0.1409 -0.4325
   65CHL1  H22A 7273   3.718   5.621   9.135  0.7636  0.7943 -0.1641
   65CHL1  H22B 7274   3.894   5.658   9.146 -0.6622  1.0326  0.1495
   65CHL1   C23 7275   3.828   5.540   8.974 -0.2042 -0.6905  0.7367
   65CHL1  H23A 7276   3.927   5.491   8.961 -0.4276 -0.6514 -1.3776
   65CHL1  H23B 7277   3.743   5.471   8.957  1.6594 -2.9301  0.3168
   65CHL1   C24 7278   3.820   5.670   8.892  0.3320 -0.2704  0.0529
   65CHL1  H24A 7279   3.744   5.741   8.929 -0.2893  0.2781 -2.1800
   65CHL1  H24B 7280   3.919   5.721   8.887  0.6551 -1.0165 -1.8003
   65CHL1   C25 7281   3.790   5.645   8.742 -0.0414 -0.6918  0.3458
   65CHL1   H25 7282   3.817   5.738   8.688 -0.8756 -0.1443  0.8689
   65CHL1   C26 7283   3.891   5.542   8.679  0.6760  0.4363 -0.0662
   65CHL1  H26A 7284   3.864   5.507   8.578  2.9914 -1.0421 -0.2186
   65CHL1  H26B 7285   3.991   5.592   8.679  0.6647  0.4870  1.5500
   65CHL1  H26C 7286   3.903   5.447   8.734 -0.6798 -0.0161 -0.5525
   65CHL1   C27 7287   3.647   5.600   8.721 -0.5063  0.7779 -0.4652
   65CHL1  H27A 7288   3.572   5.681   8.709 -1.5450  0.1655  1.5865
   65CHL1  H27B 7289   3.652   5.557   8.619  2.7263  0.3523 -0.1805
   65CHL1  H27C 7290   3.613   5.510   8.777  0.5271 -1.8883 -3.9832
   66CHL1    C3 7291   1.609   2.874  10.582  0.1354  0.0522 -0.5305
   66CHL1    H3 7292   1.605   2.764  10.566  0.0269  0.1860 -1.4547
   66CHL1    O3 7293   1.606   2.900  10.723  0.1841 -0.3102 -0.1085
   66CHL1   H3' 7294   1.557   2.983  10.724 -0.2866 -0.5880  0.8920
   66CHL1    C4 7295   1.733   2.938  10.517 -0.7677 -0.0830 -0.4860
   66CHL1   H4A 7296   1.738   3.037  10.567 -2.1074 -0.2313 -0.0441
   66CHL1   H4B 7297   1.820   2.881  10.558 -0.9937 -0.5266 -0.6189
   66CHL1    C5 7298   1.739   2.940  10.365  0.2607 -0.3667 -0.3083
   66CHL1    C6 7299   1.848   2.896  10.299 -0.3942  0.0158 -0.0548
   66CHL1    H6 7300   1.941   2.869  10.351 -1.4406 -1.1112  1.2380
   66CHL1    C7 7301   1.874   2.901  10.149  0.0044  0.5284  0.1393
   66CHL1   H7A 7302   1.969   2.939  10.106  0.1625 -1.6560 -1.5728
   66CHL1   H7B 7303   1.874   2.792  10.125  1.1310  0.2066  1.5974
   66CHL1    C8 7304   1.743   2.955  10.071  0.2259  0.4452 -0.8417
   66CHL1    H8 7305   1.744   3.065  10.060 -1.0901  0.6203  0.5154
   66CHL1   C14 7306   1.744   2.918   9.923  0.3908 -0.5599 -0.7340
   66CHL1   H14 7307   1.715   2.811   9.923  0.7661 -0.6836 -2.9765
   66CHL1   C15 7308   1.871   2.944   9.846 -0.3372  0.3863  0.0268
   66CHL1  H15A 7309   1.903   3.045   9.879  0.4527 -0.2604  1.3389
   66CHL1  H15B 7310   1.944   2.866   9.877 -0.1863  0.0569 -1.1431
   66CHL1   C16 7311   1.816   2.935   9.701  0.2584 -0.3696 -0.5797
   66CHL1  H16A 7312   1.845   3.033   9.659  0.2451 -0.0511  0.1426
   66CHL1  H16B 7313   1.853   2.854   9.634 -0.4850  0.9404 -2.6107
   66CHL1   C17 7314   1.661   2.929   9.703 -0.8675  0.6976 -0.1945
   66CHL1   H17 7315   1.636   2.822   9.720  1.1819  0.1741 -0.4313
   66CHL1   C13 7316   1.632   2.985   9.845  0.1045  0.6418  0.0569
   66CHL1   C18 7317   1.639   3.136   9.839 -0.6482  0.2007  0.5438
   66CHL1  H18A 7318   1.636   3.187   9.937  0.8103 -2.3503  1.9884
   66CHL1  H18B 7319   1.732   3.171   9.790 -0.6912  1.6321  1.4636
   66CHL1  H18C 7320   1.560   3.184   9.778  0.4382  1.0922 -0.1890
   66CHL1   C12 7321   1.497   2.942   9.911  0.5423  0.5673 -0.6382
   66CHL1  H12A 7322   1.418   2.978   9.841  1.5028 -0.5047 -2.3023
   66CHL1  H12B 7323   1.485   2.831   9.906 -0.1022  0.5692  0.6912
   66CHL1   C11 7324   1.485   2.981  10.059  0.8172  0.6060  0.2959
   66CHL1  H11A 7325   1.473   3.090  10.078 -0.5521  0.6603 -0.8587
   66CHL1  H11B 7326   1.397   2.926  10.097  0.0755  1.7530  0.2413
   66CHL1    C9 7327   1.608   2.929  10.144 -0.0263  0.0269  0.7536
   66CHL1    H9 7328   1.586   2.821  10.158  1.5010 -0.4977 -0.6492
   66CHL1   C10 7329   1.604   2.979  10.290  0.0102  0.5237  0.1991
   66CHL1   C19 7330   1.603   3.132  10.303 -0.0352 -0.7214  0.1330
   66CHL1  H19A 7331   1.599   3.162  10.409 -3.9175  1.8923 -0.6534
   66CHL1  H19B 7332   1.694   3.163  10.246 -0.2857 -0.1373  0.0491
   66CHL1  H19C 7333   1.521   3.182  10.248 -0.4242 -0.3754  1.0264
   66CHL1    C1 7334   1.488   2.916  10.361 -0.1694 -0.0368  0.0651
   66CHL1   H1A 7335   1.392   2.956  10.322 -0.2974 -0.0288  0.3817
   66CHL1   H1B 7336   1.483   2.808  10.335  1.8097 -0.3655  0.9521
   66CHL1    C2 7337   1.482   2.939  10.516 -0.2277  0.1252  0.0627
   66CHL1   H2A 7338   1.404   2.876  10.564  1.2671 -1.0155  1.0647
   66CHL1   H2B 7339   1.472   3.046  10.542  0.4346  0.4717 -1.0690
   66CHL1   C20 7340   1.589   2.990   9.581  0.1365  0.6327 -0.1556
   66CHL1   H20 7341   1.577   3.100   9.580 -1.2280  0.5167  0.9210
   66CHL1   C21 7342   1.443   2.933   9.563  0.5810  0.6897 -0.1441
   66CHL1  H21A 7343   1.391   2.923   9.660 -0.7086 -0.1636 -0.9119
   66CHL1  H21B 7344   1.433   2.836   9.510 -0.6326 -0.3704  1.9749
   66CHL1  H21C 7345   1.383   3.012   9.513 -0.6341  0.9545  1.6866
   66CHL1   C22 7346   1.665   2.942   9.452 -0.7833 -0.1164  0.3260
   66CHL1  H22A 7347   1.766   2.985   9.437 -0.8238 -0.3291 -0.6106
   66CHL1  H22B 7348   1.668   2.831   9.458 -1.2468 -0.1180  0.5435
   66CHL1   C23 7349   1.601   2.975   9.321  0.2303  0.3322 -0.1117
   66CHL1  H23A 7350   1.501   2.929   9.307 -1.1354  3.1192  0.0177
   66CHL1  H23B 7351   1.580   3.084   9.318  0.2439  0.3485  0.3279
   66CHL1   C24 7352   1.682   2.939   9.194 -0.8001  0.4626 -0.2036
   66CHL1  H24A 7353   1.775   3.001   9.201 -0.4612 -0.1958  1.2703
   66CHL1  H24B 7354   1.721   2.835   9.198  0.3757  0.8746 -0.6969
   66CHL1   C25 7355   1.609   2.960   9.059 -0.3731 -0.1704  0.7505
   66CHL1   H25 7356   1.581   3.067   9.047  0.7754 -0.1920 -2.9041
   66CHL1   C26 7357   1.691   2.913   8.944  0.4036 -0.4782 -0.3050
   66CHL1  H26A 7358   1.800   2.913   8.968  0.2549  0.3357  0.3866
   66CHL1  H26B 7359   1.662   2.807   8.926 -2.4067  0.2233 -0.1042
   66CHL1  H26C 7360   1.676   2.966   8.849  2.1483 -0.6123 -0.6787
   66CHL1   C27 7361   1.479   2.884   9.058  0.1415 -0.6553  0.4825
   66CHL1  H27A 7362   1.493   2.790   9.115  1.6560  0.3635  1.8169
   66CHL1  H27B 7363   1.391   2.939   9.098  2.4581  2.5320  1.4498
   66CHL1  H27C 7364   1.450   2.861   8.953 -1.5687 -0.1204  0.8144
   67CHL1    C3 7365   5.933   3.606  10.376  0.5965  0.4803 -0.3398
   67CHL1    H3 7366   5.873   3.522  10.337  2.0424 -0.0409 -1.4743
   67CHL1    O3 7367   5.930   3.609  10.522  0.0853  0.2396 -0.3457
   67CHL1   H3' 7368   6.019   3.637  10.543  0.6835 -0.7250 -1.5134
   67CHL1    C4 7369   6.076   3.604  10.321 -0.7397 -0.0724  0.2147
   67CHL1   H4A 7370   6.129   3.690  10.367  0.5472 -1.5011  1.4563
   67CHL1   H4B 7371   6.124   3.515  10.368  0.8208  0.6880  0.1003
   67CHL1    C5 7372   6.096   3.607  10.172  0.2234  0.2018  0.2200
   67CHL1    C6 7373   6.150   3.503  10.107 -0.2748 -0.0201 -0.2142
   67CHL1    H6 7374   6.194   3.416  10.159 -0.3601 -1.3481 -2.3062
   67CHL1    C7 7375   6.153   3.497   9.959 -0.1231 -0.3297  0.0379
   67CHL1   H7A 7376   6.257   3.473   9.927 -0.9058 -2.6697 -0.8586
   67CHL1   H7B 7377   6.081   3.423   9.919  1.0496 -1.3238 -0.2605
   67CHL1    C8 7378   6.123   3.630   9.885 -0.2174  0.0303  0.3516
   67CHL1    H8 7379   6.208   3.699   9.902 -1.3541  1.3735  0.7530
   67CHL1   C14 7380   6.090   3.614   9.734  0.4960 -0.8178 -0.4200
   67CHL1   H14 7381   6.004   3.543   9.727  1.2392 -1.7664 -0.0232
   67CHL1   C15 7382   6.200   3.533   9.654  0.7057 -0.5360  0.0326
   67CHL1  H15A 7383   6.297   3.582   9.681  0.4026 -0.4205  0.9299
   67CHL1  H15B 7384   6.191   3.426   9.682  0.0082  0.1267  2.4309
   67CHL1   C16 7385   6.172   3.569   9.513  0.3788 -0.4522  0.1185
   67CHL1  H16A 7386   6.265   3.617   9.473 -0.1592 -0.8855 -1.7025
   67CHL1  H16B 7387   6.153   3.482   9.447  1.9205 -0.9358  0.2857
   67CHL1   C17 7388   6.063   3.682   9.511  0.6529 -0.4443  0.3195
   67CHL1   H17 7389   5.972   3.622   9.493  1.0452 -0.6999 -0.8798
   67CHL1   C13 7390   6.051   3.741   9.655  0.4772  0.5090  0.7611
   67CHL1   C18 7391   6.161   3.840   9.677 -0.7896 -0.0663  0.0772
   67CHL1  H18A 7392   6.183   3.861   9.784 -0.8825 -1.2174  0.3288
   67CHL1  H18B 7393   6.253   3.814   9.619  0.8082  3.2415  1.0083
   67CHL1  H18C 7394   6.120   3.935   9.635 -2.0310 -1.2416 -1.4351
   67CHL1   C12 7395   5.920   3.788   9.713 -0.4650  0.2683  0.1233
   67CHL1  H12A 7396   5.874   3.877   9.663  0.1499  0.5235  0.0108
   67CHL1  H12B 7397   5.843   3.709   9.700 -0.2699  0.0787  0.1135
   67CHL1   C11 7398   5.939   3.811   9.865  0.6869  0.3466 -0.4433
   67CHL1  H11A 7399   6.013   3.892   9.883  0.8806  0.2061 -0.6059
   67CHL1  H11B 7400   5.843   3.843   9.912 -0.0609 -1.5882 -0.5903
   67CHL1    C9 7401   5.991   3.693   9.953 -0.5471  0.0254  0.4530
   67CHL1    H9 7402   5.914   3.613   9.953 -2.4291  1.7833  0.3730
   67CHL1   C10 7403   6.021   3.719  10.098 -0.7583 -0.0370 -0.1965
   67CHL1   C19 7404   6.097   3.850  10.118 -0.1413  0.2193  0.1734
   67CHL1  H19A 7405   6.109   3.884  10.223  2.1247 -0.0305  0.0101
   67CHL1  H19B 7406   6.197   3.850  10.069  0.3238  0.1683  1.1227
   67CHL1  H19C 7407   6.043   3.938  10.076 -1.2690 -0.7290 -0.4152
   67CHL1    C1 7408   5.883   3.744  10.168 -0.1721  0.3763  0.9123
   67CHL1   H1A 7409   5.831   3.835  10.130 -0.3674  0.0887  0.4774
   67CHL1   H1B 7410   5.820   3.661  10.131  1.0981 -1.0040  1.7902
   67CHL1    C2 7411   5.868   3.734  10.321  0.0993 -1.1449  0.2822
   67CHL1   H2A 7412   5.760   3.739  10.346  0.0311  2.6553 -0.5329
   67CHL1   H2B 7413   5.929   3.816  10.365  2.1636 -1.2878 -2.2307
   67CHL1   C20 7414   6.072   3.774   9.386  0.0178  0.0086 -0.7832
   67CHL1   H20 7415   6.168   3.828   9.396  1.3779 -2.1656 -1.7276
   67CHL1   C21 7416   5.957   3.876   9.372  0.1714 -0.0756  0.0083
   67CHL1  H21A 7417   5.969   3.953   9.293  1.6414  0.1604  0.4590
   67CHL1  H21B 7418   5.946   3.920   9.473 -1.3609  0.0506 -0.1966
   67CHL1  H21C 7419   5.858   3.829   9.352 -0.5538  1.6418 -0.5176
   67CHL1   C22 7420   6.086   3.705   9.253  0.1566  0.5564 -0.7025
   67CHL1  H22A 7421   6.131   3.604   9.264 -0.7594  0.3089  1.0035
   67CHL1  H22B 7422   5.977   3.696   9.231 -0.0923  3.2412 -0.7607
   67CHL1   C23 7423   6.161   3.790   9.155 -0.0899  0.1706 -0.7763
   67CHL1  H23A 7424   6.134   3.897   9.145 -0.9725 -0.0789 -1.0968
   67CHL1  H23B 7425   6.269   3.794   9.178  0.1682  2.6426 -2.2702
   67CHL1   C24 7426   6.165   3.739   9.013 -0.2067  0.9406 -0.1265
   67CHL1  H24A 7427   6.238   3.808   8.966  0.1289  1.0495  0.5486
   67CHL1  H24B 7428   6.216   3.640   9.020 -0.0815  0.9969 -0.2381
   67CHL1   C25 7429   6.032   3.733   8.937 -0.7471  0.3694 -0.1812
   67CHL1   H25 7430   5.959   3.681   9.003 -0.6369 -2.8699 -2.5050
   67CHL1   C26 7431   5.981   3.868   8.894  1.1241 -0.0824  0.5878
   67CHL1  H26A 7432   6.059   3.922   8.836  1.5846 -1.6246 -0.2557
   67CHL1  H26B 7433   5.892   3.865   8.827  0.1111  0.0996  1.9014
   67CHL1  H26C 7434   5.965   3.936   8.980  1.3754  0.1101  0.4826
   67CHL1   C27 7435   6.054   3.643   8.816  0.0245  0.7311  0.2435
   67CHL1  H27A 7436   6.135   3.689   8.756 -0.6880  0.7274 -0.7372
   67CHL1  H27B 7437   6.079   3.537   8.839  0.4143  0.1492 -2.6352
   67CHL1  H27C 7438   5.961   3.640   8.756  0.3975 -0.4984 -0.2909
   68CHL1    C3 7439   4.443   4.676  10.272  0.4417  0.4687  0.3986
   68CHL1    H3 7440   4.517   4.756  10.292  1.9852 -0.6738 -0.6650
   68CHL1    O3 7441   4.415   4.599  10.395  0.1066 -0.1020 -0.6326
   68CHL1   H3' 7442   4.349   4.534  10.369  0.2802 -0.4405 -0.2295
   68CHL1    C4 7443   4.306   4.738  10.231  0.1666 -0.0987  0.0620
   68CHL1   H4A 7444   4.244   4.646  10.234 -2.0512  1.1660 -3.5477
   68CHL1   H4B 7445   4.268   4.815  10.302  0.1256 -0.2375  0.1894
   68CHL1    C5 7446   4.311   4.796  10.092  0.4927  0.3431  0.7029
   68CHL1    C6 7447   4.282   4.925  10.071 -0.0774 -0.0630  1.2063
   68CHL1    H6 7448   4.259   4.994  10.153  1.0880  1.1288  0.5567
   68CHL1    C7 7449   4.269   4.999   9.940  0.3073  0.0810  0.7161
   68CHL1   H7A 7450   4.169   5.047   9.937 -0.9305 -2.5754 -2.5232
   68CHL1   H7B 7451   4.358   5.066   9.942  1.8219 -1.8736  1.1887
   68CHL1    C8 7452   4.280   4.907   9.817  0.4836 -0.4662  0.5768
   68CHL1    H8 7453   4.182   4.854   9.808  1.4885 -2.0932 -1.3897
   68CHL1   C14 7454   4.311   4.985   9.691  0.5628  0.1851 -0.3675
   68CHL1   H14 7455   4.405   5.040   9.712  1.5666 -1.3657 -0.7707
   68CHL1   C15 7456   4.211   5.097   9.646 -0.5166 -0.7960 -0.3672
   68CHL1  H15A 7457   4.106   5.067   9.666 -1.0853  2.1139  1.3832
   68CHL1  H15B 7458   4.234   5.185   9.711 -2.5183 -0.3093 -0.2904
   68CHL1   C16 7459   4.240   5.116   9.502  0.0821 -0.2886  0.3767
   68CHL1  H16A 7460   4.140   5.100   9.457 -0.6539  1.2594  1.4255
   68CHL1  H16B 7461   4.275   5.219   9.483  1.2671 -0.8680 -0.6543
   68CHL1   C17 7462   4.339   5.004   9.456  0.3764 -0.0787  0.3659
   68CHL1   H17 7463   4.440   5.048   9.472 -0.5878  1.5300  2.1061
   68CHL1   C13 7464   4.321   4.892   9.566  0.4144  0.1681  0.9054
   68CHL1   C18 7465   4.181   4.821   9.544 -0.5251  0.2347  0.1153
   68CHL1  H18A 7466   4.102   4.898   9.536 -0.3237  0.3899 -0.4288
   68CHL1  H18B 7467   4.178   4.770   9.445  2.0794  1.0835 -0.4686
   68CHL1  H18C 7468   4.164   4.754   9.631 -2.5114 -0.1493 -0.5613
   68CHL1   C12 7469   4.441   4.792   9.590 -0.1955  0.4765  0.4207
   68CHL1  H12A 7470   4.439   4.720   9.506  0.3663  0.5219  0.3670
   68CHL1  H12B 7471   4.532   4.855   9.587 -0.5703  0.9942 -4.2644
   68CHL1   C11 7472   4.441   4.715   9.721  0.7989  0.2627  0.8704
   68CHL1  H11A 7473   4.374   4.627   9.707  1.1375  0.4048 -1.8180
   68CHL1  H11B 7474   4.535   4.658   9.740  0.6241  0.5263  2.6362
   68CHL1    C9 7475   4.387   4.794   9.845  0.4164 -0.2772 -0.7416
   68CHL1    H9 7476   4.479   4.855   9.861  1.1402 -0.7448 -2.8979
   68CHL1   C10 7477   4.362   4.714   9.977  0.0053 -0.1249  0.2017
   68CHL1   C19 7478   4.263   4.594   9.946  0.3546  0.3600  0.1260
   68CHL1  H19A 7479   4.296   4.535   9.858  0.2106  0.8665 -0.2707
   68CHL1  H19B 7480   4.267   4.521  10.030  2.2588  2.4548  1.9153
   68CHL1  H19C 7481   4.158   4.627   9.927  0.8405  1.9983  0.2050
   68CHL1    C1 7482   4.486   4.646  10.022 -0.5743 -0.3331 -0.1164
   68CHL1   H1A 7483   4.534   4.570   9.957  0.7320  0.4428 -0.0816
   68CHL1   H1B 7484   4.561   4.729  10.022 -0.2520 -0.6081 -1.8074
   68CHL1    C2 7485   4.496   4.584  10.170  0.2724 -0.3935 -0.8885
   68CHL1   H2A 7486   4.599   4.548  10.192  0.2094 -0.9348 -1.4714
   68CHL1   H2B 7487   4.429   4.496  10.167 -1.1389  0.5969  0.4168
   68CHL1   C20 7488   4.318   4.971   9.305  0.0283 -0.4010 -0.2610
   68CHL1   H20 7489   4.233   4.906   9.276 -0.9855  0.9774 -0.3816
   68CHL1   C21 7490   4.445   4.903   9.248  0.2389  0.4615  0.4388
   68CHL1  H21A 7491   4.462   4.800   9.288  0.7622 -0.0442 -1.0081
   68CHL1  H21B 7492   4.526   4.974   9.273 -0.4108  0.9824  1.0563
   68CHL1  H21C 7493   4.453   4.888   9.138  1.7569 -2.2213  0.8527
   68CHL1   C22 7494   4.288   5.101   9.220  0.1755 -0.5572 -0.6317
   68CHL1  H22A 7495   4.182   5.122   9.244  0.8358  2.5689 -0.2789
   68CHL1  H22B 7496   4.354   5.187   9.244  0.1116 -0.0713 -2.1437
   68CHL1   C23 7497   4.284   5.084   9.065  0.2163  0.4102 -0.0600
   68CHL1  H23A 7498   4.389   5.061   9.035 -0.0958  0.0433 -0.8859
   68CHL1  H23B 7499   4.224   4.994   9.039  1.8955 -0.7524 -0.0413
   68CHL1   C24 7500   4.222   5.206   8.989  0.0109 -0.3974  0.0405
   68CHL1  H24A 7501   4.122   5.223   9.034 -1.0053 -2.6533 -1.2791
   68CHL1  H24B 7502   4.278   5.301   9.009  2.0873 -1.7079  0.6607
   68CHL1   C25 7503   4.199   5.184   8.838  0.8725 -0.0184  0.4428
   68CHL1   H25 7504   4.140   5.093   8.814  0.9556 -0.1345  0.6798
   68CHL1   C26 7505   4.129   5.300   8.783 -0.5212  1.0598 -0.1484
   68CHL1  H26A 7506   4.030   5.299   8.834  0.0541  0.5699  0.9898
   68CHL1  H26B 7507   4.189   5.392   8.800  2.3497 -0.2284 -2.8523
   68CHL1  H26C 7508   4.132   5.308   8.673 -0.3590  3.3567 -0.0050
   68CHL1   C27 7509   4.330   5.162   8.758  0.4487  0.0068  0.3054
   68CHL1  H27A 7510   4.379   5.258   8.729 -3.3269  1.8249 -0.3074
   68CHL1  H27B 7511   4.410   5.108   8.814  0.5094  0.5495  0.7506
   68CHL1  H27C 7512   4.308   5.104   8.667 -0.4761  0.3241  0.3193
   69CHL1    C3 7513   3.026   3.115   7.047  0.5545 -0.2526  0.2273
   69CHL1    H3 7514   2.923   3.075   7.036  0.4872  0.3542 -1.5111
   69CHL1    O3 7515   3.053   3.161   6.914  0.2503 -0.1272  0.3822
   69CHL1   H3' 7516   3.108   3.091   6.876  1.6068  0.9573  0.2938
   69CHL1    C4 7517   3.038   3.234   7.143  0.8948  0.2998  0.5099
   69CHL1   H4A 7518   3.135   3.284   7.122  0.7313 -0.3086 -1.8137
   69CHL1   H4B 7519   2.961   3.308   7.114  0.5099 -0.2353  0.1673
   69CHL1    C5 7520   3.027   3.203   7.290 -0.2858 -0.2562  0.3899
   69CHL1    C6 7521   2.944   3.269   7.370 -0.1853  0.0143  0.2935
   69CHL1    H6 7522   2.880   3.352   7.334  0.1856  0.9294  1.7258
   69CHL1    C7 7523   2.928   3.238   7.514 -0.7245  0.5505 -0.2697
   69CHL1   H7A 7524   2.924   3.329   7.579  1.7681  0.9028 -0.5505
   69CHL1   H7B 7525   2.836   3.176   7.522  0.1267 -0.8094 -1.0113
   69CHL1    C8 7526   3.042   3.153   7.572 -0.2303  0.1091 -0.4753
   69CHL1    H8 7527   3.129   3.222   7.574  0.0442 -0.2666  1.9078
   69CHL1   C14 7528   3.013   3.100   7.708 -0.3984  0.4620  0.1853
   69CHL1   H14 7529   2.926   3.033   7.689 -0.1224  0.0639  0.3324
   69CHL1   C15 7530   2.964   3.199   7.821  1.0246 -0.3482  0.4075
   69CHL1  H15A 7531   3.029   3.289   7.824  0.2885  0.3011 -1.9335
   69CHL1  H15B 7532   2.861   3.236   7.801  1.0597 -0.4663  0.0114
   69CHL1   C16 7533   2.987   3.120   7.949 -0.4583  0.3929  0.6333
   69CHL1  H16A 7534   3.046   3.177   8.024 -2.2158  1.6234  1.1230
   69CHL1  H16B 7535   2.891   3.105   8.003 -2.3510  0.7935 -2.5000
   69CHL1   C17 7536   3.061   2.986   7.918  0.2298 -0.0671 -0.4016
   69CHL1   H17 7537   2.985   2.908   7.897  1.4318 -1.9162  1.9005
   69CHL1   C13 7538   3.123   3.011   7.776  0.4139  0.0428  0.4947
   69CHL1   C18 7539   3.252   3.087   7.798  0.1645  0.3093  0.0264
   69CHL1  H18A 7540   3.297   3.113   7.700 -0.2507 -0.8788 -0.4951
   69CHL1  H18B 7541   3.241   3.183   7.852  0.9080  1.1315 -1.2649
   69CHL1  H18C 7542   3.323   3.020   7.852  0.1230  0.7935  0.6903
   69CHL1   C12 7543   3.135   2.891   7.685  0.7683  0.3939  0.6663
   69CHL1  H12A 7544   3.209   2.818   7.725 -0.0495 -1.5048 -1.1780
   69CHL1  H12B 7545   3.037   2.838   7.691  0.1718  1.2160 -1.4445
   69CHL1   C11 7546   3.171   2.931   7.537 -0.1656  0.0160 -0.2169
   69CHL1  H11A 7547   3.275   2.970   7.533 -0.7635  2.0572  2.2242
   69CHL1  H11B 7548   3.156   2.839   7.477 -1.3924 -1.5252  2.3710
   69CHL1    C9 7549   3.082   3.040   7.478  0.5844 -0.0206  0.3231
   69CHL1    H9 7550   2.983   2.993   7.462  0.3182  0.3113  0.9558
   69CHL1   C10 7551   3.122   3.086   7.338  0.0977  0.3678 -0.1136
   69CHL1   C19 7552   3.266   3.147   7.338  0.4028 -0.0091 -0.6213
   69CHL1  H19A 7553   3.274   3.226   7.415 -1.3522  1.6242 -2.0556
   69CHL1  H19B 7554   3.343   3.070   7.360  0.9344  0.2455 -1.5507
   69CHL1  H19C 7555   3.296   3.188   7.239  0.7475  0.3432 -0.3688
   69CHL1    C1 7556   3.113   2.974   7.234 -0.2554 -0.8929  0.1213
   69CHL1   H1A 7557   3.187   2.894   7.255  0.1794 -0.5052  0.0946
   69CHL1   H1B 7558   3.010   2.933   7.230  0.3373 -2.2116 -2.9426
   69CHL1    C2 7559   3.133   3.012   7.085 -0.1463 -0.1529  0.0224
   69CHL1   H2A 7560   3.127   2.920   7.024  2.8199 -0.2018 -0.2986
   69CHL1   H2B 7561   3.238   3.045   7.070 -0.2670  0.6030  0.7686
   69CHL1   C20 7562   3.142   2.929   8.033 -0.0221 -0.4779 -0.2924
   69CHL1   H20 7563   3.233   2.993   8.045  0.3485 -0.8797 -0.9286
   69CHL1   C21 7564   3.195   2.797   7.990  0.5731  0.0651 -1.0065
   69CHL1  H21A 7565   3.242   2.730   8.065 -1.3379  0.2668  0.4202
   69CHL1  H21B 7566   3.266   2.828   7.911  1.4377 -1.2035 -0.7403
   69CHL1  H21C 7567   3.106   2.748   7.945  1.2601 -0.8335 -1.3911
   69CHL1   C22 7568   3.068   2.926   8.162  0.0218  0.4554  0.2783
   69CHL1  H22A 7569   3.069   3.034   8.191 -1.2980  0.5640 -0.0425
   69CHL1  H22B 7570   2.963   2.898   8.139  0.6372 -2.0024  0.3985
   69CHL1   C23 7571   3.119   2.842   8.286 -0.7269 -0.2781 -0.1919
   69CHL1  H23A 7572   3.060   2.858   8.379 -0.9404 -0.9178 -0.2124
   69CHL1  H23B 7573   3.113   2.734   8.260 -0.3736 -0.2723 -0.2905
   69CHL1   C24 7574   3.267   2.872   8.317  0.1484 -0.7994  0.5082
   69CHL1  H24A 7575   3.335   2.867   8.229 -1.2177  1.3026 -0.7473
   69CHL1  H24B 7576   3.267   2.983   8.327  0.8514 -0.7179 -0.3527
   69CHL1   C25 7577   3.321   2.815   8.447 -0.5806 -0.1409 -0.0394
   69CHL1   H25 7578   3.243   2.822   8.526 -1.7794 -1.7156 -1.0430
   69CHL1   C26 7579   3.366   2.675   8.430  0.2223 -0.8297  0.2487
   69CHL1  H26A 7580   3.438   2.652   8.349  0.0535 -1.5862  0.3157
   69CHL1  H26B 7581   3.435   2.648   8.513  0.5081 -0.1166  0.2493
   69CHL1  H26C 7582   3.282   2.603   8.431 -1.6121  1.2437 -0.5925
   69CHL1   C27 7583   3.448   2.891   8.498 -0.4652 -0.2106 -0.6389
   69CHL1  H27A 7584   3.479   2.841   8.592  0.2835  2.5752  0.6636
   69CHL1  H27B 7585   3.527   2.879   8.421 -0.5361  2.3334 -1.1794
   69CHL1  H27C 7586   3.418   2.994   8.527 -0.6242 -0.5546  0.4321
   70CHL1    C3 7587   2.299   6.378   7.005  0.1616  0.2782 -0.2672
   70CHL1    H3 7588   2.265   6.273   6.994  0.0529  0.2630  0.2111
   70CHL1    O3 7589   2.316   6.431   6.879 -0.1051 -0.4547  0.0942
   70CHL1   H3' 7590   2.333   6.521   6.907  2.5036  0.7512 -4.8773
   70CHL1    C4 7591   2.182   6.458   7.070  0.4117 -0.1049  0.0488
   70CHL1   H4A 7592   2.206   6.566   7.067  0.6532 -0.1102  1.1976
   70CHL1   H4B 7593   2.087   6.446   7.014 -1.3454 -1.0846  3.1125
   70CHL1    C5 7594   2.151   6.404   7.210 -0.7268 -0.0656 -0.5655
   70CHL1    C6 7595   2.031   6.355   7.245  0.0488 -0.1253 -0.1652
   70CHL1    H6 7596   1.950   6.352   7.172 -0.2215  1.6565  0.0479
   70CHL1    C7 7597   2.008   6.284   7.382  0.2784 -0.3411  0.2188
   70CHL1   H7A 7598   1.901   6.302   7.405  0.2366 -1.3080  0.8010
   70CHL1   H7B 7599   2.021   6.174   7.375 -1.0816 -0.4908 -0.2066
   70CHL1    C8 7600   2.100   6.333   7.489  0.1127  0.2819  0.6407
   70CHL1    H8 7601   2.086   6.442   7.507  1.6260  0.5641  0.2329
   70CHL1   C14 7602   2.069   6.271   7.623  0.1027  0.2537  0.1853
   70CHL1   H14 7603   2.073   6.162   7.603  0.9051  0.8597 -3.2465
   70CHL1   C15 7604   1.926   6.293   7.668 -0.3045  0.1915 -0.1500
   70CHL1  H15A 7605   1.898   6.398   7.650  1.2670  0.7765  0.7092
   70CHL1  H15B 7606   1.847   6.230   7.621 -0.4734 -1.4191  2.1709
   70CHL1   C16 7607   1.935   6.251   7.817  0.0849  0.5559 -0.7586
   70CHL1  H16A 7608   1.892   6.334   7.878  1.3777 -0.2645  1.2959
   70CHL1  H16B 7609   1.873   6.161   7.835  1.7310 -0.3141  0.7265
   70CHL1   C17 7610   2.085   6.227   7.858 -0.2111 -0.7174 -0.2963
   70CHL1   H17 7611   2.107   6.119   7.844  1.5941 -0.3964 -0.1022
   70CHL1   C13 7612   2.161   6.305   7.743  0.0243  0.9643  0.1060
   70CHL1   C18 7613   2.162   6.459   7.772 -0.0010 -0.6690 -1.0661
   70CHL1  H18A 7614   2.199   6.533   7.698 -0.9903  1.3224  0.3978
   70CHL1  H18B 7615   2.060   6.500   7.784  0.7696  1.6036 -2.0300
   70CHL1  H18C 7616   2.213   6.486   7.867 -1.0358  0.0301 -0.7048
   70CHL1   C12 7617   2.302   6.265   7.693 -0.8037  0.0047 -0.3480
   70CHL1  H12A 7618   2.372   6.308   7.768 -0.0029 -0.5488 -0.7718
   70CHL1  H12B 7619   2.318   6.155   7.697  0.8579  0.2059 -0.9547
   70CHL1   C11 7620   2.346   6.332   7.556 -0.1754 -0.4766  0.3484
   70CHL1  H11A 7621   2.359   6.437   7.589 -1.8700 -0.2704  0.3991
   70CHL1  H11B 7622   2.439   6.279   7.524 -0.5597 -0.8039 -0.2292
   70CHL1    C9 7623   2.241   6.311   7.443 -0.7955 -0.2520  0.2517
   70CHL1    H9 7624   2.249   6.204   7.414  1.7128 -0.0061 -0.0301
   70CHL1   C10 7625   2.269   6.396   7.306 -0.5896  0.2335  0.3574
   70CHL1   C19 7626   2.316   6.541   7.351  0.1201 -0.5106  0.0537
   70CHL1  H19A 7627   2.415   6.532   7.400  0.1456  1.4088  0.4029
   70CHL1  H19B 7628   2.321   6.617   7.269  1.3383 -0.0308  0.5641
   70CHL1  H19C 7629   2.246   6.572   7.431 -1.8980 -0.8518 -1.5258
   70CHL1    C1 7630   2.393   6.334   7.226 -0.2165 -0.1628 -0.1940
   70CHL1   H1A 7631   2.490   6.331   7.281  0.0339 -2.5297 -0.6850
   70CHL1   H1B 7632   2.372   6.225   7.213  0.7724 -0.3744 -0.0801
   70CHL1    C2 7633   2.418   6.391   7.096 -0.5411  0.3446  0.6448
   70CHL1   H2A 7634   2.502   6.337   7.047 -1.7727 -2.5807  1.6387
   70CHL1   H2B 7635   2.455   6.496   7.097  1.4870 -0.2343 -3.5501
   70CHL1   C20 7636   2.111   6.265   8.005  0.6457  0.0355 -0.0573
   70CHL1   H20 7637   2.080   6.366   8.039 -1.8296 -0.3855 -0.9546
   70CHL1   C21 7638   2.260   6.256   8.042 -0.4049 -0.0909 -0.6554
   70CHL1  H21A 7639   2.269   6.294   8.146  1.9366 -1.2117 -0.4082
   70CHL1  H21B 7640   2.322   6.312   7.969  0.1410  2.2658  1.5642
   70CHL1  H21C 7641   2.283   6.148   8.057  1.0828  0.6500  2.8447
   70CHL1   C22 7642   2.040   6.156   8.092  0.4418 -0.3904 -0.8391
   70CHL1  H22A 7643   1.934   6.182   8.070  0.5725 -0.7960 -2.0023
   70CHL1  H22B 7644   2.073   6.060   8.047  1.1493 -0.1321 -0.8698
   70CHL1   C23 7645   2.073   6.153   8.239 -0.4402 -0.3070  0.0638
   70CHL1  H23A 7646   2.162   6.091   8.262  0.3809  1.8037  2.9422
   70CHL1  H23B 7647   2.091   6.257   8.274  2.8753 -1.1924  1.2093
   70CHL1   C24 7648   1.965   6.117   8.345 -0.1353  0.7863 -0.1452
   70CHL1  H24A 7649   1.864   6.139   8.305 -0.8679 -1.1739  0.5735
   70CHL1  H24B 7650   1.969   6.006   8.355  0.9816  1.0090  2.5579
   70CHL1   C25 7651   1.981   6.192   8.475 -0.6201  0.0815  0.0658
   70CHL1   H25 7652   1.974   6.303   8.464  0.1826  0.4892  3.1337
   70CHL1   C26 7653   1.869   6.159   8.571 -0.1427  0.2022 -0.6678
   70CHL1  H26A 7654   1.886   6.210   8.669  0.6462  0.6134 -1.0134
   70CHL1  H26B 7655   1.771   6.193   8.531 -1.5610 -0.8613  1.7780
   70CHL1  H26C 7656   1.876   6.049   8.587 -1.2223  0.0735 -1.0783
   70CHL1   C27 7657   2.116   6.171   8.549 -0.0736 -0.6695 -0.1766
   70CHL1  H27A 7658   2.204   6.223   8.504  0.2149  0.3588  1.5667
   70CHL1  H27B 7659   2.120   6.209   8.653  1.3528  0.9828 -0.8039
   70CHL1  H27C 7660   2.134   6.064   8.573 -1.4515 -0.2215  3.0022
   71CHL1    C3 7661   1.868   1.688   6.791  0.2993  0.8626 -0.8491
   71CHL1    H3 7662   1.758   1.683   6.803  0.5481 -1.1417  0.8570
   71CHL1    O3 7663   1.900   1.696   6.650 -1.1203  0.3116  0.0787
   71CHL1   H3' 7664   1.991   1.667   6.636 -0.7244  0.5070  2.1105
   71CHL1    C4 7665   1.927   1.808   6.868  0.4750 -0.1043  0.5029
   71CHL1   H4A 7666   2.031   1.817   6.828  0.4515 -3.3392 -0.4353
   71CHL1   H4B 7667   1.878   1.904   6.842 -0.8512 -0.5904  1.1530
   71CHL1    C5 7668   1.931   1.797   7.021 -0.2926 -0.0713  1.2593
   71CHL1    C6 7669   1.880   1.899   7.102  0.0009  0.4580  0.1494
   71CHL1    H6 7670   1.826   1.987   7.063 -0.5150 -1.1477 -2.8480
   71CHL1    C7 7671   1.885   1.891   7.253  0.1136 -0.4991  0.6639
   71CHL1   H7A 7672   1.927   1.987   7.291 -0.3613  0.1660 -0.4569
   71CHL1   H7B 7673   1.785   1.879   7.300  0.2980 -1.1000  0.8966
   71CHL1    C8 7674   1.976   1.777   7.310  0.3659 -0.6379 -0.0118
   71CHL1    H8 7675   2.083   1.807   7.308 -0.1729  1.7832  3.1360
   71CHL1   C14 7676   1.937   1.738   7.453  0.0430 -0.0537  0.1365
   71CHL1   H14 7677   1.829   1.710   7.451 -0.0235  0.2162 -2.0522
   71CHL1   C15 7678   1.947   1.858   7.553 -0.0237  0.4005 -0.3778
   71CHL1  H15A 7679   2.024   1.936   7.537 -1.2883  1.8733  0.6146
   71CHL1  H15B 7680   1.853   1.915   7.562 -0.2897 -0.3509  2.1597
   71CHL1   C16 7681   1.970   1.801   7.686 -0.1160  0.4558  0.6861
   71CHL1  H16A 7682   2.063   1.839   7.733  0.1647 -0.6368  1.0376
   71CHL1  H16B 7683   1.880   1.827   7.746 -0.4785  0.5808  0.0893
   71CHL1   C17 7684   1.972   1.647   7.663  0.0895 -0.2553 -0.2369
   71CHL1   H17 7685   1.867   1.612   7.654 -0.4417  1.4908 -0.8353
   71CHL1   C13 7686   2.018   1.627   7.521  0.2624 -0.0451 -0.2329
   71CHL1   C18 7687   2.171   1.653   7.525  0.1280  0.1941  0.9218
   71CHL1  H18A 7688   2.216   1.659   7.424 -0.9394  0.6417  0.4729
   71CHL1  H18B 7689   2.206   1.742   7.582 -0.8398  0.8328  0.5299
   71CHL1  H18C 7690   2.210   1.559   7.570 -1.4998 -1.7222 -1.5736
   71CHL1   C12 7691   1.999   1.496   7.446 -0.1075  0.1311  0.4164
   71CHL1  H12A 7692   2.064   1.421   7.495  2.1884  2.9670  1.8446
   71CHL1  H12B 7693   1.893   1.463   7.445 -0.2981  0.7341 -1.0508
   71CHL1   C11 7694   2.027   1.524   7.292 -0.5060 -0.7187  0.4052
   71CHL1  H11A 7695   2.138   1.533   7.285 -0.4454 -1.7631 -0.0661
   71CHL1  H11B 7696   2.000   1.427   7.245  0.5786 -1.0001  0.3351
   71CHL1    C9 7697   1.952   1.649   7.225 -0.6554  0.5075  0.1373
   71CHL1    H9 7698   1.843   1.628   7.226 -0.5595 -0.0124 -0.2243
   71CHL1   C10 7699   1.990   1.665   7.071  0.0121  0.1943 -0.0863
   71CHL1   C19 7700   2.145   1.660   7.048 -0.8889 -0.3845  0.6090
   71CHL1  H19A 7701   2.177   1.677   6.943  2.2322 -0.0282  1.5688
   71CHL1  H19B 7702   2.196   1.725   7.123  1.3707 -1.6078  0.1763
   71CHL1  H19C 7703   2.193   1.563   7.073 -0.1183 -0.1589  0.0237
   71CHL1    C1 7704   1.929   1.545   6.997 -0.1727 -0.1925  0.3156
   71CHL1   H1A 7705   1.993   1.457   7.022 -1.3618 -1.0690  0.3492
   71CHL1   H1B 7706   1.823   1.537   7.026 -0.2134 -2.0442 -0.2543
   71CHL1    C2 7707   1.930   1.553   6.846  0.3268  0.2697  0.6830
   71CHL1   H2A 7708   1.868   1.473   6.801 -1.3966  0.7791  2.0981
   71CHL1   H2B 7709   2.038   1.556   6.821 -0.0853  0.9322 -1.1088
   71CHL1   C20 7710   2.029   1.573   7.783  0.2449  0.2978 -0.0014
   71CHL1   H20 7711   2.132   1.602   7.809  0.5189 -0.1006 -0.6158
   71CHL1   C21 7712   2.023   1.418   7.763  0.2700  0.0103  0.5067
   71CHL1  H21A 7713   2.068   1.364   7.849  2.4359 -0.0965 -0.6702
   71CHL1  H21B 7714   2.097   1.384   7.687 -1.0699 -1.9875  0.0464
   71CHL1  H21C 7715   1.919   1.381   7.750  0.4559 -0.3225 -0.0200
   71CHL1   C22 7716   1.954   1.598   7.914 -0.0309  0.0368  1.2814
   71CHL1  H22A 7717   1.978   1.704   7.939 -1.7790  1.0107 -0.9451
   71CHL1  H22B 7718   1.846   1.586   7.889  0.4778 -0.7406 -0.5921
   71CHL1   C23 7719   1.970   1.510   8.030 -0.6177 -0.4026 -0.0105
   71CHL1  H23A 7720   1.939   1.408   8.001 -0.8789 -0.1024 -0.8138
   71CHL1  H23B 7721   2.071   1.503   8.076 -0.0838  2.2780 -0.6614
   71CHL1   C24 7722   1.878   1.552   8.146  0.0508  0.0908  0.2702
   71CHL1  H24A 7723   1.900   1.648   8.197 -0.5035  0.2424  0.2308
   71CHL1  H24B 7724   1.773   1.565   8.112 -0.4847 -0.9368  1.4643
   71CHL1   C25 7725   1.901   1.449   8.267 -0.0506 -0.6670 -0.2851
   71CHL1   H25 7726   1.823   1.472   8.343  1.4664  0.3773  0.9998
   71CHL1   C26 7727   1.880   1.296   8.227 -0.3069  0.7723  0.2310
   71CHL1  H26A 7728   1.781   1.278   8.182  0.6598 -0.4518 -1.4578
   71CHL1  H26B 7729   1.950   1.260   8.148  0.9521  1.7843  0.8718
   71CHL1  H26C 7730   1.883   1.225   8.312 -1.0511  0.1671 -0.2480
   71CHL1   C27 7731   2.037   1.472   8.328 -0.0336 -0.2740  0.2085
   71CHL1  H27A 7732   2.046   1.431   8.431 -0.1639  0.9688  0.7293
   71CHL1  H27B 7733   2.121   1.424   8.272 -1.3095 -1.5099 -0.6846
   71CHL1  H27C 7734   2.065   1.579   8.336 -0.6400 -0.1978  1.3924
   72CHL1    C3 7735   2.425   0.207   7.091  0.6805  0.0895 -0.0478
   72CHL1    H3 7736   2.323   0.251   7.101 -0.0443 -1.8337  1.3767
   72CHL1    O3 7737   2.439   0.152   6.961 -0.5150  0.3049  0.1819
   72CHL1   H3' 7738   2.367   0.190   6.910 -0.5319 -0.7661 -0.6157
   72CHL1    C4 7739   2.526   0.325   7.115  0.5753  0.2747 -0.8320
   72CHL1   H4A 7740   2.627   0.291   7.086  0.1996  0.2755 -2.1809
   72CHL1   H4B 7741   2.497   0.407   7.045  1.8937  0.6384 -0.9635
   72CHL1    C5 7742   2.526   0.369   7.258 -0.0840 -0.1561 -0.2752
   72CHL1    C6 7743   2.526   0.502   7.279 -0.7371  0.0775 -0.1335
   72CHL1    H6 7744   2.521   0.577   7.198 -2.9559  1.1972  0.9936
   72CHL1    C7 7745   2.549   0.558   7.418 -0.0513  0.0063  0.0906
   72CHL1   H7A 7746   2.615   0.647   7.431 -3.1048  1.9846  3.0177
   72CHL1   H7B 7747   2.454   0.601   7.455 -0.7910 -2.3224  0.9918
   72CHL1    C8 7748   2.586   0.443   7.524  0.0421  0.0044  0.0682
   72CHL1    H8 7749   2.696   0.427   7.514  0.0275 -1.7989  2.3156
   72CHL1   C14 7750   2.554   0.494   7.661  0.1677 -0.2761  0.0975
   72CHL1   H14 7751   2.443   0.494   7.665  0.1839  2.7124  2.6778
   72CHL1   C15 7752   2.599   0.637   7.699 -0.0290  0.0815  0.1620
   72CHL1  H15A 7753   2.707   0.661   7.685 -0.7088  1.6780 -2.5897
   72CHL1  H15B 7754   2.543   0.713   7.640  2.4833  0.8310 -1.3392
   72CHL1   C16 7755   2.578   0.647   7.851 -0.1156  0.3407  0.3598
   72CHL1  H16A 7756   2.644   0.723   7.898 -0.5416  0.2264  1.1558
   72CHL1  H16B 7757   2.475   0.685   7.871  0.3360  0.8927  1.6725
   72CHL1   C17 7758   2.577   0.495   7.892 -0.1538  0.3025  0.6851
   72CHL1   H17 7759   2.471   0.473   7.915  0.2174 -3.4060 -0.8924
   72CHL1   C13 7760   2.600   0.398   7.765  0.3152  0.3878  0.1979
   72CHL1   C18 7761   2.757   0.378   7.759  0.6520  0.7984  0.5166
   72CHL1  H18A 7762   2.806   0.477   7.761 -0.2259  1.3506 -2.7100
   72CHL1  H18B 7763   2.795   0.316   7.843 -1.6514 -2.2006 -0.5400
   72CHL1  H18C 7764   2.792   0.322   7.670 -1.3036  0.4013 -0.0360
   72CHL1   C12 7765   2.530   0.263   7.759  0.1181 -0.1140  0.1286
   72CHL1  H12A 7766   2.575   0.196   7.835  2.0216  0.5465 -0.3842
   72CHL1  H12B 7767   2.423   0.281   7.786  0.4720 -0.2424  1.6467
   72CHL1   C11 7768   2.538   0.204   7.618 -0.3414  0.2868  0.2049
   72CHL1  H11A 7769   2.641   0.165   7.605 -0.6794 -0.5889  0.0886
   72CHL1  H11B 7770   2.474   0.113   7.608 -2.8813  2.0444 -0.1195
   72CHL1    C9 7771   2.513   0.310   7.503 -0.1993 -0.3224  0.1629
   72CHL1    H9 7772   2.406   0.335   7.516 -0.6724 -1.9429 -0.5726
   72CHL1   C10 7773   2.533   0.258   7.359 -0.1631  0.6303  0.3223
   72CHL1   C19 7774   2.673   0.200   7.350 -0.3817 -0.7424  0.1497
   72CHL1  H19A 7775   2.745   0.272   7.393  1.5607 -2.0858 -0.7834
   72CHL1  H19B 7776   2.681   0.110   7.416  0.1381 -1.3428 -0.7227
   72CHL1  H19C 7777   2.713   0.173   7.250  1.0420 -0.5584  0.6642
   72CHL1    C1 7778   2.430   0.146   7.336 -0.0358 -0.0111  0.2459
   72CHL1   H1A 7779   2.462   0.062   7.402 -0.9066 -1.9421 -1.7310
   72CHL1   H1B 7780   2.336   0.192   7.373 -0.6587 -0.4823 -0.7352
   72CHL1    C2 7781   2.434   0.097   7.199 -0.5802  0.9166  1.0508
   72CHL1   H2A 7782   2.354   0.019   7.189  2.4438 -2.2828  0.7461
   72CHL1   H2B 7783   2.521   0.031   7.177 -1.3196  1.2783 -3.4064
   72CHL1   C20 7784   2.652   0.454   8.017 -0.2833  0.3019 -0.1137
   72CHL1   H20 7785   2.674   0.348   7.996 -0.0610  0.9801 -3.6065
   72CHL1   C21 7786   2.547   0.458   8.138  0.0948  0.5558 -0.6066
   72CHL1  H21A 7787   2.521   0.564   8.156  2.0377  0.8396  0.7158
   72CHL1  H21B 7788   2.583   0.410   8.232  1.3424  1.0504 -0.8221
   72CHL1  H21C 7789   2.456   0.403   8.108 -0.3142  2.3355 -2.7154
   72CHL1   C22 7790   2.781   0.534   8.044  0.3376 -1.0430 -0.1567
   72CHL1  H22A 7791   2.824   0.572   7.949  0.9852 -0.3866  0.3871
   72CHL1  H22B 7792   2.766   0.623   8.109 -4.0073 -0.9324 -1.1393
   72CHL1   C23 7793   2.899   0.458   8.105  0.6890  0.4778  0.3270
   72CHL1  H23A 7794   2.937   0.386   8.029  0.9611 -0.8705  1.7141
   72CHL1  H23B 7795   2.985   0.519   8.140  0.4212  1.5432 -0.8379
   72CHL1   C24 7796   2.865   0.374   8.231 -0.5386  0.3850 -0.1603
   72CHL1  H24A 7797   2.816   0.448   8.297  0.8752  1.0589  0.1677
   72CHL1  H24B 7798   2.787   0.303   8.197 -1.8928  2.3024 -1.1671
   72CHL1   C25 7799   2.982   0.299   8.298 -0.0834 -0.1603  0.2758
   72CHL1   H25 7800   3.061   0.375   8.317 -0.3799  0.4568 -0.8755
   72CHL1   C26 7801   2.960   0.251   8.438 -0.5036  0.3881  0.1210
   72CHL1  H26A 7802   2.860   0.204   8.439 -0.1826 -0.3016  0.3570
   72CHL1  H26B 7803   3.032   0.171   8.466 -2.4611 -0.6441  2.3263
   72CHL1  H26C 7804   2.969   0.325   8.521  1.2595  1.9343 -1.3745
   72CHL1   C27 7805   3.028   0.188   8.209  0.3083  0.0272  0.2252
   72CHL1  H27A 7806   3.051   0.222   8.106 -0.4852  1.0188  0.3589
   72CHL1  H27B 7807   3.113   0.133   8.255  0.1309 -0.1255  0.3686
   72CHL1  H27C 7808   2.937   0.126   8.215 -1.6724  2.5909 -2.0359
   73CHL1    C3 7809   1.763   3.071   6.987  0.4693  0.2851 -0.0035
   73CHL1    H3 7810   1.660   3.111   7.003  0.5186  1.3464 -2.0919
   73CHL1    O3 7811   1.803   3.075   6.852 -0.0475  0.1857  0.4826
   73CHL1   H3' 7812   1.873   3.010   6.858 -1.0281 -0.7831  1.6547
   73CHL1    C4 7813   1.869   3.151   7.074  1.2998  0.0255 -0.4611
   73CHL1   H4A 7814   1.974   3.128   7.046  0.7511 -0.8725 -1.8391
   73CHL1   H4B 7815   1.840   3.254   7.044 -2.5493 -1.3082 -1.7250
   73CHL1    C5 7816   1.839   3.111   7.221  0.1306 -0.5780 -0.9099
   73CHL1    C6 7817   1.802   3.201   7.320  0.2461 -0.7441  0.3623
   73CHL1    H6 7818   1.802   3.307   7.292  2.5612 -0.9708 -0.6940
   73CHL1    C7 7819   1.797   3.175   7.469 -0.4102  0.4027  0.5914
   73CHL1   H7A 7820   1.841   3.259   7.527 -0.4585  1.1666 -0.4476
   73CHL1   H7B 7821   1.698   3.163   7.517 -1.0472 -0.2112 -0.8463
   73CHL1    C8 7822   1.884   3.044   7.499 -1.2029  0.0392  0.0269
   73CHL1    H8 7823   1.991   3.063   7.479 -1.3975  1.4379  0.3007
   73CHL1   C14 7824   1.864   3.008   7.646  0.0809 -0.1068  0.8825
   73CHL1   H14 7825   1.756   2.981   7.652  0.3791 -1.3719  0.8393
   73CHL1   C15 7826   1.893   3.129   7.742 -0.3792  1.0644  0.2825
   73CHL1  H15A 7827   1.983   3.188   7.715  1.7800 -1.8923  0.7873
   73CHL1  H15B 7828   1.809   3.198   7.767  0.5519  2.6951 -0.9808
   73CHL1   C16 7829   1.918   3.053   7.881 -0.1718  0.5132 -0.1113
   73CHL1  H16A 7830   2.017   3.089   7.917  0.2028  0.2507 -0.8551
   73CHL1  H16B 7831   1.843   3.090   7.953  0.7716  3.4093 -0.5767
   73CHL1   C17 7832   1.905   2.900   7.850  0.5865  0.4336  0.1530
   73CHL1   H17 7833   1.798   2.875   7.865  1.4069 -2.3693  1.7286
   73CHL1   C13 7834   1.938   2.885   7.695  0.1968 -0.1593  0.2454
   73CHL1   C18 7835   2.088   2.912   7.665 -0.1546 -0.2459 -0.0965
   73CHL1  H18A 7836   2.142   2.821   7.697 -1.0444 -1.0912 -0.9635
   73CHL1  H18B 7837   2.111   2.927   7.557 -0.6442 -0.6156 -0.2514
   73CHL1  H18C 7838   2.124   3.007   7.710 -2.8099  0.0773  1.4545
   73CHL1   C12 7839   1.888   2.763   7.617 -0.4181  0.4835 -0.2708
   73CHL1  H12A 7840   1.957   2.677   7.636 -0.6609  0.7509  1.9994
   73CHL1  H12B 7841   1.781   2.742   7.640  0.2050 -0.7993  1.6217
   73CHL1   C11 7842   1.900   2.795   7.467  0.4083  0.0720 -0.3732
   73CHL1  H11A 7843   2.010   2.790   7.450  0.6281  1.6755  0.4409
   73CHL1  H11B 7844   1.858   2.711   7.409  1.5355  0.9894 -2.5564
   73CHL1    C9 7845   1.841   2.926   7.415  1.1679  0.7405 -0.0340
   73CHL1    H9 7846   1.732   2.906   7.429  1.1720 -0.4889 -1.5581
   73CHL1   C10 7847   1.855   2.956   7.266  0.5678 -0.2474 -0.0964
   73CHL1   C19 7848   1.996   2.912   7.228  0.2262 -0.8464 -0.1820
   73CHL1  H19A 7849   2.018   2.937   7.122 -0.1084 -0.1631 -0.0921
   73CHL1  H19B 7850   2.072   2.947   7.300 -2.1844  0.1917  1.9268
   73CHL1  H19C 7851   1.996   2.801   7.233  2.6076 -0.7266  5.2620
   73CHL1    C1 7852   1.746   2.893   7.173  0.1288 -0.7379 -0.3968
   73CHL1   H1A 7853   1.742   2.785   7.200  2.9006 -0.5607  0.8519
   73CHL1   H1B 7854   1.645   2.924   7.206  0.9361  0.2402  1.2380
   73CHL1    C2 7855   1.755   2.923   7.025 -0.1865  0.1549  0.0025
   73CHL1   H2A 7856   1.675   2.860   6.979 -1.0704  1.2025  0.1035
   73CHL1   H2B 7857   1.850   2.876   6.992 -1.2505 -2.6883  0.8492
   73CHL1   C20 7858   1.984   2.806   7.947  0.0264 -0.8546  0.0505
   73CHL1   H20 7859   2.092   2.821   7.924 -0.2015 -0.6010 -0.8550
   73CHL1   C21 7860   1.945   2.659   7.927  0.1703  0.3936  0.0169
   73CHL1  H21A 7861   1.981   2.624   7.828  1.2407 -1.7089  1.1131
   73CHL1  H21B 7862   1.835   2.643   7.930  0.1323 -0.2043 -2.9322
   73CHL1  H21C 7863   1.992   2.593   8.002  0.2045 -0.4651 -0.7519
   73CHL1   C22 7864   1.946   2.855   8.092  0.0725 -0.3230  0.7653
   73CHL1  H22A 7865   1.956   2.965   8.104 -0.4843 -0.4463  2.3889
   73CHL1  H22B 7866   1.838   2.840   8.111 -0.3176  1.6769  0.2176
   73CHL1   C23 7867   2.033   2.792   8.202  0.6209 -0.0487 -0.1771
   73CHL1  H23A 7868   2.012   2.683   8.210  2.6886 -0.5237 -0.8871
   73CHL1  H23B 7869   2.139   2.798   8.169  0.5683 -3.5838 -1.1834
   73CHL1   C24 7870   2.019   2.857   8.339  0.3957  0.2377  0.1097
   73CHL1  H24A 7871   2.049   2.964   8.335 -0.3755  0.4795  0.8537
   73CHL1  H24B 7872   1.911   2.867   8.360  0.3481 -1.0406  0.4643
   73CHL1   C25 7873   2.071   2.778   8.451  0.3220 -0.4738 -0.5385
   73CHL1   H25 7874   2.011   2.685   8.463 -1.3093  0.4097 -1.8078
   73CHL1   C26 7875   2.223   2.733   8.446  0.0008 -0.7070  0.0461
   73CHL1  H26A 7876   2.282   2.814   8.494  0.5622 -2.0813  1.7468
   73CHL1  H26B 7877   2.219   2.639   8.507 -0.8124  0.1763  1.3901
   73CHL1  H26C 7878   2.247   2.710   8.341  0.3779 -1.0038  0.1985
   73CHL1   C27 7879   2.067   2.848   8.591  0.9764 -0.0850  0.0477
   73CHL1  H27A 7880   2.129   2.941   8.590  0.5024  0.2485  1.3697
   73CHL1  H27B 7881   1.963   2.874   8.620  0.4850 -3.6141  1.7155
   73CHL1  H27C 7882   2.106   2.774   8.663 -0.3409 -0.9060 -0.0691
   74CHL1    C3 7883   1.385   1.417   6.926 -0.0970  0.1107  0.3863
   74CHL1    H3 7884   1.330   1.321   6.940 -0.1368  0.2595  1.2895
   74CHL1    O3 7885   1.386   1.447   6.786 -0.4208  0.0974  0.2277
   74CHL1   H3' 7886   1.427   1.368   6.751 -1.8661 -1.7760  2.6005
   74CHL1    C4 7887   1.327   1.538   6.999 -0.0223  0.0137  0.5964
   74CHL1   H4A 7888   1.398   1.622   6.982  0.9522 -0.9635 -0.2997
   74CHL1   H4B 7889   1.228   1.566   6.958  0.7626 -1.9076 -2.8071
   74CHL1    C5 7890   1.323   1.508   7.149 -0.2108  0.0476 -0.2086
   74CHL1    C6 7891   1.208   1.506   7.216 -0.0251 -0.4067  0.1113
   74CHL1    H6 7892   1.107   1.527   7.178 -0.7473 -0.2732  2.0039
   74CHL1    C7 7893   1.199   1.486   7.362 -0.2361 -0.3392 -0.0983
   74CHL1   H7A 7894   1.128   1.561   7.402 -0.4120 -1.9643  2.8042
   74CHL1   H7B 7895   1.141   1.396   7.394  2.7244 -0.8299  4.3322
   74CHL1    C8 7896   1.336   1.481   7.434  0.1415 -0.3842  0.1338
   74CHL1    H8 7897   1.361   1.589   7.436  0.0123 -0.3718  1.5953
   74CHL1   C14 7898   1.319   1.429   7.567 -0.0679 -0.0103 -0.1719
   74CHL1   H14 7899   1.272   1.328   7.562  0.9900 -0.5422  0.4530
   74CHL1   C15 7900   1.222   1.494   7.658 -0.1579 -0.2874 -0.3741
   74CHL1  H15A 7901   1.242   1.603   7.651 -0.0079 -0.3360 -0.7572
   74CHL1  H15B 7902   1.120   1.474   7.619 -1.0135  1.4528  0.9605
   74CHL1   C16 7903   1.248   1.424   7.791 -0.2349 -0.4934 -0.9369
   74CHL1  H16A 7904   1.261   1.505   7.866 -0.1075 -0.8995 -0.5205
   74CHL1  H16B 7905   1.173   1.352   7.828  0.4243 -0.6363  0.1395
   74CHL1   C17 7906   1.384   1.353   7.778  0.2593 -0.0591  0.0489
   74CHL1   H17 7907   1.349   1.250   7.757  0.7389  0.0146 -1.1406
   74CHL1   C13 7908   1.449   1.404   7.647 -0.1340  0.3527  0.0544
   74CHL1   C18 7909   1.510   1.542   7.679 -0.1665  0.1205 -0.1926
   74CHL1  H18A 7910   1.455   1.582   7.768 -0.1541 -0.7337  0.2061
   74CHL1  H18B 7911   1.612   1.520   7.717 -0.2091 -1.1388 -0.8209
   74CHL1  H18C 7912   1.519   1.612   7.593 -1.5977  0.3173 -0.2096
   74CHL1   C12 7913   1.546   1.311   7.568  0.1377 -0.0441  0.7176
   74CHL1  H12A 7914   1.643   1.319   7.621 -0.8748  3.6633  2.1513
   74CHL1  H12B 7915   1.513   1.205   7.561 -0.2992  0.1589 -0.2895
   74CHL1   C11 7916   1.569   1.371   7.428  0.3577  0.2221 -0.2383
   74CHL1  H11A 7917   1.625   1.467   7.430  1.5167 -0.4287 -0.5560
   74CHL1  H11B 7918   1.618   1.291   7.368  0.4329 -0.1760  0.3508
   74CHL1    C9 7919   1.436   1.399   7.352  0.3757  0.2471  0.2459
   74CHL1    H9 7920   1.389   1.301   7.332  2.4583 -0.6296 -0.5701
   74CHL1   C10 7921   1.463   1.463   7.209  0.4071 -0.3439 -0.3900
   74CHL1   C19 7922   1.544   1.594   7.210 -0.0730 -0.1786 -0.3430
   74CHL1  H19A 7923   1.489   1.668   7.271  3.0591  0.6544  1.6222
   74CHL1  H19B 7924   1.644   1.586   7.258  0.8324 -1.0801 -2.3311
   74CHL1  H19C 7925   1.563   1.638   7.109 -1.4490 -0.5063 -0.7507
   74CHL1    C1 7926   1.541   1.361   7.112  0.2173  0.3337 -0.1551
   74CHL1   H1A 7927   1.648   1.355   7.143 -0.1517 -0.8015  0.9548
   74CHL1   H1B 7928   1.495   1.262   7.130 -0.9247  0.9661  0.4754
   74CHL1    C2 7929   1.532   1.390   6.968 -0.2023 -0.5725 -0.4471
   74CHL1   H2A 7930   1.567   1.314   6.895  1.5894 -0.8380  0.6703
   74CHL1   H2B 7931   1.590   1.480   6.938 -1.5737 -0.3139 -2.4597
   74CHL1   C20 7932   1.461   1.340   7.912 -0.5443 -0.0514 -0.1099
   74CHL1   H20 7933   1.499   1.441   7.937 -2.1390  0.8006 -1.0122
   74CHL1   C21 7934   1.586   1.244   7.892  0.6167  0.0949 -0.3371
   74CHL1  H21A 7935   1.652   1.254   7.981  0.2274  1.6859 -0.2053
   74CHL1  H21B 7936   1.652   1.266   7.805 -0.7126  2.7493 -0.7287
   74CHL1  H21C 7937   1.552   1.138   7.887  1.1538 -0.1068  0.2521
   74CHL1   C22 7938   1.374   1.295   8.033 -0.1350  0.0683 -0.5467
   74CHL1  H22A 7939   1.287   1.363   8.046  0.5473  1.3743 -2.5278
   74CHL1  H22B 7940   1.332   1.194   8.016 -2.7580  1.3538 -1.8241
   74CHL1   C23 7941   1.451   1.277   8.172  0.0920  0.3010  0.7894
   74CHL1  H23A 7942   1.546   1.219   8.175  0.7069  1.1771 -1.1815
   74CHL1  H23B 7943   1.482   1.379   8.201 -0.0971  0.5833  0.0180
   74CHL1   C24 7944   1.350   1.234   8.276 -0.3671 -0.1533 -0.6630
   74CHL1  H24A 7945   1.253   1.284   8.254  0.2336  1.7356  0.8371
   74CHL1  H24B 7946   1.343   1.123   8.275  1.5686 -0.2951 -1.1745
   74CHL1   C25 7947   1.394   1.258   8.424 -0.1244  0.1999 -0.0915
   74CHL1   H25 7948   1.306   1.220   8.481  0.7768 -1.5666  0.1561
   74CHL1   C26 7949   1.527   1.189   8.462  0.4927  0.0933 -0.6802
   74CHL1  H26A 7950   1.502   1.082   8.477 -0.1481  0.0240 -2.1473
   74CHL1  H26B 7951   1.608   1.204   8.388  0.3341 -0.3887 -0.9588
   74CHL1  H26C 7952   1.558   1.230   8.560  1.0451  0.2845 -0.9375
   74CHL1   C27 7953   1.413   1.413   8.444  0.4966 -0.3505  0.0376
   74CHL1  H27A 7954   1.319   1.464   8.415  0.6400 -1.0142 -1.6522
   74CHL1  H27B 7955   1.418   1.448   8.550  1.0466  1.2607 -0.5008
   74CHL1  H27C 7956   1.500   1.466   8.400  0.4950 -0.6599 -0.3449
   75CHL1    C3 7957   4.017   3.426   6.758  0.8358 -0.7557 -0.6803
   75CHL1    H3 7958   4.030   3.534   6.779 -3.2685 -0.4240  0.7572
   75CHL1    O3 7959   3.998   3.401   6.621  0.8325  0.6223 -0.0372
   75CHL1   H3' 7960   3.993   3.306   6.609 -0.3685  0.8499 -1.4515
   75CHL1    C4 7961   4.138   3.347   6.807 -0.9512  0.2441 -0.0145
   75CHL1   H4A 7962   4.117   3.239   6.788  1.1231 -0.2449  0.3206
   75CHL1   H4B 7963   4.226   3.365   6.742 -0.6805 -1.6364 -0.1894
   75CHL1    C5 7964   4.165   3.351   6.959 -0.0396 -0.2097 -0.2755
   75CHL1    C6 7965   4.289   3.372   7.004 -0.0099 -0.9024 -0.2917
   75CHL1    H6 7966   4.373   3.378   6.933 -0.5873 -1.5102 -1.0364
   75CHL1    C7 7967   4.329   3.384   7.148  0.2962  0.3287 -0.6757
   75CHL1   H7A 7968   4.407   3.306   7.163 -1.0129 -1.1960 -1.5885
   75CHL1   H7B 7969   4.380   3.482   7.154 -0.5093  0.7469 -0.5836
   75CHL1    C8 7970   4.212   3.367   7.253 -0.4700  0.2021  0.8999
   75CHL1    H8 7971   4.198   3.258   7.267  1.4150 -0.0803  0.6356
   75CHL1   C14 7972   4.244   3.426   7.390  0.5160 -0.0347 -0.1515
   75CHL1   H14 7973   4.265   3.535   7.386  1.1023 -0.1698 -1.0919
   75CHL1   C15 7974   4.375   3.374   7.457  0.2424 -0.7235 -0.3408
   75CHL1  H15A 7975   4.385   3.264   7.446  3.4432 -0.5133 -0.0204
   75CHL1  H15B 7976   4.471   3.418   7.421  1.2935 -1.2014  1.8002
   75CHL1   C16 7977   4.351   3.416   7.604 -0.3822  0.1142 -0.6397
   75CHL1  H16A 7978   4.355   3.327   7.669 -1.8289  0.5208  0.0391
   75CHL1  H16B 7979   4.417   3.490   7.653  1.3460 -2.0256  0.3414
   75CHL1   C17 7980   4.209   3.478   7.613 -0.0547 -1.2188  0.1944
   75CHL1   H17 7981   4.225   3.583   7.581 -3.2084 -1.5690 -2.8025
   75CHL1   C13 7982   4.127   3.421   7.492 -0.8557 -0.3137  0.4283
   75CHL1   C18 7983   4.095   3.273   7.524  0.2034  0.2268  0.1465
   75CHL1  H18A 7984   4.026   3.254   7.609 -0.6256 -2.6754 -1.1394
   75CHL1  H18B 7985   4.056   3.219   7.436  0.0607  1.7844 -0.7648
   75CHL1  H18C 7986   4.187   3.224   7.562 -0.0176  1.1876  1.9804
   75CHL1   C12 7987   4.005   3.498   7.438 -0.3802 -0.4312 -0.3582
   75CHL1  H12A 7988   3.912   3.480   7.497  0.0238 -2.5748 -0.3636
   75CHL1  H12B 7989   4.025   3.606   7.419 -1.2906  0.1472  1.8095
   75CHL1   C11 7990   3.972   3.435   7.300  0.1553 -0.4142  0.5558
   75CHL1  H11A 7991   3.936   3.332   7.318  0.6423 -0.4946  1.0651
   75CHL1  H11B 7992   3.889   3.496   7.258 -2.3848 -3.2544  1.3384
   75CHL1    C9 7993   4.086   3.432   7.192  0.2541 -0.6461 -0.7899
   75CHL1    H9 7994   4.105   3.538   7.165  0.6832 -1.1154 -2.3338
   75CHL1   C10 7995   4.042   3.365   7.056  0.2634 -0.1419  0.1618
   75CHL1   C19 7996   3.993   3.216   7.082 -0.2591 -0.0128  0.0985
   75CHL1  H19A 7997   3.884   3.214   7.103 -0.5333  0.2499 -1.2070
   75CHL1  H19B 7998   4.026   3.153   6.997 -0.2263 -1.0937  0.9056
   75CHL1  H19C 7999   4.045   3.178   7.172  0.6582  0.8987 -0.0258
   75CHL1    C1 8000   3.923   3.450   6.997 -0.6465 -1.0055 -0.2668
   75CHL1   H1A 8001   3.833   3.428   7.058 -0.1207  0.5795  1.1006
   75CHL1   H1B 8002   3.945   3.559   7.002 -0.0610 -1.0672 -1.3758
   75CHL1    C2 8003   3.893   3.412   6.849  0.3430 -0.6289  0.4923
   75CHL1   H2A 8004   3.821   3.493   6.827  0.5639  0.0338  2.1375
   75CHL1   H2B 8005   3.850   3.310   6.840 -0.1070 -0.4835  0.9447
   75CHL1   C20 8006   4.135   3.482   7.753  0.5827  0.2735 -0.0946
   75CHL1   H20 8007   4.069   3.393   7.755  0.4935  0.3206 -0.8697
   75CHL1   C21 8008   4.046   3.610   7.757 -0.2133 -0.7384  0.2148
   75CHL1  H21A 8009   3.962   3.599   7.685 -1.1576  0.1776  1.1614
   75CHL1  H21B 8010   4.097   3.704   7.729 -0.2004 -0.5652  0.8094
   75CHL1  H21C 8011   4.009   3.627   7.861  0.8518 -0.3274  0.5324
   75CHL1   C22 8012   4.235   3.481   7.875  0.5054  0.2852 -0.9754
   75CHL1  H22A 8013   4.294   3.387   7.873 -4.0081 -2.9563  3.1390
   75CHL1  H22B 8014   4.293   3.575   7.883 -0.1384  0.5932  0.1977
   75CHL1   C23 8015   4.166   3.466   8.017 -0.1351 -0.1097  0.5045
   75CHL1  H23A 8016   4.247   3.436   8.087  1.1899  0.6299 -0.6929
   75CHL1  H23B 8017   4.134   3.566   8.053  0.2980  0.1485  0.1868
   75CHL1   C24 8018   4.058   3.360   8.029 -0.1523  0.7380 -0.1572
   75CHL1  H24A 8019   3.970   3.369   7.962  0.7124  1.2505 -1.2197
   75CHL1  H24B 8020   4.109   3.267   7.996  2.0182  1.4361  1.1095
   75CHL1   C25 8021   4.012   3.347   8.178 -0.4914 -0.0489  0.1569
   75CHL1   H25 8022   4.101   3.354   8.244  0.7175 -0.5144 -1.3994
   75CHL1   C26 8023   3.913   3.458   8.206 -0.3778 -0.3482 -0.0490
   75CHL1  H26A 8024   3.820   3.457   8.145 -0.2426  0.1068 -0.2615
   75CHL1  H26B 8025   3.884   3.452   8.313 -0.4939 -1.6982 -0.1370
   75CHL1  H26C 8026   3.954   3.558   8.183 -2.5779  0.7801  0.7786
   75CHL1   C27 8027   3.944   3.211   8.196 -0.5816 -0.4627  0.0319
   75CHL1  H27A 8028   4.016   3.143   8.147  0.8168  1.1727 -0.1918
   75CHL1  H27B 8029   3.933   3.179   8.302 -0.1012 -0.6679  0.0204
   75CHL1  H27C 8030   3.843   3.210   8.149 -1.4320  1.4310  1.7246
   76CHL1    C3 8031   1.320   5.038   7.301  0.2087 -0.7640  0.1000
   76CHL1    H3 8032   1.244   5.113   7.330  0.3300 -1.6241  2.8507
   76CHL1    O3 8033   1.350   5.056   7.166  0.1861  0.3985 -0.4993
   76CHL1   H3' 8034   1.410   4.982   7.154 -0.4585 -0.7264  2.7153
   76CHL1    C4 8035   1.454   5.047   7.382 -0.2716 -0.2498 -0.1815
   76CHL1   H4A 8036   1.512   4.958   7.351 -0.7837 -0.3289 -0.9272
   76CHL1   H4B 8037   1.509   5.141   7.361  0.4415 -0.9916 -1.7044
   76CHL1    C5 8038   1.438   5.029   7.534 -0.3645 -0.0193  0.7035
   76CHL1    C6 8039   1.473   5.119   7.623  0.8813 -0.0476  0.0457
   76CHL1    H6 8040   1.527   5.209   7.588  0.7806 -0.1887 -0.4773
   76CHL1    C7 8041   1.472   5.097   7.771 -0.2767  0.2238 -0.0482
   76CHL1   H7A 8042   1.571   5.125   7.814 -0.5342 -1.7302  1.9091
   76CHL1   H7B 8043   1.400   5.164   7.824 -0.8274 -1.2732  1.1142
   76CHL1    C8 8044   1.442   4.946   7.812  0.4663 -0.1061 -0.7126
   76CHL1    H8 8045   1.535   4.888   7.794  0.8432  0.8342 -1.8132
   76CHL1   C14 8046   1.387   4.943   7.955 -0.6759 -0.2168  0.5310
   76CHL1   H14 8047   1.289   4.994   7.945 -0.7545 -0.8108 -2.0979
   76CHL1   C15 8048   1.460   5.017   8.072  0.3009  0.2373  0.7960
   76CHL1  H15A 8049   1.570   5.003   8.057 -0.0278 -0.7378 -0.8237
   76CHL1  H15B 8050   1.442   5.126   8.077  0.2986  0.2495  0.5545
   76CHL1   C16 8051   1.426   4.943   8.202  0.0285 -0.5786  0.4650
   76CHL1  H16A 8052   1.516   4.897   8.248  1.8144 -0.1033 -2.3657
   76CHL1  H16B 8053   1.402   5.015   8.283  1.0447 -0.7938  0.9712
   76CHL1   C17 8054   1.312   4.854   8.152 -0.2495  0.1155  0.0007
   76CHL1   H17 8055   1.227   4.924   8.139 -0.9914 -0.4258  1.7428
   76CHL1   C13 8056   1.350   4.804   8.011  0.2972  0.7136 -0.7245
   76CHL1   C18 8057   1.472   4.712   8.009 -0.5264 -0.2266 -0.3384
   76CHL1  H18A 8058   1.447   4.613   8.053  1.0804  0.0332  1.1977
   76CHL1  H18B 8059   1.507   4.707   7.904 -1.6928  0.2210 -0.7674
   76CHL1  H18C 8060   1.558   4.745   8.070 -1.4295  0.6975  0.4668
   76CHL1   C12 8061   1.241   4.747   7.923  0.7364 -0.2769  0.0129
   76CHL1  H12A 8062   1.210   4.643   7.950  2.2824 -1.4888 -2.7337
   76CHL1  H12B 8063   1.145   4.800   7.938  0.8548  0.1388 -0.7319
   76CHL1   C11 8064   1.274   4.748   7.772 -0.1878 -0.0297  0.8007
   76CHL1  H11A 8065   1.349   4.670   7.745 -0.6596 -0.6044  1.1389
   76CHL1  H11B 8066   1.187   4.716   7.711  0.3865 -0.1873  0.0519
   76CHL1    C9 8067   1.331   4.886   7.722 -0.5637 -0.1074 -0.2982
   76CHL1    H9 8068   1.248   4.959   7.735 -0.4475 -0.3641  1.9721
   76CHL1   C10 8069   1.372   4.893   7.572 -0.4689 -0.2010  0.3280
   76CHL1   C19 8070   1.468   4.774   7.540 -0.4239 -0.1514  0.5683
   76CHL1  H19A 8071   1.423   4.676   7.564  2.8902 -1.1545  2.9961
   76CHL1  H19B 8072   1.511   4.777   7.437 -1.8561 -0.5648 -0.0503
   76CHL1  H19C 8073   1.555   4.773   7.609  0.5443  0.0216 -0.6210
   76CHL1    C1 8074   1.242   4.878   7.490 -0.0606  0.2560  0.0232
   76CHL1   H1A 8075   1.200   4.776   7.507 -0.5874  0.4012 -0.4085
   76CHL1   H1B 8076   1.169   4.954   7.525 -1.0804 -0.8655  0.3641
   76CHL1    C2 8077   1.262   4.901   7.333 -0.8616 -0.5059 -0.4464
   76CHL1   H2A 8078   1.163   4.909   7.283 -0.4059  0.8238 -1.1640
   76CHL1   H2B 8079   1.319   4.814   7.293  0.8881  1.5195 -2.4574
   76CHL1   C20 8080   1.278   4.753   8.265  0.1118 -0.6168 -0.3090
   76CHL1   H20 8081   1.213   4.674   8.222 -0.4108 -1.0244  1.1655
   76CHL1   C21 8082   1.190   4.836   8.361 -0.2828 -0.1560  0.2713
   76CHL1  H21A 8083   1.150   4.779   8.447 -0.5015  1.3894  1.2016
   76CHL1  H21B 8084   1.097   4.873   8.313  0.9052  0.9202 -1.2828
   76CHL1  H21C 8085   1.237   4.931   8.394  1.0026 -0.3381 -0.9531
   76CHL1   C22 8086   1.389   4.680   8.342  0.3140 -0.7942 -0.1249
   76CHL1  H22A 8087   1.474   4.653   8.276  1.9910 -0.8807  2.0374
   76CHL1  H22B 8088   1.416   4.745   8.428 -0.0712  1.0680 -1.3746
   76CHL1   C23 8089   1.348   4.539   8.385 -0.1068 -0.4349  0.4517
   76CHL1  H23A 8090   1.262   4.545   8.454 -0.0653 -2.6297  0.7184
   76CHL1  H23B 8091   1.327   4.469   8.301  2.8358 -1.5406  0.5480
   76CHL1   C24 8092   1.468   4.478   8.466  0.1437  0.5595  0.6642
   76CHL1  H24A 8093   1.567   4.495   8.419 -0.4682 -0.7292 -1.1886
   76CHL1  H24B 8094   1.473   4.518   8.569 -1.5645 -0.2556  1.0951
   76CHL1   C25 8095   1.472   4.324   8.475 -0.1030 -0.1873  0.2599
   76CHL1   H25 8096   1.459   4.289   8.370  0.8860 -2.0237  0.7254
   76CHL1   C26 8097   1.608   4.267   8.530 -0.0829 -0.0302  0.2174
   76CHL1  H26A 8098   1.613   4.161   8.499  2.6587  0.6785 -2.0053
   76CHL1  H26B 8099   1.696   4.317   8.483  0.1677 -0.5612  0.1189
   76CHL1  H26C 8100   1.617   4.282   8.640  1.9572  1.0875 -0.0797
   76CHL1   C27 8101   1.351   4.265   8.543  0.0893  0.0864 -0.1554
   76CHL1  H27A 8102   1.356   4.155   8.528 -0.0583  0.1238 -0.4914
   76CHL1  H27B 8103   1.360   4.304   8.646  2.2393 -0.0106 -0.2667
   76CHL1  H27C 8104   1.252   4.302   8.509 -0.6344  1.4420  3.2766
   77CHL1    C3 8105   1.976   3.711   6.982  0.5638  0.3402  0.1954
   77CHL1    H3 8106   1.935   3.806   7.021  2.3285  0.5757  1.5261
   77CHL1    O3 8107   1.958   3.710   6.837  0.5262  0.3211 -0.5061
   77CHL1   H3' 8108   1.995   3.625   6.815  0.6463  0.9603 -2.9262
   77CHL1    C4 8109   2.125   3.706   7.020  0.4617  0.2090  0.3469
   77CHL1   H4A 8110   2.178   3.617   6.979  1.2952  0.5276  0.7283
   77CHL1   H4B 8111   2.190   3.792   6.993 -1.4302  1.8666  1.0002
   77CHL1    C5 8112   2.142   3.697   7.170  0.2538 -0.6516  0.9305
   77CHL1    C6 8113   2.215   3.790   7.239  0.2035 -0.1178  0.4454
   77CHL1    H6 8114   2.271   3.872   7.193 -0.9605  1.1071  1.2038
   77CHL1    C7 8115   2.223   3.795   7.396 -0.6554 -0.0345 -0.4276
   77CHL1   H7A 8116   2.328   3.820   7.423 -0.4433 -2.7276  1.4403
   77CHL1   H7B 8117   2.149   3.866   7.439 -0.7934  0.5899 -1.6507
   77CHL1    C8 8118   2.185   3.654   7.465 -0.5007  0.2735  0.8180
   77CHL1    H8 8119   2.279   3.596   7.450 -0.3520  1.0753 -1.4874
   77CHL1   C14 8120   2.158   3.675   7.614  0.5903  0.2971  0.5389
   77CHL1   H14 8121   2.076   3.749   7.624 -0.8188 -1.5770  3.8145
   77CHL1   C15 8122   2.273   3.739   7.691 -0.1379  0.1783 -0.3097
   77CHL1  H15A 8123   2.369   3.688   7.667 -0.2760  0.5770 -1.7663
   77CHL1  H15B 8124   2.285   3.848   7.673 -3.3363  1.0478  2.2794
   77CHL1   C16 8125   2.236   3.694   7.838  0.7823  0.2958 -0.0089
   77CHL1  H16A 8126   2.320   3.636   7.882  1.1615 -0.2676 -1.4431
   77CHL1  H16B 8127   2.225   3.787   7.898  0.8813  2.0742 -2.6481
   77CHL1   C17 8128   2.107   3.606   7.827 -0.6986 -0.1710  0.2916
   77CHL1   H17 8129   2.027   3.682   7.816 -0.2989  0.1199 -0.6619
   77CHL1   C13 8130   2.121   3.547   7.687  0.3790 -0.9783 -0.3380
   77CHL1   C18 8131   2.228   3.439   7.690 -0.5522 -0.0022  1.0027
   77CHL1  H18A 8132   2.274   3.429   7.590 -0.7839  1.8651  0.6920
   77CHL1  H18B 8133   2.319   3.463   7.748 -0.0387  0.5685 -0.0296
   77CHL1  H18C 8134   2.181   3.351   7.740  1.3792 -1.9400 -0.5293
   77CHL1   C12 8135   1.989   3.504   7.618  0.1186  0.0946 -0.3544
   77CHL1  H12A 8136   1.965   3.405   7.664 -1.8889  0.7945  0.1343
   77CHL1  H12B 8137   1.908   3.579   7.624 -1.0167 -0.9915 -1.7880
   77CHL1   C11 8138   2.026   3.464   7.470 -0.5285 -0.3859 -0.6696
   77CHL1  H11A 8139   2.105   3.386   7.459 -1.3052 -1.0311 -1.7271
   77CHL1  H11B 8140   1.932   3.421   7.431 -0.6368 -0.8488  0.0911
   77CHL1    C9 8141   2.066   3.591   7.397  0.5608 -0.0407 -0.3907
   77CHL1    H9 8142   1.986   3.667   7.406  1.3467  0.6697  0.8443
   77CHL1   C10 8143   2.068   3.576   7.241 -0.6855 -0.2664  0.1806
   77CHL1   C19 8144   2.146   3.447   7.207  0.1075  0.0342 -0.0079
   77CHL1  H19A 8145   2.184   3.441   7.103  0.0487  1.0485 -0.0889
   77CHL1  H19B 8146   2.241   3.433   7.263  1.1783  0.3488 -1.7378
   77CHL1  H19C 8147   2.081   3.357   7.218 -0.7626  0.7126  0.4752
   77CHL1    C1 8148   1.924   3.579   7.190 -0.1528 -0.0413  0.5417
   77CHL1   H1A 8149   1.883   3.482   7.225  0.7046 -0.8614 -0.7049
   77CHL1   H1B 8150   1.866   3.661   7.237 -1.0776 -0.3132 -0.1252
   77CHL1    C2 8151   1.906   3.592   7.036 -0.0606 -0.0328 -0.7421
   77CHL1   H2A 8152   1.796   3.601   7.022 -0.5285 -1.9555  1.3236
   77CHL1   H2B 8153   1.951   3.501   6.991  0.8794 -0.4951  1.0615
   77CHL1   C20 8154   2.066   3.511   7.945  0.2074 -0.5254 -0.9005
   77CHL1   H20 8155   2.012   3.420   7.911  0.6966 -0.3332 -2.1915
   77CHL1   C21 8156   1.961   3.600   8.030 -0.2192 -0.8614 -0.2935
   77CHL1  H21A 8157   1.871   3.623   7.970  0.2978 -0.9456 -1.1116
   77CHL1  H21B 8158   2.001   3.699   8.060 -0.1296 -0.3911 -1.9417
   77CHL1  H21C 8159   1.931   3.538   8.118 -0.9504 -0.2832 -0.1306
   77CHL1   C22 8160   2.183   3.460   8.039 -0.0357  0.3316  0.3260
   77CHL1  H22A 8161   2.238   3.388   7.976  0.7107  0.6273  0.6394
   77CHL1  H22B 8162   2.251   3.540   8.076  0.2671 -0.2322  0.9914
   77CHL1   C23 8163   2.139   3.374   8.161 -0.5846  0.3717 -0.5181
   77CHL1  H23A 8164   2.090   3.423   8.248  2.5171  0.9162  1.0007
   77CHL1  H23B 8165   2.067   3.299   8.123 -0.0923  0.8088 -2.3422
   77CHL1   C24 8166   2.264   3.303   8.223  0.4234  0.0316 -0.4345
   77CHL1  H24A 8167   2.298   3.221   8.157  0.9634  0.1156 -0.2656
   77CHL1  H24B 8168   2.349   3.374   8.233  2.3419 -2.3281  0.3853
   77CHL1   C25 8169   2.229   3.253   8.365 -0.5953  0.1832 -0.5665
   77CHL1   H25 8170   2.123   3.224   8.348 -1.0532  1.1990  0.5072
   77CHL1   C26 8171   2.311   3.133   8.419  0.3344  0.0685  0.3792
   77CHL1  H26A 8172   2.286   3.055   8.344 -1.1512  3.9612 -3.4063
   77CHL1  H26B 8173   2.421   3.134   8.429  0.2494 -2.5377  2.2879
   77CHL1  H26C 8174   2.268   3.100   8.516  1.6975  0.4268  1.1076
   77CHL1   C27 8175   2.237   3.360   8.480  0.2044 -0.0885 -0.0598
   77CHL1  H27A 8176   2.214   3.319   8.581  1.8831 -0.6900  0.0828
   77CHL1  H27B 8177   2.340   3.398   8.490 -0.7618  3.2412 -1.8432
   77CHL1  H27C 8178   2.166   3.445   8.465  1.8084  1.7061  2.1311
   78CHL1    C3 8179   4.162   4.854   6.849 -0.3859 -0.5142  0.1928
   78CHL1    H3 8180   4.186   4.749   6.879  1.4037  0.7639  3.5402
   78CHL1    O3 8181   4.118   4.862   6.716 -0.8732  0.1083 -0.1591
   78CHL1   H3' 8182   4.122   4.955   6.693 -0.2690  0.5362  1.5478
   78CHL1    C4 8183   4.059   4.918   6.946  0.1021  0.0179 -0.2649
   78CHL1   H4A 8184   4.019   5.016   6.913 -1.3237 -0.1382  0.9465
   78CHL1   H4B 8185   3.975   4.845   6.946  0.4925 -0.4720  2.2281
   78CHL1    C5 8186   4.118   4.932   7.088 -0.6816 -0.3666 -0.4309
   78CHL1    C6 8187   4.045   4.886   7.189 -0.3453  0.4879  0.2732
   78CHL1    H6 8188   3.945   4.845   7.170  0.6744 -1.7235 -0.4992
   78CHL1    C7 8189   4.089   4.901   7.331  0.5284  0.0600  0.3056
   78CHL1   H7A 8190   4.009   4.955   7.387 -0.8965 -0.7685 -0.9080
   78CHL1   H7B 8191   4.095   4.801   7.379 -1.8305  1.8433  4.5680
   78CHL1    C8 8192   4.225   4.971   7.352 -0.2672  0.3691  0.7670
   78CHL1    H8 8193   4.208   5.080   7.362 -0.2947  0.3518  0.9160
   78CHL1   C14 8194   4.281   4.921   7.490  0.7155  0.1659  0.0006
   78CHL1   H14 8195   4.311   4.815   7.475  1.0534 -0.0961  2.2529
   78CHL1   C15 8196   4.197   4.929   7.619 -0.1803 -0.5934 -0.1508
   78CHL1  H15A 8197   4.147   5.027   7.631  0.0002 -0.5423  0.1839
   78CHL1  H15B 8198   4.121   4.849   7.606  0.5820 -1.4966  0.8419
   78CHL1   C16 8199   4.291   4.893   7.731 -0.0528 -0.5913  1.2255
   78CHL1  H16A 8200   4.274   4.967   7.811  2.1930 -0.5369  1.6661
   78CHL1  H16B 8201   4.281   4.787   7.763  2.0413 -1.2132 -0.0651
   78CHL1   C17 8202   4.434   4.907   7.663 -0.1320 -0.2048 -0.0005
   78CHL1   H17 8203   4.471   4.805   7.638 -1.1955 -0.2817 -1.2918
   78CHL1   C13 8204   4.422   4.976   7.527 -0.4048  0.2455  0.0459
   78CHL1   C18 8205   4.426   5.125   7.558  0.4130  0.5281 -0.0407
   78CHL1  H18A 8206   4.377   5.158   7.652  1.0944 -0.5606  0.7078
   78CHL1  H18B 8207   4.533   5.156   7.569  0.0031  2.3112 -0.9041
   78CHL1  H18C 8208   4.389   5.186   7.472  2.4609  1.0066 -0.6179
   78CHL1   C12 8209   4.514   4.939   7.409  0.5873  0.3362 -0.1347
   78CHL1  H12A 8210   4.616   4.975   7.433  1.6016 -2.2540 -0.4199
   78CHL1  H12B 8211   4.523   4.828   7.402  1.1569  0.4528 -1.4013
   78CHL1   C11 8212   4.467   4.996   7.273 -0.2318  0.2446 -0.1073
   78CHL1  H11A 8213   4.452   5.106   7.281 -0.9850  0.1595 -0.3080
   78CHL1  H11B 8214   4.545   4.965   7.200 -1.0903 -1.9419 -0.1341
   78CHL1    C9 8215   4.326   4.944   7.239 -0.8310 -0.8306 -0.4526
   78CHL1    H9 8216   4.344   4.834   7.243  0.1076 -0.6894 -0.6322
   78CHL1   C10 8217   4.264   4.980   7.106 -0.4911  0.3967  0.0180
   78CHL1   C19 8218   4.277   5.124   7.091 -0.0066 -0.1704 -0.0628
   78CHL1  H19A 8219   4.216   5.182   7.163  2.4490 -0.4131  2.3124
   78CHL1  H19B 8220   4.381   5.162   7.086 -0.2706  0.5572 -0.0624
   78CHL1  H19C 8221   4.245   5.155   6.989  2.6918 -0.3044 -1.0124
   78CHL1    C1 8222   4.352   4.920   6.994  0.2805  0.1441 -0.1657
   78CHL1   H1A 8223   4.443   4.982   6.981  1.5541 -1.8370 -1.1171
   78CHL1   H1B 8224   4.383   4.814   7.010  0.4897  0.3771  0.9879
   78CHL1    C2 8225   4.292   4.936   6.854 -0.2039 -0.0804 -0.8319
   78CHL1   H2A 8226   4.354   4.901   6.770 -0.9349 -0.9867 -1.0042
   78CHL1   H2B 8227   4.277   5.044   6.832  1.3651  0.0578 -1.3026
   78CHL1   C20 8228   4.526   4.964   7.778 -0.5051  0.0117  0.1955
   78CHL1   H20 8229   4.505   5.071   7.797  1.8926  0.8002 -1.3284
   78CHL1   C21 8230   4.673   4.945   7.730  0.4714 -0.0523 -0.1838
   78CHL1  H21A 8231   4.691   5.023   7.653  0.6578  0.4362  0.3519
   78CHL1  H21B 8232   4.699   4.842   7.697 -1.1375 -1.2699  2.2126
   78CHL1  H21C 8233   4.741   4.979   7.810  0.1988  0.5187 -0.1924
   78CHL1   C22 8234   4.519   4.891   7.915  0.3269  0.1091 -0.5240
   78CHL1  H22A 8235   4.413   4.896   7.949  0.1027  0.8702 -1.3103
   78CHL1  H22B 8236   4.545   4.785   7.895 -0.8239 -0.2232 -0.2818
   78CHL1   C23 8237   4.607   4.938   8.033 -0.1806  0.3287 -0.2857
   78CHL1  H23A 8238   4.709   4.898   8.015 -0.8579 -0.1168 -3.6250
   78CHL1  H23B 8239   4.611   5.048   8.046  0.3615  0.7129 -3.2487
   78CHL1   C24 8240   4.552   4.889   8.166  0.1351 -0.3890 -0.7249
   78CHL1  H24A 8241   4.445   4.916   8.162  0.5341  1.3005 -0.3516
   78CHL1  H24B 8242   4.563   4.779   8.167  1.1734 -0.2791  0.5926
   78CHL1   C25 8243   4.624   4.953   8.288 -0.2066 -0.1911 -0.0455
   78CHL1   H25 8244   4.606   5.062   8.275 -1.3020 -0.2198  1.0793
   78CHL1   C26 8245   4.570   4.913   8.428  0.0599 -0.0365 -0.7915
   78CHL1  H26A 8246   4.620   4.818   8.457  3.7984  1.6997 -1.2454
   78CHL1  H26B 8247   4.589   4.986   8.509 -0.5368  0.8846 -1.4606
   78CHL1  H26C 8248   4.462   4.888   8.433 -0.2301  1.4260  0.6526
   78CHL1   C27 8249   4.780   4.934   8.289 -0.0254  0.2895  0.1513
   78CHL1  H27A 8250   4.819   4.983   8.380 -0.2669  2.3252 -0.8064
   78CHL1  H27B 8251   4.792   4.823   8.286 -0.6330  0.1829  1.5615
   78CHL1  H27C 8252   4.831   4.977   8.200  2.9760 -2.1285  0.6356
   79CHL1    C3 8253   2.835   5.153   7.195 -0.2298 -0.1281 -0.2769
   79CHL1    H3 8254   2.824   5.042   7.190 -0.3447 -0.1173 -0.2814
   79CHL1    O3 8255   2.829   5.197   7.059  0.7898 -0.2470  0.0681
   79CHL1   H3' 8256   2.774   5.126   7.027  2.6746 -0.8520 -1.9938
   79CHL1    C4 8257   2.707   5.203   7.265 -0.7463  0.4227 -0.2799
   79CHL1   H4A 8258   2.702   5.313   7.253  0.5944  0.4319 -0.8462
   79CHL1   H4B 8259   2.613   5.166   7.218  0.0013  1.9419 -3.0772
   79CHL1    C5 8260   2.708   5.181   7.417  0.0232 -0.3656  0.5617
   79CHL1    C6 8261   2.610   5.111   7.470  1.0280  0.1061 -0.3698
   79CHL1    H6 8262   2.519   5.083   7.414  1.2753  0.3508 -0.8958
   79CHL1    C7 8263   2.599   5.078   7.613  0.9808 -0.2096 -0.2129
   79CHL1   H7A 8264   2.499   5.096   7.659 -0.0193 -2.5066 -1.4100
   79CHL1   H7B 8265   2.615   4.968   7.619 -1.8030 -0.7522 -1.6915
   79CHL1    C8 8266   2.711   5.141   7.703 -0.0143 -0.4803  0.1923
   79CHL1    H8 8267   2.682   5.246   7.729  0.5819 -0.6484  1.5908
   79CHL1   C14 8268   2.729   5.066   7.838  0.5777 -0.7204 -0.2763
   79CHL1   H14 8269   2.771   4.968   7.808  2.1953  0.3749 -1.6761
   79CHL1   C15 8270   2.600   5.035   7.917 -0.3024  0.2651 -0.2286
   79CHL1  H15A 8271   2.529   5.117   7.892  0.4881  1.3895  1.1970
   79CHL1  H15B 8272   2.563   4.936   7.882 -1.3127  0.2772  0.7734
   79CHL1   C16 8273   2.648   5.029   8.061 -1.1029  0.0791  0.2847
   79CHL1  H16A 8274   2.597   5.106   8.123 -1.0619  1.3319 -1.2245
   79CHL1  H16B 8275   2.626   4.927   8.100 -1.9619  0.6014  1.1716
   79CHL1   C17 8276   2.800   5.059   8.066  0.8086  0.0059 -0.8047
   79CHL1   H17 8277   2.852   4.962   8.048 -1.1294 -1.3793  0.8313
   79CHL1   C13 8278   2.824   5.127   7.938  0.0995  0.5605 -0.0619
   79CHL1   C18 8279   2.786   5.273   7.970 -0.1878  0.0151  0.1319
   79CHL1  H18A 8280   2.695   5.278   8.033 -0.3670  1.5652 -0.2285
   79CHL1  H18B 8281   2.868   5.331   8.019  1.1306 -1.0667 -0.7421
   79CHL1  H18C 8282   2.773   5.331   7.876 -1.6223 -1.3443 -0.5319
   79CHL1   C12 8283   2.956   5.121   7.863  0.0133  0.7262 -0.5083
   79CHL1  H12A 8284   3.032   5.167   7.930 -0.4071  1.8282 -0.7632
   79CHL1  H12B 8285   2.987   5.015   7.854 -2.3026 -0.2047  1.8970
   79CHL1   C11 8286   2.961   5.190   7.723 -0.3148 -0.2527  0.5094
   79CHL1  H11A 8287   2.948   5.299   7.739  0.1152  0.0439 -1.0278
   79CHL1  H11B 8288   3.059   5.181   7.670 -1.0137  0.1304 -0.8793
   79CHL1    C9 8289   2.848   5.149   7.632  0.8974 -0.0911 -0.1545
   79CHL1    H9 8290   2.874   5.043   7.608 -0.8741 -0.2052 -1.6640
   79CHL1   C10 8291   2.841   5.219   7.491  0.4366  0.5281  0.0412
   79CHL1   C19 8292   2.848   5.372   7.513  0.5477  0.4194 -0.2896
   79CHL1  H19A 8293   2.947   5.393   7.559  0.1917 -1.5428  1.4301
   79CHL1  H19B 8294   2.831   5.433   7.421 -0.0927 -1.4683 -1.4669
   79CHL1  H19C 8295   2.769   5.404   7.584 -1.7009 -0.9061 -2.1099
   79CHL1    C1 8296   2.966   5.178   7.406  1.2942 -0.6345 -0.1038
   79CHL1   H1A 8297   3.053   5.227   7.456 -0.7119  2.7566  0.1924
   79CHL1   H1B 8298   2.969   5.067   7.416  0.3188 -0.7338 -0.8382
   79CHL1    C2 8299   2.968   5.205   7.260  0.3375  0.2734  0.2301
   79CHL1   H2A 8300   3.059   5.162   7.213  0.5899  1.3926 -0.3237
   79CHL1   H2B 8301   2.971   5.316   7.254  3.4242  0.3969  2.9017
   79CHL1   C20 8302   2.860   5.113   8.199  1.0656 -0.5024 -0.0797
   79CHL1   H20 8303   2.840   5.221   8.214 -0.1922 -0.8730  0.9502
   79CHL1   C21 8304   3.014   5.112   8.193  0.8363 -0.0364  0.2186
   79CHL1  H21A 8305   3.068   5.141   8.285  0.7124 -0.0826  0.3047
   79CHL1  H21B 8306   3.044   5.198   8.129  1.6334 -0.3150  0.2080
   79CHL1  H21C 8307   3.054   5.020   8.145 -2.2211 -0.6109 -1.3878
   79CHL1   C22 8308   2.826   5.034   8.327  0.4510  0.4650 -0.0844
   79CHL1  H22A 8309   2.742   4.963   8.308  1.7045 -1.3345  0.9253
   79CHL1  H22B 8310   2.913   4.973   8.359 -0.6611 -1.5358 -0.7540
   79CHL1   C23 8311   2.787   5.125   8.444 -0.2178  0.3929  0.5822
   79CHL1  H23A 8312   2.735   5.217   8.410  1.2607  0.8970 -0.3485
   79CHL1  H23B 8313   2.716   5.073   8.512 -2.6183  1.2120 -1.2190
   79CHL1   C24 8314   2.897   5.160   8.536 -0.2080  0.6857  0.0643
   79CHL1  H24A 8315   2.948   5.064   8.558 -2.1750 -0.3249  0.3304
   79CHL1  H24B 8316   2.967   5.226   8.482 -0.7629  0.4277 -0.9920
   79CHL1   C25 8317   2.852   5.223   8.667  0.2529 -0.0996  0.3693
   79CHL1   H25 8318   2.780   5.152   8.714  1.1730 -1.0983  0.3083
   79CHL1   C26 8319   2.963   5.246   8.771  0.4285  0.4224 -0.1561
   79CHL1  H26A 8320   2.921   5.304   8.856 -0.1274  1.2584 -0.9854
   79CHL1  H26B 8321   3.007   5.152   8.812  0.6704  1.3419  1.7203
   79CHL1  H26C 8322   3.041   5.300   8.715 -0.7788 -0.2637 -2.5784
   79CHL1   C27 8323   2.791   5.365   8.634  0.2555  0.3378  0.6494
   79CHL1  H27A 8324   2.688   5.356   8.592  1.2176  0.5342 -1.8039
   79CHL1  H27B 8325   2.760   5.420   8.726 -3.6212 -0.7024  0.0677
   79CHL1  H27C 8326   2.862   5.422   8.571 -1.4427 -1.0473 -2.6089
   80CHL1    C3 8327   0.961   1.212   6.982  0.3073  0.0586 -0.7466
   80CHL1    H3 8328   1.046   1.283   6.975 -0.6570  1.1756 -1.3009
   80CHL1    O3 8329   0.908   1.183   6.853 -0.2875 -0.3089 -0.0095
   80CHL1   H3' 8330   0.938   1.262   6.807  0.8822 -1.0817 -0.5789
   80CHL1    C4 8331   1.011   1.080   7.047  0.3447  0.0664  0.4988
   80CHL1   H4A 8332   0.936   1.000   7.027 -0.1677  0.6469  0.1009
   80CHL1   H4B 8333   1.104   1.048   6.995 -0.1405  3.2067 -2.4145
   80CHL1    C5 8334   1.036   1.084   7.196 -0.2929 -0.3089  0.6100
   80CHL1    C6 8335   1.153   1.054   7.252 -0.3476 -1.1604  0.2768
   80CHL1    H6 8336   1.237   1.043   7.181 -0.8286 -1.5808 -0.2292
   80CHL1    C7 8337   1.179   1.043   7.400  0.1112  0.4192 -0.3610
   80CHL1   H7A 8338   1.240   0.952   7.423  1.0208  0.4835 -2.4318
   80CHL1   H7B 8339   1.234   1.128   7.446 -1.2395  1.3104 -0.3886
   80CHL1    C8 8340   1.046   1.039   7.481  0.3485 -0.4075  0.2708
   80CHL1    H8 8341   1.000   0.941   7.455 -2.4020  0.6407  1.0989
   80CHL1   C14 8342   1.070   1.042   7.631 -0.1473 -0.2219  0.4915
   80CHL1   H14 8343   1.122   1.138   7.650  0.3206 -0.6091  1.1892
   80CHL1   C15 8344   1.167   0.942   7.685  0.1643  0.5372 -0.9590
   80CHL1  H15A 8345   1.143   0.847   7.634  0.9748 -0.6589  0.8290
   80CHL1  H15B 8346   1.271   0.967   7.654  0.7115 -0.5021  0.0007
   80CHL1   C16 8347   1.137   0.945   7.839  0.1433 -0.1600 -0.2693
   80CHL1  H16A 8348   1.113   0.841   7.868 -1.0186  0.1309 -0.1650
   80CHL1  H16B 8349   1.227   0.990   7.887 -1.0735  1.5764  0.4571
   80CHL1   C17 8350   1.027   1.049   7.851  0.2327 -0.5993 -0.4205
   80CHL1   H17 8351   1.075   1.148   7.859 -0.7265 -0.1965  0.4743
   80CHL1   C13 8352   0.953   1.048   7.719 -0.6897  0.0566 -0.2975
   80CHL1   C18 8353   0.863   0.930   7.720 -0.3792  0.0267 -0.1030
   80CHL1  H18A 8354   0.769   0.952   7.774 -1.3236 -0.9027 -1.3094
   80CHL1  H18B 8355   0.818   0.886   7.628 -0.2795  0.0307 -0.1526
   80CHL1  H18C 8356   0.906   0.843   7.774 -1.5608 -0.2568  0.4155
   80CHL1   C12 8357   0.861   1.170   7.684  0.9149 -0.7261  1.1007
   80CHL1  H12A 8358   0.777   1.173   7.757  0.6280 -1.6868  0.8141
   80CHL1  H12B 8359   0.915   1.263   7.711  1.9028 -0.8493 -0.3630
   80CHL1   C11 8360   0.826   1.171   7.531  0.3737  0.4276 -0.1871
   80CHL1  H11A 8361   0.751   1.089   7.522  0.2993  0.6330 -1.5740
   80CHL1  H11B 8362   0.777   1.267   7.503 -0.2933 -0.3991 -1.9156
   80CHL1    C9 8363   0.955   1.150   7.433 -0.9251 -0.8717 -0.3640
   80CHL1    H9 8364   1.017   1.241   7.451 -1.1045 -0.3134 -2.4712
   80CHL1   C10 8365   0.922   1.137   7.282 -0.4125  0.4920 -0.0287
   80CHL1   C19 8366   0.807   1.035   7.271  0.7689 -0.1155 -0.1235
   80CHL1  H19A 8367   0.767   1.014   7.169 -0.1898  0.7597  0.0728
   80CHL1  H19B 8368   0.825   0.943   7.331 -1.3862  0.5649  1.6344
   80CHL1  H19C 8369   0.710   1.071   7.311 -0.6962  0.1445 -3.7024
   80CHL1    C1 8370   0.874   1.275   7.224 -0.9578 -1.3760 -0.0452
   80CHL1   H1A 8371   0.788   1.319   7.279 -0.3854 -0.1335 -0.1199
   80CHL1   H1B 8372   0.958   1.346   7.239 -2.6959  0.0966  3.3100
   80CHL1    C2 8373   0.843   1.275   7.076 -0.2356 -0.1303  0.2692
   80CHL1   H2A 8374   0.830   1.378   7.037  1.1800 -0.5327 -1.3684
   80CHL1   H2B 8375   0.755   1.219   7.040 -1.0514  0.5522  1.1961
   80CHL1   C20 8376   0.947   1.031   7.984  0.5506 -0.1216  0.0818
   80CHL1   H20 8377   0.843   1.069   7.979  1.8927  3.7721 -0.4672
   80CHL1   C21 8378   1.013   1.133   8.086 -0.2004 -0.2325 -0.1265
   80CHL1  H21A 8379   0.964   1.118   8.185 -2.4797 -2.2571 -1.4992
   80CHL1  H21B 8380   1.001   1.237   8.048 -3.4311  0.7858  3.3417
   80CHL1  H21C 8381   1.121   1.108   8.095 -0.2614 -1.2158 -1.9846
   80CHL1   C22 8382   0.942   0.884   8.033  0.0831 -0.2702 -0.4676
   80CHL1  H22A 8383   0.897   0.812   7.960 -0.5830 -1.6879  1.2905
   80CHL1  H22B 8384   1.042   0.849   8.066 -0.9006 -0.7787  2.0497
   80CHL1   C23 8385   0.838   0.875   8.148  0.5760 -0.6809  0.1843
   80CHL1  H23A 8386   0.857   0.776   8.192 -1.2495 -0.7101  0.9404
   80CHL1  H23B 8387   0.843   0.948   8.231 -1.2245 -1.6471  1.1468
   80CHL1   C24 8388   0.690   0.876   8.088  0.5079 -0.0010 -0.1251
   80CHL1  H24A 8389   0.656   0.973   8.046 -1.5958 -0.0467  1.4176
   80CHL1  H24B 8390   0.688   0.804   8.004 -1.4110 -0.2292  0.0990
   80CHL1   C25 8391   0.585   0.818   8.191  0.6336 -0.5913  0.0498
   80CHL1   H25 8392   0.481   0.815   8.151 -0.6301  0.7579  3.0057
   80CHL1   C26 8393   0.619   0.668   8.213 -0.1700 -0.0790  0.4455
   80CHL1  H26A 8394   0.609   0.615   8.116 -0.0560  1.4093 -0.3773
   80CHL1  H26B 8395   0.714   0.664   8.270 -1.8875 -1.9278  3.3419
   80CHL1  H26C 8396   0.547   0.616   8.281  0.1263 -1.4438 -0.2640
   80CHL1   C27 8397   0.584   0.885   8.321 -0.4296 -0.1096  0.4130
   80CHL1  H27A 8398   0.557   0.992   8.309 -3.6569 -0.9646 -0.3253
   80CHL1  H27B 8399   0.521   0.821   8.385 -0.6463  1.3385  1.6777
   80CHL1  H27C 8400   0.686   0.886   8.364 -0.1631  0.0121 -0.2055
   81CHL1    C3 8401   5.478   1.878   6.599  0.1441  0.4025  0.3373
   81CHL1    H3 8402   5.368   1.897   6.598 -0.1479 -0.7762  3.4513
   81CHL1    O3 8403   5.528   1.909   6.470 -0.3746 -0.2244 -0.3069
   81CHL1   H3' 8404   5.484   1.855   6.404  0.0741  0.0086 -0.8013
   81CHL1    C4 8405   5.547   1.969   6.697 -0.8084 -0.7068 -0.6569
   81CHL1   H4A 8406   5.655   1.960   6.672 -0.1526  2.7188  0.6381
   81CHL1   H4B 8407   5.527   2.076   6.672 -0.0609 -0.1416  1.0874
   81CHL1    C5 8408   5.525   1.938   6.843 -0.4350 -0.0275  0.2526
   81CHL1    C6 8409   5.490   2.035   6.928 -0.4543 -0.6966 -0.4040
   81CHL1    H6 8410   5.470   2.136   6.891  2.0288 -0.3285 -0.8487
   81CHL1    C7 8411   5.458   2.015   7.068  0.5843  0.4016 -0.5655
   81CHL1   H7A 8412   5.503   2.094   7.132 -0.5492  1.2419 -0.7942
   81CHL1   H7B 8413   5.349   2.026   7.087  0.9928 -0.0206  2.2818
   81CHL1    C8 8414   5.501   1.870   7.123 -0.5065  0.1769  0.2073
   81CHL1    H8 8415   5.607   1.887   7.148  0.1366 -0.2291 -2.1574
   81CHL1   C14 8416   5.429   1.820   7.248  0.3385 -0.3813  0.0075
   81CHL1   H14 8417   5.326   1.795   7.212  0.2213  2.3672 -1.7473
   81CHL1   C15 8418   5.424   1.919   7.359  0.4362 -0.7361  0.5067
   81CHL1  H15A 8419   5.517   1.980   7.357  1.1029 -1.7949 -1.5407
   81CHL1  H15B 8420   5.328   1.973   7.346  0.7696 -0.1087  0.6157
   81CHL1   C16 8421   5.407   1.836   7.484  0.1416  0.4852  0.6306
   81CHL1  H16A 8422   5.495   1.856   7.549  0.0562 -1.3617  1.3361
   81CHL1  H16B 8423   5.309   1.864   7.527 -0.5507 -0.8223 -0.0728
   81CHL1   C17 8424   5.401   1.683   7.440 -0.4055 -0.8308 -0.2163
   81CHL1   H17 8425   5.295   1.661   7.419 -0.4957  0.9636 -1.7441
   81CHL1   C13 8426   5.484   1.690   7.311  0.4062 -0.5191  0.4361
   81CHL1   C18 8427   5.632   1.699   7.337 -0.5547  0.0865 -0.0238
   81CHL1  H18A 8428   5.673   1.597   7.324 -0.9348 -0.0957  0.1831
   81CHL1  H18B 8429   5.688   1.758   7.261 -1.8120  1.0557 -0.2152
   81CHL1  H18C 8430   5.657   1.757   7.429  2.1882 -2.5172  0.9452
   81CHL1   C12 8431   5.457   1.587   7.205 -0.4734  1.0285  0.3262
   81CHL1  H12A 8432   5.489   1.493   7.253  0.1257  0.8554 -0.3966
   81CHL1  H12B 8433   5.350   1.575   7.180 -0.7073  0.9769  1.3271
   81CHL1   C11 8434   5.533   1.614   7.072 -0.4438 -0.2809 -1.1238
   81CHL1  H11A 8435   5.642   1.592   7.080 -0.7916 -1.5608  0.4634
   81CHL1  H11B 8436   5.503   1.546   6.990 -1.7476  0.6439 -1.4289
   81CHL1    C9 8437   5.496   1.759   7.022  0.3920  0.3753 -0.6090
   81CHL1    H9 8438   5.389   1.751   6.993  0.2931 -1.2164  0.1008
   81CHL1   C10 8439   5.551   1.793   6.882  0.1125 -0.4148  0.2798
   81CHL1   C19 8440   5.711   1.777   6.883  1.2477 -0.7960 -0.8151
   81CHL1  H19A 8441   5.759   1.810   6.789  0.8718  0.1576 -0.6742
   81CHL1  H19B 8442   5.751   1.837   6.968 -1.9215 -0.0222  0.1692
   81CHL1  H19C 8443   5.740   1.671   6.899 -5.3134 -2.5874  0.5999
   81CHL1    C1 8444   5.482   1.701   6.777  0.1534  0.3077  0.1151
   81CHL1   H1A 8445   5.496   1.591   6.783 -1.5281  0.0160 -0.8789
   81CHL1   H1B 8446   5.372   1.715   6.784  0.1032  0.6725 -1.2828
   81CHL1    C2 8447   5.516   1.736   6.631  0.1995 -0.0112  0.4937
   81CHL1   H2A 8448   5.464   1.658   6.571 -0.1032  0.5585  0.0176
   81CHL1   H2B 8449   5.621   1.703   6.615 -0.1747 -0.9965  0.0620
   81CHL1   C20 8450   5.445   1.580   7.548  0.0770  1.0674 -0.5297
   81CHL1   H20 8451   5.556   1.575   7.540  0.0397 -3.5010  0.5749
   81CHL1   C21 8452   5.396   1.443   7.502 -0.2249  0.1313  0.2813
   81CHL1  H21A 8453   5.286   1.457   7.487  0.2591  1.2269 -2.6208
   81CHL1  H21B 8454   5.401   1.368   7.583  1.0381  2.0417  2.0117
   81CHL1  H21C 8455   5.427   1.401   7.404  0.5916 -0.6049  0.8472
   81CHL1   C22 8456   5.405   1.633   7.695 -0.1194 -0.6971  0.1325
   81CHL1  H22A 8457   5.466   1.720   7.725 -2.4660  0.7061  0.9358
   81CHL1  H22B 8458   5.297   1.658   7.691 -0.3647 -1.6068  0.9234
   81CHL1   C23 8459   5.434   1.538   7.809 -0.3042  0.3945  0.0207
   81CHL1  H23A 8460   5.360   1.456   7.803  0.2106 -0.2149  1.7492
   81CHL1  H23B 8461   5.538   1.499   7.800 -0.7853 -0.6530 -1.2158
   81CHL1   C24 8462   5.432   1.601   7.948  0.6150  0.3498 -0.2007
   81CHL1  H24A 8463   5.507   1.683   7.957  0.3001  0.4930  1.0893
   81CHL1  H24B 8464   5.343   1.663   7.971 -0.0837  0.3846 -2.8154
   81CHL1   C25 8465   5.456   1.498   8.060 -0.1216  0.3606  0.0287
   81CHL1   H25 8466   5.387   1.414   8.037 -0.4004 -0.0248  2.1641
   81CHL1   C26 8467   5.595   1.430   8.061  0.4310 -0.1295 -0.0721
   81CHL1  H26A 8468   5.623   1.402   7.957  1.9689 -1.0469  0.5596
   81CHL1  H26B 8469   5.679   1.489   8.105  1.6321 -2.0661  0.3255
   81CHL1  H26C 8470   5.584   1.332   8.114 -0.8924 -0.9150 -1.7685
   81CHL1   C27 8471   5.415   1.551   8.195  0.7505 -0.3738 -0.5742
   81CHL1  H27A 8472   5.306   1.570   8.201  0.4581 -1.7908 -1.1282
   81CHL1  H27B 8473   5.450   1.473   8.267  1.0682 -0.4084 -0.7657
   81CHL1  H27C 8474   5.477   1.639   8.221 -1.1355  0.1304  2.3953
   82CHL1    C3 8475   0.054   2.495   7.102 -0.1141 -0.3067  0.6885
   82CHL1    H3 8476  -0.049   2.535   7.091 -0.2464 -0.8793 -0.2167
   82CHL1    O3 8477   0.115   2.506   6.970  0.6227  0.2574  0.0312
   82CHL1   H3' 8478   0.121   2.418   6.933 -1.3048 -0.6072  1.6541
   82CHL1    C4 8479   0.138   2.566   7.199  0.0178  0.2454  0.7398
   82CHL1   H4A 8480   0.248   2.549   7.189 -0.2639 -2.2681  1.5694
   82CHL1   H4B 8481   0.119   2.670   7.164  0.6574 -0.1600 -0.8319
   82CHL1    C5 8482   0.089   2.539   7.342 -0.2182  0.3091 -0.0534
   82CHL1    C6 8483   0.059   2.644   7.417 -0.0912 -0.0099 -0.0134
   82CHL1    H6 8484   0.058   2.735   7.355 -1.8243  0.1266  0.1849
   82CHL1    C7 8485   0.016   2.626   7.555  0.1285  0.7425 -0.4073
   82CHL1   H7A 8486   0.062   2.693   7.631  1.2257 -1.2422  0.7115
   82CHL1   H7B 8487  -0.091   2.653   7.550 -0.3097 -1.0525 -0.9009
   82CHL1    C8 8488   0.034   2.479   7.610 -0.1622  0.3497 -0.8847
   82CHL1    H8 8489   0.141   2.467   7.634 -0.1772  0.8280 -0.5799
   82CHL1   C14 8490  -0.052   2.467   7.730 -0.3926  0.8865  0.3473
   82CHL1   H14 8491  -0.161   2.475   7.711 -0.2618  0.3805 -0.6345
   82CHL1   C15 8492  -0.028   2.566   7.841 -0.0744 -0.5980 -0.0453
   82CHL1  H15A 8493   0.079   2.595   7.849 -0.8605  2.1545  1.0679
   82CHL1  H15B 8494  -0.068   2.667   7.817 -1.2324 -0.7437  1.2123
   82CHL1   C16 8495  -0.078   2.494   7.969 -0.2865  0.5356 -0.0313
   82CHL1  H16A 8496   0.012   2.502   8.033  0.5954 -1.7670 -0.9056
   82CHL1  H16B 8497  -0.160   2.546   8.023 -0.3459 -0.0102  0.4139
   82CHL1   C17 8498  -0.110   2.354   7.930 -0.2485 -0.3005  0.6290
   82CHL1   H17 8499  -0.213   2.353   7.887 -0.7128  1.4805  1.6949
   82CHL1   C13 8500  -0.035   2.326   7.802 -0.0860  0.1463  0.4884
   82CHL1   C18 8501   0.119   2.289   7.840  0.3365 -0.0344 -0.7586
   82CHL1  H18A 8502   0.163   2.373   7.898 -0.3830 -0.2173  0.0490
   82CHL1  H18B 8503   0.138   2.191   7.887  0.6854 -0.1527 -1.1455
   82CHL1  H18C 8504   0.171   2.287   7.742 -0.3087  0.0464 -1.1104
   82CHL1   C12 8505  -0.082   2.222   7.701 -0.3200 -0.3145  0.1129
   82CHL1  H12A 8506  -0.083   2.119   7.743  1.8084 -0.2725  0.3033
   82CHL1  H12B 8507  -0.187   2.249   7.676 -0.0588  1.4195  0.8083
   82CHL1   C11 8508  -0.010   2.225   7.572 -0.0342 -0.1951  0.1579
   82CHL1  H11A 8509   0.097   2.197   7.584  0.0335 -0.8967 -1.8382
   82CHL1  H11B 8510  -0.057   2.164   7.492  1.3234  1.9149 -2.3203
   82CHL1    C9 8511  -0.005   2.372   7.510 -0.5144  0.6221 -0.7923
   82CHL1    H9 8512  -0.110   2.400   7.484 -0.7408  1.6847  1.1860
   82CHL1   C10 8513   0.073   2.390   7.378  0.2083  0.5371 -0.0797
   82CHL1   C19 8514   0.209   2.314   7.392  0.2359  0.3484  0.3580
   82CHL1  H19A 8515   0.194   2.204   7.384  1.2732  0.1288  1.4690
   82CHL1  H19B 8516   0.277   2.327   7.305  0.5695  0.7375  0.6772
   82CHL1  H19C 8517   0.261   2.343   7.485  3.8570 -0.9211 -1.2079
   82CHL1    C1 8518  -0.011   2.313   7.262 -0.0173  0.5387  0.4626
   82CHL1   H1A 8519  -0.012   2.204   7.279  0.3997  0.4658  0.0211
   82CHL1   H1B 8520  -0.115   2.345   7.282 -0.4776 -0.8918  0.3889
   82CHL1    C2 8521   0.039   2.343   7.120  0.2263 -0.3101  0.3626
   82CHL1   H2A 8522  -0.036   2.309   7.045 -0.9283  0.5800  1.0924
   82CHL1   H2B 8523   0.136   2.293   7.102  0.3291  0.2403 -0.6706
   82CHL1   C20 8524  -0.095   2.253   8.041 -0.1939 -0.2258 -0.7176
   82CHL1   H20 8525   0.014   2.235   8.047 -0.1464 -0.6298 -2.5229
   82CHL1   C21 8526  -0.152   2.113   8.008  0.4835  0.9530 -1.0354
   82CHL1  H21A 8527  -0.098   2.059   7.927 -1.5199 -2.2923 -0.2889
   82CHL1  H21B 8528  -0.260   2.113   7.981  0.5532  2.0125 -1.3515
   82CHL1  H21C 8529  -0.130   2.041   8.090  1.4086  2.9044  0.4889
   82CHL1   C22 8530  -0.149   2.303   8.176  0.4062 -0.0004 -0.4516
   82CHL1  H22A 8531  -0.104   2.234   8.251  0.1464 -0.0445 -0.3330
   82CHL1  H22B 8532  -0.106   2.402   8.202  0.5215 -0.2218  0.2084
   82CHL1   C23 8533  -0.306   2.316   8.183  0.4201 -0.5946 -0.3149
   82CHL1  H23A 8534  -0.331   2.395   8.109  0.7204 -0.5051 -0.3226
   82CHL1  H23B 8535  -0.361   2.225   8.151 -0.2273 -0.0856 -0.6485
   82CHL1   C24 8536  -0.343   2.340   8.331  0.8288 -0.1674 -0.3790
   82CHL1  H24A 8537  -0.303   2.250   8.382 -1.2759 -1.0836 -0.3271
   82CHL1  H24B 8538  -0.282   2.431   8.348  0.4834 -0.2180  1.1425
   82CHL1   C25 8539  -0.487   2.370   8.362 -0.5034 -0.8464 -0.2483
   82CHL1   H25 8540  -0.551   2.290   8.319 -1.3919  0.5450 -1.5459
   82CHL1   C26 8541  -0.517   2.360   8.509 -0.0595  0.7859  0.2349
   82CHL1  H26A 8542  -0.617   2.314   8.528 -0.4236  0.0949 -3.0367
   82CHL1  H26B 8543  -0.443   2.291   8.554 -2.5487 -2.4220 -0.3597
   82CHL1  H26C 8544  -0.500   2.458   8.558 -2.9016  1.2613  0.3641
   82CHL1   C27 8545  -0.547   2.502   8.306  0.3962  0.0725  0.1496
   82CHL1  H27A 8546  -0.493   2.590   8.349  0.8920 -1.0592  1.9012
   82CHL1  H27B 8547  -0.532   2.503   8.196  0.2497 -0.0675  0.1287
   82CHL1  H27C 8548  -0.655   2.508   8.330  0.7290  0.7334  1.4929
   83CHL1    C3 8549   3.044   4.701   6.994 -0.3223 -0.1780 -0.2780
   83CHL1    H3 8550   3.135   4.754   7.027 -1.2449  1.5792 -0.4961
   83CHL1    O3 8551   3.041   4.698   6.852  0.0374 -0.2912 -0.0742
   83CHL1   H3' 8552   3.055   4.608   6.823 -0.2122 -1.2598  2.6271
   83CHL1    C4 8553   3.051   4.562   7.054  0.2570  0.1127 -0.1450
   83CHL1   H4A 8554   2.971   4.498   7.011  0.7533 -0.5839 -0.0505
   83CHL1   H4B 8555   3.142   4.507   7.020  0.4783  0.2706  0.1986
   83CHL1    C5 8556   3.046   4.561   7.208  0.2490  0.5427 -0.4897
   83CHL1    C6 8557   3.144   4.510   7.283 -0.5793  0.0198  0.3885
   83CHL1    H6 8558   3.229   4.457   7.238 -0.1965  1.1109 -0.1806
   83CHL1    C7 8559   3.139   4.522   7.430 -0.3815 -0.1456  0.1029
   83CHL1   H7A 8560   3.186   4.429   7.468  0.2718 -0.9118 -2.4302
   83CHL1   H7B 8561   3.202   4.606   7.467  0.5970 -1.1137  0.6845
   83CHL1    C8 8562   3.002   4.542   7.492 -0.4792  0.4513 -0.5631
   83CHL1    H8 8563   2.947   4.449   7.465  1.0278 -0.2857 -1.1439
   83CHL1   C14 8564   3.000   4.581   7.639 -1.0377 -0.8463 -0.7664
   83CHL1   H14 8565   3.035   4.686   7.644 -1.1531 -0.7785 -1.3628
   83CHL1   C15 8566   3.099   4.504   7.725 -0.4438  0.8961 -0.1392
   83CHL1  H15A 8567   3.083   4.400   7.691  1.7348  0.7036 -0.6896
   83CHL1  H15B 8568   3.203   4.542   7.709 -0.2277  0.8430  1.1187
   83CHL1   C16 8569   3.043   4.523   7.868  0.5377  0.0808  0.8357
   83CHL1  H16A 8570   3.012   4.427   7.916 -1.2083  1.2217  2.0371
   83CHL1  H16B 8571   3.113   4.586   7.927 -1.3927  1.8701  1.2700
   83CHL1   C17 8572   2.907   4.599   7.856  0.7380 -0.1040 -0.8095
   83CHL1   H17 8573   2.942   4.704   7.862  1.6820 -0.3633 -1.6850
   83CHL1   C13 8574   2.871   4.590   7.709 -0.3417  0.5088 -0.4461
   83CHL1   C18 8575   2.791   4.453   7.692  0.5877 -0.1460 -0.1174
   83CHL1  H18A 8576   2.741   4.446   7.594  1.4753  1.6902 -0.7166
   83CHL1  H18B 8577   2.854   4.364   7.713 -0.8448 -1.2561 -0.4197
   83CHL1  H18C 8578   2.701   4.457   7.758 -0.7467  0.8184 -1.9423
   83CHL1   C12 8579   2.793   4.705   7.634 -0.0765 -0.0117  0.4312
   83CHL1  H12A 8580   2.691   4.699   7.679  0.0211 -1.2060  0.4988
   83CHL1  H12B 8581   2.834   4.806   7.658  1.2815 -0.9995  2.3563
   83CHL1   C11 8582   2.786   4.688   7.484  0.0245 -0.4525 -0.1191
   83CHL1  H11A 8583   2.715   4.604   7.464 -0.6133 -0.5221  2.2226
   83CHL1  H11B 8584   2.738   4.779   7.444 -1.6681 -1.2683 -0.0147
   83CHL1    C9 8585   2.925   4.660   7.420  0.0401  0.2497  0.9129
   83CHL1    H9 8586   2.995   4.745   7.431  1.9487 -1.2614  0.6588
   83CHL1   C10 8587   2.920   4.635   7.263  0.4863 -0.4109 -1.0208
   83CHL1   C19 8588   2.799   4.552   7.229 -0.1609  0.6824  0.2780
   83CHL1  H19A 8589   2.791   4.515   7.124 -3.3080  2.4364 -0.1647
   83CHL1  H19B 8590   2.787   4.459   7.288 -1.3154  0.6232 -0.0349
   83CHL1  H19C 8591   2.705   4.608   7.248 -0.2899  0.8102 -0.6724
   83CHL1    C1 8592   2.908   4.777   7.197 -0.8277 -0.0310 -1.2318
   83CHL1   H1A 8593   2.807   4.819   7.216 -0.3067  0.3661  0.7695
   83CHL1   H1B 8594   2.981   4.850   7.238 -0.3739  0.1549 -2.3601
   83CHL1    C2 8595   2.916   4.778   7.043  0.2716 -0.2110  0.7091
   83CHL1   H2A 8596   2.909   4.881   7.002  1.5468  0.0205  1.0328
   83CHL1   H2B 8597   2.825   4.732   7.000  0.9117  1.3202 -2.4486
   83CHL1   C20 8598   2.810   4.578   7.977 -0.1146  0.0041 -0.6236
   83CHL1   H20 8599   2.786   4.470   7.993  0.7945  0.4293  4.7845
   83CHL1   C21 8600   2.693   4.661   7.949  0.1244  0.3578 -0.1923
   83CHL1  H21A 8601   2.622   4.614   7.878  2.2043  1.3150 -3.0368
   83CHL1  H21B 8602   2.725   4.763   7.916  0.8929 -0.1457 -1.0423
   83CHL1  H21C 8603   2.628   4.681   8.036  0.3134  2.5196 -0.5181
   83CHL1   C22 8604   2.875   4.614   8.110  0.4838  0.2940 -0.8225
   83CHL1  H22A 8605   2.939   4.529   8.143 -2.0820 -1.3774 -0.0007
   83CHL1  H22B 8606   2.943   4.700   8.099  0.5399  0.5831  1.6346
   83CHL1   C23 8607   2.778   4.626   8.228  0.7020  0.5513  0.3505
   83CHL1  H23A 8608   2.708   4.710   8.210  0.7184  0.5098  0.0782
   83CHL1  H23B 8609   2.729   4.528   8.247  1.4225  0.3301  1.1303
   83CHL1   C24 8610   2.860   4.666   8.357 -0.0556  1.0405 -0.1564
   83CHL1  H24A 8611   2.938   4.590   8.379 -1.1404 -0.8870 -2.7567
   83CHL1  H24B 8612   2.904   4.767   8.339 -0.0870  1.1226  0.2179
   83CHL1   C25 8613   2.769   4.691   8.479  0.1839 -0.1315  0.0961
   83CHL1   H25 8614   2.717   4.785   8.450  0.6491  0.7098  1.9548
   83CHL1   C26 8615   2.662   4.584   8.505  0.8308 -0.0792  0.3931
   83CHL1  H26A 8616   2.593   4.578   8.418 -0.5292  1.8686  1.2979
   83CHL1  H26B 8617   2.705   4.484   8.528 -1.1595 -0.4899  2.5169
   83CHL1  H26C 8618   2.602   4.625   8.589 -0.3862  3.1354 -1.9805
   83CHL1   C27 8619   2.853   4.728   8.601 -0.2026  0.9398  1.4415
   83CHL1  H27A 8620   2.906   4.824   8.585  0.4670  0.0013 -2.4883
   83CHL1  H27B 8621   2.794   4.743   8.694 -1.5748  0.7827  0.6181
   83CHL1  H27C 8622   2.924   4.644   8.618 -0.6120  0.8354  2.6741
   84CHL1    C3 8623   4.453   0.731   6.943 -0.4295 -0.5490  0.1143
   84CHL1    H3 8624   4.358   0.784   6.964  0.2685 -0.3672  2.9958
   84CHL1    O3 8625   4.472   0.707   6.805  0.1681  0.1094  0.5782
   84CHL1   H3' 8626   4.478   0.613   6.787  0.7809  0.1535  0.5541
   84CHL1    C4 8627   4.577   0.800   6.998 -0.1408  0.1393  0.0347
   84CHL1   H4A 8628   4.662   0.740   6.959  0.4397  1.1979 -0.3413
   84CHL1   H4B 8629   4.580   0.902   6.954  0.5213 -0.1918 -0.6961
   84CHL1    C5 8630   4.581   0.812   7.153 -0.0614 -0.3988  0.0143
   84CHL1    C6 8631   4.628   0.928   7.200  0.4462 -0.2843  0.0528
   84CHL1    H6 8632   4.650   1.014   7.134  3.9844 -1.6186 -0.6109
   84CHL1    C7 8633   4.650   0.952   7.344  0.9680  0.3256 -0.3188
   84CHL1   H7A 8634   4.751   0.985   7.375  0.1483  1.4930  1.2019
   84CHL1   H7B 8635   4.579   1.035   7.363 -0.5278 -1.0514  0.2317
   84CHL1    C8 8636   4.614   0.833   7.442  0.1812 -0.2929 -0.3872
   84CHL1    H8 8637   4.710   0.777   7.451 -0.5018 -2.2242 -3.9129
   84CHL1   C14 8638   4.565   0.878   7.580  0.5726  0.2144  0.6996
   84CHL1   H14 8639   4.462   0.921   7.588 -0.0648 -0.9387 -1.0313
   84CHL1   C15 8640   4.650   0.990   7.653  0.0187  0.4724 -0.1731
   84CHL1  H15A 8641   4.761   0.990   7.646  0.0157  1.2639 -0.3004
   84CHL1  H15B 8642   4.610   1.083   7.607  0.4569  0.6929 -0.1088
   84CHL1   C16 8643   4.604   0.959   7.800 -0.1363 -0.1044  0.0295
   84CHL1  H16A 8644   4.689   0.944   7.871 -1.7655 -1.4626  1.7448
   84CHL1  H16B 8645   4.530   1.034   7.834 -2.3565 -2.5737  0.8405
   84CHL1   C17 8646   4.524   0.824   7.801 -0.6783 -0.2266 -0.2783
   84CHL1   H17 8647   4.418   0.851   7.781 -0.8532  0.1228  1.0795
   84CHL1   C13 8648   4.570   0.757   7.672  0.7718 -0.0615 -0.0000
   84CHL1   C18 8649   4.718   0.686   7.692 -0.2003  0.4099  0.2568
   84CHL1  H18A 8650   4.757   0.650   7.595 -1.2097 -2.0453  0.7224
   84CHL1  H18B 8651   4.797   0.756   7.728  0.9491 -0.9174  0.3451
   84CHL1  H18C 8652   4.711   0.595   7.756 -0.7337  0.9017  0.9136
   84CHL1   C12 8653   4.462   0.650   7.619  0.1170 -0.4121 -0.1689
   84CHL1  H12A 8654   4.468   0.568   7.694  2.9951  1.0401  1.2726
   84CHL1  H12B 8655   4.365   0.706   7.626  0.7867  0.4850  2.6528
   84CHL1   C11 8656   4.486   0.604   7.471  0.2707  0.2141  0.1067
   84CHL1  H11A 8657   4.584   0.552   7.472 -0.4150 -1.1068 -0.1566
   84CHL1  H11B 8658   4.403   0.545   7.426  0.8325  0.1361 -0.8394
   84CHL1    C9 8659   4.506   0.729   7.384 -0.0550 -0.6667 -1.1687
   84CHL1    H9 8660   4.409   0.783   7.379 -0.4654 -1.4507 -1.6968
   84CHL1   C10 8661   4.543   0.689   7.236 -0.1971  0.1227  0.7029
   84CHL1   C19 8662   4.665   0.595   7.234  0.2450 -0.5038  0.4001
   84CHL1  H19A 8663   4.636   0.492   7.264 -0.7353 -0.5482 -0.6504
   84CHL1  H19B 8664   4.717   0.590   7.136 -3.0853 -5.1721 -1.2810
   84CHL1  H19C 8665   4.737   0.624   7.313 -0.0867  0.8256  0.2453
   84CHL1    C1 8666   4.416   0.625   7.175 -0.2124 -0.1953 -0.3577
   84CHL1   H1A 8667   4.384   0.524   7.209  2.4430 -0.6377  0.9015
   84CHL1   H1B 8668   4.327   0.690   7.191 -0.4332 -0.8789  1.3187
   84CHL1    C2 8669   4.431   0.604   7.026  0.1906  0.8399  0.2187
   84CHL1   H2A 8670   4.343   0.547   6.990 -0.8526  1.7567  1.2963
   84CHL1   H2B 8671   4.521   0.538   7.022  0.6424  1.4294  0.6369
   84CHL1   C20 8672   4.535   0.741   7.928 -0.0404 -0.8752 -0.9967
   84CHL1   H20 8673   4.517   0.633   7.910  1.4153 -1.2397 -0.3332
   84CHL1   C21 8674   4.422   0.799   8.013 -0.0034  0.0678 -0.3193
   84CHL1  H21A 8675   4.331   0.815   7.952  0.0386  2.0991  0.1382
   84CHL1  H21B 8676   4.436   0.901   8.053 -1.7000 -0.4467  1.6653
   84CHL1  H21C 8677   4.392   0.731   8.096 -0.1874 -0.9761 -1.2237
   84CHL1   C22 8678   4.667   0.740   8.012 -0.2086 -0.4109 -0.3319
   84CHL1  H22A 8679   4.752   0.744   7.941  0.8997 -2.8482  0.8191
   84CHL1  H22B 8680   4.678   0.830   8.076 -1.0590 -0.7002  0.2346
   84CHL1   C23 8681   4.683   0.623   8.102 -0.2910 -0.0064 -0.2417
   84CHL1  H23A 8682   4.601   0.617   8.177 -1.2385  0.9078 -1.1937
   84CHL1  H23B 8683   4.674   0.528   8.044 -3.2995 -0.6406  1.1623
   84CHL1   C24 8684   4.806   0.627   8.190  0.2614 -0.4348 -0.0409
   84CHL1  H24A 8685   4.897   0.593   8.135 -0.5626 -0.0874 -1.6231
   84CHL1  H24B 8686   4.827   0.725   8.237 -1.7848 -0.7774  1.6610
   84CHL1   C25 8687   4.795   0.525   8.308  0.1634  0.7961 -0.4378
   84CHL1   H25 8688   4.745   0.431   8.276  0.0179  0.9952 -0.8035
   84CHL1   C26 8689   4.935   0.477   8.347  0.3745  0.3108  0.3275
   84CHL1  H26A 8690   5.002   0.451   8.262  1.3541 -2.4672  1.9144
   84CHL1  H26B 8691   4.986   0.561   8.399 -0.4643  0.7811  0.3972
   84CHL1  H26C 8692   4.917   0.406   8.430  0.2500  1.4474  1.2927
   84CHL1   C27 8693   4.719   0.589   8.424  0.4042 -0.2130  0.5437
   84CHL1  H27A 8694   4.622   0.633   8.393  0.8557  0.4516  0.0601
   84CHL1  H27B 8695   4.714   0.505   8.497 -2.4571 -1.5332 -1.0978
   84CHL1  H27C 8696   4.781   0.672   8.464  2.4664 -0.6193 -1.6776
   85CHL1    C3 8697   4.352   4.298   6.660 -0.4318 -0.9749  0.3458
   85CHL1    H3 8698   4.246   4.315   6.689 -0.4508 -0.4461 -0.0245
   85CHL1    O3 8699   4.381   4.292   6.517 -0.2353  0.3472 -0.2322
   85CHL1   H3' 8700   4.477   4.286   6.512  0.0547  0.4724  3.5304
   85CHL1    C4 8701   4.435   4.409   6.715 -0.2699  0.3238 -0.2915
   85CHL1   H4A 8702   4.540   4.400   6.682  0.1387 -0.0142  1.0950
   85CHL1   H4B 8703   4.408   4.506   6.667  1.1428  1.1886  0.6523
   85CHL1    C5 8704   4.426   4.416   6.873 -0.8479 -0.2266 -0.4433
   85CHL1    C6 8705   4.378   4.529   6.933 -0.2310  0.1138 -0.9098
   85CHL1    H6 8706   4.351   4.611   6.865  0.0610 -1.2396 -2.6942
   85CHL1    C7 8707   4.352   4.544   7.084 -0.1027 -0.8861 -0.7136
   85CHL1   H7A 8708   4.401   4.633   7.128 -0.1710 -0.7108 -0.9851
   85CHL1   H7B 8709   4.243   4.531   7.098  0.1282 -0.2715  1.7954
   85CHL1    C8 8710   4.418   4.425   7.158 -0.0526  0.6941 -0.3466
   85CHL1    H8 8711   4.529   4.435   7.157 -0.0143  0.5752  1.2841
   85CHL1   C14 8712   4.380   4.433   7.303 -0.1287  0.4712  0.3837
   85CHL1   H14 8713   4.270   4.422   7.309 -0.1428 -0.0305 -0.6739
   85CHL1   C15 8714   4.414   4.563   7.375 -0.6924 -0.0876  0.2931
   85CHL1  H15A 8715   4.522   4.578   7.351 -1.0874  0.9605 -0.9183
   85CHL1  H15B 8716   4.361   4.659   7.353  1.0489  0.8372  0.0368
   85CHL1   C16 8717   4.404   4.522   7.526  0.0484 -0.5030  0.1275
   85CHL1  H16A 8718   4.486   4.569   7.584 -0.5871 -1.5231  1.8847
   85CHL1  H16B 8719   4.314   4.568   7.571  3.0022  4.4024  1.4043
   85CHL1   C17 8720   4.388   4.369   7.534 -0.9499  0.2113 -0.8068
   85CHL1   H17 8721   4.280   4.340   7.539 -0.8195 -1.0181 -3.7911
   85CHL1   C13 8722   4.434   4.315   7.394 -0.0003 -0.1126 -0.0862
   85CHL1   C18 8723   4.588   4.307   7.384  0.3201 -0.5309  1.0860
   85CHL1  H18A 8724   4.619   4.413   7.398  1.9966 -1.1121  1.9139
   85CHL1  H18B 8725   4.639   4.251   7.466 -0.9468 -0.7728  1.7206
   85CHL1  H18C 8726   4.626   4.280   7.283 -0.0169  1.0333  0.5273
   85CHL1   C12 8727   4.368   4.188   7.336  0.5587 -0.4474 -0.2103
   85CHL1  H12A 8728   4.412   4.103   7.392  0.8557 -0.9421 -1.1741
   85CHL1  H12B 8729   4.258   4.187   7.348  0.6126 -2.1595  0.1947
   85CHL1   C11 8730   4.404   4.165   7.191 -0.2231 -0.0520  0.2734
   85CHL1  H11A 8731   4.512   4.138   7.192  0.2165  1.5870 -0.6431
   85CHL1  H11B 8732   4.342   4.080   7.155 -0.3769  0.6115 -1.0608
   85CHL1    C9 8733   4.385   4.293   7.095 -0.5398 -0.2825  0.3571
   85CHL1    H9 8734   4.275   4.291   7.079 -0.5431  0.9762  0.2357
   85CHL1   C10 8735   4.452   4.282   6.953 -0.2389 -0.1475  0.1591
   85CHL1   C19 8736   4.609   4.270   6.956  0.1133  0.1956 -0.2908
   85CHL1  H19A 8737   4.637   4.187   7.024  2.6905  0.5402 -0.8862
   85CHL1  H19B 8738   4.647   4.246   6.855  0.8143  0.1352 -0.0127
   85CHL1  H19C 8739   4.660   4.362   6.993 -0.3139 -0.2338  1.4051
   85CHL1    C1 8740   4.395   4.156   6.875 -0.2761 -0.6850 -0.2102
   85CHL1   H1A 8741   4.435   4.062   6.917 -2.9082 -1.6424  0.2441
   85CHL1   H1B 8742   4.289   4.137   6.903 -0.4824  0.6459 -0.0321
   85CHL1    C2 8743   4.407   4.169   6.718  0.6602  0.6559  0.3931
   85CHL1   H2A 8744   4.360   4.079   6.673 -0.4536  0.9986  0.8552
   85CHL1   H2B 8745   4.512   4.156   6.684  0.1938  0.2712 -0.9127
   85CHL1   C20 8746   4.462   4.311   7.659  0.1851 -0.2641  0.2123
   85CHL1   H20 8747   4.570   4.337   7.657  1.1182 -3.8428  0.4459
   85CHL1   C21 8748   4.465   4.160   7.655  0.7219 -0.1740 -0.2986
   85CHL1  H21A 8749   4.539   4.114   7.724  1.3200 -0.2343 -0.9719
   85CHL1  H21B 8750   4.503   4.117   7.560 -0.2434 -0.3161 -0.6268
   85CHL1  H21C 8751   4.363   4.119   7.669  1.0856 -0.7436  0.7672
   85CHL1   C22 8752   4.398   4.368   7.780  0.1827  0.3453 -1.0446
   85CHL1  H22A 8753   4.392   4.479   7.782  1.6128  0.4129  0.4637
   85CHL1  H22B 8754   4.293   4.337   7.798  0.3796  0.6124  0.6298
   85CHL1   C23 8755   4.489   4.339   7.912  0.3047 -0.1043  0.3725
   85CHL1  H23A 8756   4.499   4.229   7.922 -1.4716 -0.2015  1.2251
   85CHL1  H23B 8757   4.588   4.384   7.893 -0.5238  1.0353 -1.3966
   85CHL1   C24 8758   4.433   4.409   8.029  0.0261  0.0840 -0.0927
   85CHL1  H24A 8759   4.438   4.517   8.003  0.5524  0.2830  0.8431
   85CHL1  H24B 8760   4.327   4.392   8.056  0.4092 -2.2910 -0.0207
   85CHL1   C25 8761   4.526   4.399   8.153  0.5751 -0.7385  0.6934
   85CHL1   H25 8762   4.628   4.435   8.125  0.5728 -1.7121 -0.6337
   85CHL1   C26 8763   4.478   4.488   8.275 -0.4114  0.9575 -0.4990
   85CHL1  H26A 8764   4.372   4.466   8.299 -0.2725  1.4389  0.5931
   85CHL1  H26B 8765   4.534   4.451   8.364  0.3806 -1.5396 -1.9932
   85CHL1  H26C 8766   4.495   4.598   8.273 -0.8195  1.0166 -0.6935
   85CHL1   C27 8767   4.540   4.250   8.196 -0.2891 -0.0902  0.4528
   85CHL1  H27A 8768   4.455   4.215   8.259 -0.6053  1.5872  0.9675
   85CHL1  H27B 8769   4.556   4.185   8.107  1.6059  0.7976  0.1189
   85CHL1  H27C 8770   4.628   4.239   8.263 -0.4116  3.1587  1.2075
   86CHL1    C3 8771   6.578   1.412   6.996 -0.4834  0.2049  0.9661
   86CHL1    H3 8772   6.563   1.306   7.026 -0.4273 -0.4800 -1.2842
   86CHL1    O3 8773   6.553   1.409   6.860  0.1014 -0.1800  0.2835
   86CHL1   H3' 8774   6.539   1.499   6.830 -0.1856 -0.2566  0.1860
   86CHL1    C4 8775   6.483   1.517   7.070  0.4982  0.2547  0.4872
   86CHL1   H4A 8776   6.494   1.613   7.015 -0.5480  0.3932  0.5094
   86CHL1   H4B 8777   6.382   1.475   7.053  1.4366 -1.9203  0.1678
   86CHL1    C5 8778   6.524   1.550   7.209  0.5591  0.1459 -0.6369
   86CHL1    C6 8779   6.434   1.541   7.306  0.6505 -0.1534 -0.1302
   86CHL1    H6 8780   6.331   1.513   7.280  0.8654 -0.1198 -1.0344
   86CHL1    C7 8781   6.468   1.557   7.453  0.9000 -0.0832 -0.4798
   86CHL1   H7A 8782   6.384   1.609   7.504  0.2460 -1.2194 -0.3658
   86CHL1   H7B 8783   6.465   1.450   7.484  1.0628 -0.2176 -0.9359
   86CHL1    C8 8784   6.603   1.629   7.469 -0.4695  0.5363 -0.2229
   86CHL1    H8 8785   6.580   1.734   7.440 -2.7183  0.4849  1.2402
   86CHL1   C14 8786   6.632   1.646   7.623  0.0969 -0.8637  0.2078
   86CHL1   H14 8787   6.636   1.546   7.671 -1.3266 -1.1642 -0.2683
   86CHL1   C15 8788   6.542   1.724   7.718 -0.2972  0.6955 -0.4125
   86CHL1  H15A 8789   6.511   1.817   7.664  1.5849  1.5212 -0.1230
   86CHL1  H15B 8790   6.445   1.678   7.742 -0.9090  1.4531 -1.3705
   86CHL1   C16 8791   6.632   1.763   7.837  0.7004  0.0162 -0.5531
   86CHL1  H16A 8792   6.630   1.874   7.844  0.2093  0.0663 -1.4568
   86CHL1  H16B 8793   6.600   1.722   7.935  0.3140 -0.4545 -0.8778
   86CHL1   C17 8794   6.770   1.714   7.797 -0.8929  0.5877  0.3832
   86CHL1   H17 8795   6.789   1.611   7.834 -1.1901  0.1296 -0.7351
   86CHL1   C13 8796   6.771   1.707   7.647  0.0556 -0.2106  0.3549
   86CHL1   C18 8797   6.773   1.857   7.595  0.2150  0.2874 -0.2208
   86CHL1  H18A 8798   6.689   1.920   7.632  0.6329  0.0602  1.1431
   86CHL1  H18B 8799   6.864   1.903   7.640 -0.3709 -1.7166  3.2539
   86CHL1  H18C 8800   6.778   1.860   7.485  0.5168 -1.1578 -0.2656
   86CHL1   C12 8801   6.878   1.616   7.575  0.9355 -0.2725  0.4512
   86CHL1  H12A 8802   6.983   1.645   7.593  0.5232  0.6647  1.3473
   86CHL1  H12B 8803   6.866   1.513   7.615 -0.4422  0.2309  1.3955
   86CHL1   C11 8804   6.863   1.614   7.425  0.0853 -0.0156  0.2291
   86CHL1  H11A 8805   6.877   1.718   7.387  1.4933  0.7820  2.8261
   86CHL1  H11B 8806   6.941   1.544   7.389 -0.7420 -0.7161 -0.2339
   86CHL1    C9 8807   6.720   1.566   7.394 -0.2029  0.0902  0.6241
   86CHL1    H9 8808   6.720   1.458   7.420  0.2578 -0.3783 -1.2286
   86CHL1   C10 8809   6.675   1.571   7.247 -0.5767  0.4086 -0.1855
   86CHL1   C19 8810   6.707   1.712   7.185 -0.6307  0.1435  0.4892
   86CHL1  H19A 8811   6.817   1.729   7.180 -1.0234  3.9415  2.9769
   86CHL1  H19B 8812   6.663   1.737   7.086  0.5332 -0.7405 -0.2555
   86CHL1  H19C 8813   6.673   1.792   7.254  0.6364  1.3468 -0.2483
   86CHL1    C1 8814   6.761   1.464   7.164 -0.4014 -0.1172  0.2466
   86CHL1   H1A 8815   6.871   1.480   7.171  0.2871 -2.6313 -3.5661
   86CHL1   H1B 8816   6.743   1.368   7.216  0.2858  0.5363  1.7265
   86CHL1    C2 8817   6.722   1.453   7.014  0.0320 -0.2400 -0.2212
   86CHL1   H2A 8818   6.783   1.366   6.984 -0.0632 -0.6756  0.8311
   86CHL1   H2B 8819   6.753   1.544   6.959 -0.3190 -0.2981 -0.5173
   86CHL1   C20 8820   6.877   1.797   7.878 -0.1485 -0.1902 -0.0826
   86CHL1   H20 8821   6.865   1.898   7.834  0.9690  0.8597  1.9675
   86CHL1   C21 8822   7.020   1.745   7.843  0.1087 -0.2061 -0.4426
   86CHL1  H21A 8823   7.022   1.634   7.847  0.3137 -0.3496 -3.0247
   86CHL1  H21B 8824   7.106   1.790   7.898  0.7944 -2.2555  0.1916
   86CHL1  H21C 8825   7.056   1.769   7.740  1.9218 -0.9140 -0.0067
   86CHL1   C22 8826   6.859   1.806   8.030 -0.0363  0.5329  0.3421
   86CHL1  H22A 8827   6.755   1.834   8.056  0.2874  3.5983 -1.3714
   86CHL1  H22B 8828   6.860   1.705   8.076 -4.8086 -1.1256 -2.8592
   86CHL1   C23 8829   6.959   1.909   8.097 -0.0648  0.7152 -0.3817
   86CHL1  H23A 8830   7.065   1.874   8.095 -0.1505  0.5318 -1.6345
   86CHL1  H23B 8831   6.960   2.007   8.044  0.5646  2.7351  3.1492
   86CHL1   C24 8832   6.919   1.942   8.244  0.2448 -0.8263 -0.1596
   86CHL1  H24A 8833   6.986   2.022   8.281 -2.0128  0.9955  0.1911
   86CHL1  H24B 8834   6.815   1.983   8.244  0.6570  0.2345  0.3779
   86CHL1   C25 8835   6.909   1.828   8.341  0.0019  0.4722 -0.0996
   86CHL1   H25 8836   6.835   1.750   8.313 -0.8425  0.6563  1.5293
   86CHL1   C26 8837   7.051   1.766   8.366  0.1917 -0.0517 -0.1301
   86CHL1  H26A 8838   7.082   1.723   8.268 -1.2682 -1.6322  0.0689
   86CHL1  H26B 8839   7.121   1.846   8.397 -0.1975  1.1451 -2.2798
   86CHL1  H26C 8840   7.031   1.681   8.435 -1.5698  0.1765 -0.3184
   86CHL1   C27 8841   6.846   1.885   8.477  0.2377  0.3617  0.0379
   86CHL1  H27A 8842   6.901   1.979   8.497  1.4673 -0.3535  0.0666
   86CHL1  H27B 8843   6.738   1.912   8.470  0.7430  2.5585  0.2953
   86CHL1  H27C 8844   6.872   1.820   8.563  0.5131  0.6417  0.1631
   87CHL1    C3 8845   6.354   6.717   7.023  0.5835 -0.4607 -0.2197
   87CHL1    H3 8846   6.270   6.703   7.095 -0.6101  4.7115 -0.3614
   87CHL1    O3 8847   6.312   6.707   6.887  0.0033  0.5275 -0.0368
   87CHL1   H3' 8848   6.229   6.754   6.881 -0.5704 -0.7291 -3.0583
   87CHL1    C4 8849   6.413   6.863   7.047  0.0422  0.2249  0.0868
   87CHL1   H4A 8850   6.474   6.875   6.955  1.0062 -3.0087  0.2464
   87CHL1   H4B 8851   6.332   6.938   7.041 -1.5674 -1.4336  0.5712
   87CHL1    C5 8852   6.490   6.871   7.178  0.5008 -0.0547  0.6158
   87CHL1    C6 8853   6.479   6.973   7.265 -0.4666  0.4517  0.3176
   87CHL1    H6 8854   6.410   7.054   7.240 -0.7569  0.3809  0.8781
   87CHL1    C7 8855   6.555   7.000   7.394 -0.7830 -0.4376  0.1984
   87CHL1   H7A 8856   6.599   7.102   7.400  0.2354 -0.8888  0.5436
   87CHL1   H7B 8857   6.472   7.002   7.468 -0.4595 -1.5433  0.6042
   87CHL1    C8 8858   6.674   6.904   7.416  0.5881 -0.1833  0.3688
   87CHL1    H8 8859   6.760   6.944   7.360  0.6725 -1.5428 -0.4887
   87CHL1   C14 8860   6.696   6.889   7.565 -0.3638  0.4513 -0.2320
   87CHL1   H14 8861   6.602   6.851   7.611 -0.4742 -0.3945 -1.1157
   87CHL1   C15 8862   6.721   7.015   7.652 -0.7299 -0.0685  0.4642
   87CHL1  H15A 8863   6.808   7.068   7.609 -0.5616 -1.3930 -0.8861
   87CHL1  H15B 8864   6.631   7.080   7.645 -1.8719 -1.3762  2.3586
   87CHL1   C16 8865   6.759   6.958   7.780  0.1308 -0.7566 -0.0624
   87CHL1  H16A 8866   6.842   7.013   7.830  0.4390 -0.2534 -1.1265
   87CHL1  H16B 8867   6.678   6.948   7.856 -0.0737 -2.1401 -0.4576
   87CHL1   C17 8868   6.805   6.809   7.756  0.3368 -0.0144  0.3534
   87CHL1   H17 8869   6.720   6.748   7.791 -2.6210  1.5090 -3.7606
   87CHL1   C13 8870   6.809   6.789   7.605  0.5222  0.1625  0.3038
   87CHL1   C18 8871   6.942   6.840   7.556  0.5755 -0.3693 -0.2434
   87CHL1  H18A 8872   7.018   6.762   7.573  0.6207 -0.3321 -0.2741
   87CHL1  H18B 8873   6.936   6.847   7.445 -1.1854  0.4115 -0.1309
   87CHL1  H18C 8874   6.974   6.936   7.602 -1.4821 -0.1537  0.7985
   87CHL1   C12 8875   6.758   6.648   7.563 -0.0580 -0.5863  0.0343
   87CHL1  H12A 8876   6.831   6.568   7.588  3.2722  2.9656  2.1350
   87CHL1  H12B 8877   6.666   6.626   7.620 -0.4781 -1.0230 -0.8073
   87CHL1   C11 8878   6.728   6.646   7.408 -0.5708 -0.5023  0.6095
   87CHL1  H11A 8879   6.822   6.636   7.350  0.1922 -1.7056  1.9859
   87CHL1  H11B 8880   6.682   6.545   7.397  0.5456 -0.8737 -0.7060
   87CHL1    C9 8881   6.632   6.763   7.357  0.1076  0.3939 -0.5677
   87CHL1    H9 8882   6.540   6.749   7.418  1.1372  0.0392  0.9391
   87CHL1   C10 8883   6.588   6.758   7.207 -0.7885  0.0424  0.5060
   87CHL1   C19 8884   6.719   6.777   7.119  0.1159  0.3631 -0.0131
   87CHL1  H19A 8885   6.749   6.883   7.131  0.3983  0.4701 -1.5230
   87CHL1  H19B 8886   6.793   6.700   7.150  0.9330  1.0731 -0.1826
   87CHL1  H19C 8887   6.690   6.760   7.013  0.4932  0.4717 -0.1336
   87CHL1    C1 8888   6.522   6.625   7.184 -0.2856  0.6114 -0.0264
   87CHL1   H1A 8889   6.597   6.543   7.195  0.1737  1.0027 -0.2382
   87CHL1   H1B 8890   6.455   6.606   7.270 -0.3496 -0.6956 -0.3489
   87CHL1    C2 8891   6.449   6.607   7.053 -0.0934  0.2153 -0.2162
   87CHL1   H2A 8892   6.401   6.508   7.060 -2.3868  1.1255 -2.3835
   87CHL1   H2B 8893   6.524   6.598   6.971  0.4935  0.4274  0.2935
   87CHL1   C20 8894   6.936   6.772   7.838 -0.0069 -0.1552 -0.1041
   87CHL1   H20 8895   7.020   6.832   7.797  2.3030 -1.4166  2.6219
   87CHL1   C21 8896   6.978   6.623   7.828  0.1474 -0.3780 -0.4599
   87CHL1  H21A 8897   6.990   6.583   7.725 -0.7799 -1.8689  0.0058
   87CHL1  H21B 8898   6.897   6.563   7.874 -0.5855  0.9734  0.0429
   87CHL1  H21C 8899   7.078   6.601   7.870  0.7707  0.5747 -1.4124
   87CHL1   C22 8900   6.923   6.800   7.986  0.0124  0.0058  0.0202
   87CHL1  H22A 8901   6.912   6.909   8.002 -2.4649 -0.1629 -0.4414
   87CHL1  H22B 8902   6.828   6.754   8.020  0.0567 -1.2360 -1.4523
   87CHL1   C23 8903   7.037   6.758   8.079  0.4731  0.4967 -0.0517
   87CHL1  H23A 8904   7.031   6.647   8.082 -0.8977  0.5220 -1.3016
   87CHL1  H23B 8905   7.136   6.787   8.037  0.0837  0.6674 -0.8536
   87CHL1   C24 8906   7.020   6.804   8.231 -0.0056 -0.6536 -0.5808
   87CHL1  H24A 8907   7.078   6.892   8.265  0.1857 -1.3188  0.8522
   87CHL1  H24B 8908   6.911   6.822   8.240 -0.1258 -1.5585 -0.1373
   87CHL1   C25 8909   7.053   6.698   8.342  1.0969 -0.8621 -0.1088
   87CHL1   H25 8910   7.014   6.597   8.318 -2.9818  0.0869  2.1160
   87CHL1   C26 8911   7.203   6.684   8.372 -0.7937 -0.3014 -0.5370
   87CHL1  H26A 8912   7.247   6.757   8.443 -1.9692  0.6882 -0.7949
   87CHL1  H26B 8913   7.206   6.590   8.430  0.2035  1.3723  2.2207
   87CHL1  H26C 8914   7.256   6.677   8.274  0.4511  0.5510  0.0692
   87CHL1   C27 8915   6.978   6.734   8.475 -0.7098  0.4789 -0.2337
   87CHL1  H27A 8916   7.016   6.825   8.526 -2.1096  0.9464  0.0141
   87CHL1  H27B 8917   6.870   6.753   8.453 -1.3107  0.8492  2.7657
   87CHL1  H27C 8918   6.993   6.656   8.553 -0.9436  0.6964  0.0314
   88CHL1    C3 8919   4.745   5.262   7.031  0.3882  0.0360  0.0130
   88CHL1    H3 8920   4.683   5.174   7.060  0.7018 -0.7163 -1.5329
   88CHL1    O3 8921   4.800   5.225   6.908 -0.1571 -0.7414 -0.4802
   88CHL1   H3' 8922   4.875   5.284   6.894 -0.8198 -0.1784 -1.6871
   88CHL1    C4 8923   4.649   5.383   7.007 -1.0515  0.0558  0.4011
   88CHL1   H4A 8924   4.710   5.470   6.974  0.6493 -1.6568 -1.0725
   88CHL1   H4B 8925   4.579   5.363   6.923  0.3261 -1.8571 -0.3463
   88CHL1    C5 8926   4.583   5.414   7.145  0.5113 -0.0654  0.4398
   88CHL1    C6 8927   4.454   5.425   7.149  0.6819 -0.2407  0.3735
   88CHL1    H6 8928   4.400   5.430   7.053 -0.2418 -1.4246  0.8287
   88CHL1    C7 8929   4.376   5.452   7.278 -0.3192 -1.0991  0.1992
   88CHL1   H7A 8930   4.301   5.531   7.261  1.0704  0.3152  0.5342
   88CHL1   H7B 8931   4.330   5.356   7.312  0.5354 -1.5314  0.1734
   88CHL1    C8 8932   4.463   5.509   7.396  0.7563 -0.2657  0.8400
   88CHL1    H8 8933   4.477   5.617   7.375 -0.1049 -0.0705  1.2786
   88CHL1   C14 8934   4.392   5.505   7.524 -0.0416 -0.3192 -0.6904
   88CHL1   H14 8935   4.385   5.396   7.543  0.0027 -0.2940 -0.5220
   88CHL1   C15 8936   4.256   5.573   7.534  0.3411 -0.8899 -1.3076
   88CHL1  H15A 8937   4.265   5.675   7.491 -1.0340 -0.5953 -0.9328
   88CHL1  H15B 8938   4.178   5.506   7.491 -2.1550 -1.3088  3.4655
   88CHL1   C16 8939   4.237   5.599   7.685 -0.4504 -0.3681  0.9243
   88CHL1  H16A 8940   4.222   5.708   7.705  1.6441  0.4466 -1.6511
   88CHL1  H16B 8941   4.145   5.545   7.718 -1.6935  0.7916 -0.5454
   88CHL1   C17 8942   4.360   5.553   7.756 -0.2095  0.5524 -0.4587
   88CHL1   H17 8943   4.353   5.443   7.769 -4.5905  0.4499 -2.8730
   88CHL1   C13 8944   4.465   5.567   7.644  0.3898 -0.1563 -0.4300
   88CHL1   C18 8945   4.494   5.713   7.620 -0.3748 -0.3377  0.1179
   88CHL1  H18A 8946   4.537   5.726   7.519  1.3786 -0.5278  0.8274
   88CHL1  H18B 8947   4.399   5.771   7.619  0.3651  0.9446  1.8747
   88CHL1  H18C 8948   4.551   5.763   7.701 -0.9961  0.5228  0.0313
   88CHL1   C12 8949   4.592   5.483   7.654  0.6367  0.1959 -0.5901
   88CHL1  H12A 8950   4.655   5.517   7.738 -0.9847  0.7609  0.4150
   88CHL1  H12B 8951   4.569   5.375   7.668  1.5932 -0.1008 -1.2300
   88CHL1   C11 8952   4.679   5.484   7.529 -0.2084  0.1296 -0.6435
   88CHL1  H11A 8953   4.723   5.585   7.520  0.6356 -0.1298  0.3905
   88CHL1  H11B 8954   4.764   5.414   7.548  0.6160  1.2592 -0.1320
   88CHL1    C9 8955   4.596   5.432   7.405 -0.1151  0.3853 -0.6192
   88CHL1    H9 8956   4.578   5.325   7.430 -1.0048  0.5097 -0.7222
   88CHL1   C10 8957   4.678   5.432   7.266 -0.1958  0.5311  0.0357
   88CHL1   C19 8958   4.743   5.577   7.247  0.6945  1.2242  0.3897
   88CHL1  H19A 8959   4.798   5.578   7.151 -1.3724  5.2563 -0.8622
   88CHL1  H19B 8960   4.663   5.654   7.241 -1.7146 -1.2017  0.7227
   88CHL1  H19C 8961   4.808   5.618   7.328  1.3637 -0.3933  0.6935
   88CHL1    C1 8962   4.790   5.332   7.262  0.4122  0.0427 -0.0627
   88CHL1   H1A 8963   4.872   5.352   7.334 -0.7568  1.0692  1.0136
   88CHL1   H1B 8964   4.740   5.241   7.302 -1.8149  1.2088 -0.1115
   88CHL1    C2 8965   4.850   5.294   7.133  0.0585  0.0666  0.1936
   88CHL1   H2A 8966   4.923   5.210   7.134 -0.3181 -0.2631 -0.0304
   88CHL1   H2B 8967   4.922   5.371   7.098 -0.8650  0.2181 -1.4413
   88CHL1   C20 8968   4.384   5.608   7.908 -0.2252 -0.3008 -0.3529
   88CHL1   H20 8969   4.368   5.718   7.920  1.8151 -0.1172  1.0128
   88CHL1   C21 8970   4.521   5.574   7.968 -0.3313  0.6460 -0.5392
   88CHL1  H21A 8971   4.595   5.634   7.911  0.7717  1.0081  1.1992
   88CHL1  H21B 8972   4.555   5.469   7.955 -1.0399  0.2651  0.5884
   88CHL1  H21C 8973   4.519   5.587   8.079 -1.5856 -2.0747 -0.1953
   88CHL1   C22 8974   4.266   5.575   7.995  0.1391  0.2636  0.6276
   88CHL1  H22A 8975   4.179   5.611   7.936  0.9659  0.0470 -0.7506
   88CHL1  H22B 8976   4.258   5.465   8.008 -1.0859  0.3390  0.5579
   88CHL1   C23 8977   4.264   5.648   8.134  0.8881  0.5042  0.5491
   88CHL1  H23A 8978   4.331   5.588   8.200  3.1785  1.5973 -0.7262
   88CHL1  H23B 8979   4.300   5.750   8.109 -0.4637  0.7300 -0.5492
   88CHL1   C24 8980   4.126   5.653   8.202 -0.1077 -0.3646  0.2365
   88CHL1  H24A 8981   4.038   5.647   8.136 -0.0680 -1.3152  0.2667
   88CHL1  H24B 8982   4.115   5.551   8.244 -2.2827 -0.1272  0.2875
   88CHL1   C25 8983   4.116   5.753   8.309 -0.5480 -0.5080  0.0900
   88CHL1   H25 8984   4.137   5.854   8.268  0.0927 -1.1997 -1.3365
   88CHL1   C26 8985   3.978   5.756   8.390 -1.1180 -0.4984 -0.4934
   88CHL1  H26A 8986   3.980   5.837   8.466 -1.3392  1.1763 -2.2499
   88CHL1  H26B 8987   3.898   5.770   8.315 -2.0649 -0.2985  0.5390
   88CHL1  H26C 8988   3.959   5.661   8.445  2.7592 -1.4868 -0.7564
   88CHL1   C27 8989   4.222   5.723   8.424 -0.3521 -0.0373  0.3440
   88CHL1  H27A 8990   4.198   5.789   8.510  1.7205  2.0666 -0.6236
   88CHL1  H27B 8991   4.219   5.617   8.454 -0.9776 -0.0079  0.3900
   88CHL1  H27C 8992   4.319   5.759   8.383  0.2861 -2.8189 -0.6670
   89CHL1    C3 8993   0.462   1.078   7.140 -1.0548 -0.7055 -0.0997
   89CHL1    H3 8994   0.568   1.048   7.156 -1.4775 -0.9801  2.3487
   89CHL1    O3 8995   0.428   1.053   7.010 -0.7179 -0.3275  0.3251
   89CHL1   H3' 8996   0.490   0.987   6.978 -0.8864 -0.4186  0.1865
   89CHL1    C4 8997   0.369   0.995   7.231  0.2105  0.5818 -1.1773
   89CHL1   H4A 8998   0.262   1.013   7.207 -0.8489 -0.4740  2.5454
   89CHL1   H4B 8999   0.375   0.886   7.209 -0.6676 -0.3425  2.8263
   89CHL1    C5 9000   0.378   1.029   7.377 -0.0790  0.5675 -0.2010
   89CHL1    C6 9001   0.410   0.932   7.457 -0.1685  0.3434  0.0329
   89CHL1    H6 9002   0.426   0.834   7.410  2.0126  0.8119 -0.2567
   89CHL1    C7 9003   0.420   0.949   7.611 -0.8494 -0.9528  0.3873
   89CHL1   H7A 9004   0.381   0.864   7.670  0.4608 -1.3157  0.7438
   89CHL1   H7B 9005   0.526   0.941   7.642 -0.5582 -0.2839 -0.3993
   89CHL1    C8 9006   0.367   1.086   7.656  0.4867 -0.1290  0.0078
   89CHL1    H8 9007   0.256   1.095   7.653  0.3406 -1.2375  1.5267
   89CHL1   C14 9008   0.411   1.117   7.796  0.5553  0.1843  0.3852
   89CHL1   H14 9009   0.522   1.109   7.798  0.7079  1.6536 -0.9459
   89CHL1   C15 9010   0.359   1.019   7.899  0.2930  0.4064 -0.8937
   89CHL1  H15A 9011   0.260   0.984   7.860  0.0157 -0.5705  0.6469
   89CHL1  H15B 9012   0.426   0.930   7.894 -1.6336 -1.2141  0.9069
   89CHL1   C16 9013   0.363   1.090   8.037 -0.2223  0.3632 -0.3486
   89CHL1  H16A 9014   0.265   1.098   8.090  0.2308  0.6930  0.4364
   89CHL1  H16B 9015   0.441   1.045   8.102 -0.1143 -0.3701 -0.9734
   89CHL1   C17 9016   0.410   1.234   8.003  0.2800  0.4119 -0.0035
   89CHL1   H17 9017   0.519   1.217   8.010 -0.1717 -2.5800  0.3299
   89CHL1   C13 9018   0.381   1.253   7.855 -0.2312 -0.5276  0.3950
   89CHL1   C18 9019   0.231   1.285   7.838 -0.2135  0.0474 -0.4476
   89CHL1  H18A 9020   0.186   1.269   7.738 -0.2934  0.0003 -0.4045
   89CHL1  H18B 9021   0.174   1.216   7.905 -0.4876  0.2497 -0.4721
   89CHL1  H18C 9022   0.209   1.391   7.861  1.7271  0.1034  1.2860
   89CHL1   C12 9023   0.464   1.350   7.767 -0.0529 -0.7113 -0.2505
   89CHL1  H12A 9024   0.450   1.457   7.793 -1.1307 -1.2638  1.5505
   89CHL1  H12B 9025   0.574   1.333   7.779  0.0484 -0.6906 -1.1537
   89CHL1   C11 9026   0.430   1.344   7.618  0.3699 -0.6008 -0.3127
   89CHL1  H11A 9027   0.333   1.398   7.605  0.5636 -0.3968 -0.9066
   89CHL1  H11B 9028   0.505   1.402   7.561 -0.5510  1.1509  0.2248
   89CHL1    C9 9029   0.428   1.195   7.563  0.4093 -0.4511 -0.1179
   89CHL1    H9 9030   0.536   1.168   7.569  0.6706  0.0081 -2.1428
   89CHL1   C10 9031   0.381   1.180   7.417  0.2539  0.0421  0.5927
   89CHL1   C19 9032   0.234   1.237   7.397 -0.3106  0.7813  0.0149
   89CHL1  H19A 9033   0.191   1.229   7.295 -1.0374  0.2510  0.3583
   89CHL1  H19B 9034   0.165   1.176   7.460  0.3490  1.4127  1.3534
   89CHL1  H19C 9035   0.204   1.339   7.430  0.8866  1.7729 -1.9136
   89CHL1    C1 9036   0.466   1.266   7.318  0.6689  0.7250 -0.2346
   89CHL1   H1A 9037   0.459   1.376   7.332  0.3230  0.8998 -1.6965
   89CHL1   H1B 9038   0.573   1.237   7.330  0.6148  1.1715  1.4302
   89CHL1    C2 9039   0.445   1.226   7.165  0.4408 -0.0984  0.5900
   89CHL1   H2A 9040   0.508   1.281   7.092  0.7095 -0.8057  0.2805
   89CHL1   H2B 9041   0.343   1.264   7.147  0.7862  0.4912 -0.1403
   89CHL1   C20 9042   0.367   1.348   8.104  0.2875  0.6833  0.2796
   89CHL1   H20 9043   0.266   1.380   8.073  1.2813  2.7267 -0.9115
   89CHL1   C21 9044   0.470   1.457   8.092 -0.1846  0.1150 -0.0950
   89CHL1  H21A 9045   0.573   1.417   8.101  0.2663  0.8110 -1.8798
   89CHL1  H21B 9046   0.439   1.550   8.144  1.3627 -0.0300  1.0988
   89CHL1  H21C 9047   0.473   1.486   7.985 -1.2113 -1.9862 -0.7373
   89CHL1   C22 9048   0.371   1.293   8.255  0.5949 -0.8342 -0.4462
   89CHL1  H22A 9049   0.297   1.215   8.283 -2.5642  1.9627 -0.7086
   89CHL1  H22B 9050   0.471   1.255   8.284  1.2243  1.7361  0.9125
   89CHL1   C23 9051   0.351   1.406   8.361 -0.0857  0.0880 -0.1541
   89CHL1  H23A 9052   0.447   1.463   8.365  1.0215 -1.5890 -1.7178
   89CHL1  H23B 9053   0.271   1.475   8.329  0.7042  0.0310 -2.4205
   89CHL1   C24 9054   0.353   1.344   8.499 -0.1251 -0.5396 -1.1886
   89CHL1  H24A 9055   0.400   1.244   8.507  1.1921  0.0274 -1.6497
   89CHL1  H24B 9056   0.404   1.415   8.568 -3.9411 -1.4642  2.8469
   89CHL1   C25 9057   0.213   1.343   8.567 -0.2705 -0.3479  0.4060
   89CHL1   H25 9058   0.163   1.441   8.553  0.2512  0.0529  1.2899
   89CHL1   C26 9059   0.114   1.234   8.523 -0.2827 -0.1897 -0.1566
   89CHL1  H26A 9060   0.117   1.135   8.574 -0.7927  0.4847  1.2079
   89CHL1  H26B 9061   0.010   1.269   8.544 -0.3341 -0.0846 -0.5959
   89CHL1  H26C 9062   0.111   1.209   8.415 -1.0858 -1.5100  0.1576
   89CHL1   C27 9063   0.224   1.343   8.722 -1.0449 -0.5919 -0.0270
   89CHL1  H27A 9064   0.304   1.409   8.762 -0.5428 -1.4516  0.4165
   89CHL1  H27B 9065   0.127   1.382   8.759 -1.5561 -0.2246 -1.6932
   89CHL1  H27C 9066   0.237   1.238   8.755 -0.4799 -1.1207 -1.8534
   90CHL1    C3 9067   0.505   3.615   7.098 -0.2316  0.2462  0.1783
   90CHL1    H3 9068   0.598   3.637   7.155 -0.2893 -2.7928  1.5098
   90CHL1    O3 9069   0.516   3.633   6.955 -0.2750  0.4738 -0.1964
   90CHL1   H3' 9070   0.444   3.584   6.913 -1.0577  0.9374  0.5817
   90CHL1    C4 9071   0.463   3.471   7.126  0.4082  0.3195  0.0473
   90CHL1   H4A 9072   0.370   3.457   7.067  1.1811 -0.0555 -1.1008
   90CHL1   H4B 9073   0.537   3.394   7.096 -1.1125 -1.1588  0.0101
   90CHL1    C5 9074   0.447   3.450   7.278  0.3562 -0.5678 -0.2655
   90CHL1    C6 9075   0.515   3.365   7.355  1.1646 -0.5541 -0.0996
   90CHL1    H6 9076   0.593   3.297   7.318  0.3546 -1.9514  0.6900
   90CHL1    C7 9077   0.481   3.341   7.498 -0.0005 -0.0837 -0.1570
   90CHL1   H7A 9078   0.496   3.236   7.530  1.2158 -0.1247 -0.8322
   90CHL1   H7B 9079   0.553   3.392   7.567  0.6719 -1.3180  0.0630
   90CHL1    C8 9080   0.347   3.397   7.546  0.1713  0.2651 -0.5878
   90CHL1    H8 9081   0.262   3.332   7.516 -0.5400 -0.3108  2.5631
   90CHL1   C14 9082   0.350   3.394   7.701  0.0673  0.4316  0.2102
   90CHL1   H14 9083   0.428   3.468   7.728  1.5365 -0.3453 -1.7761
   90CHL1   C15 9084   0.382   3.267   7.780 -0.4036  0.8449  0.3598
   90CHL1  H15A 9085   0.317   3.185   7.742 -1.2275  2.0237 -0.8274
   90CHL1  H15B 9086   0.490   3.246   7.765 -1.2580 -3.2392 -0.6742
   90CHL1   C16 9087   0.351   3.307   7.923 -0.6602 -0.9022 -0.4856
   90CHL1  H16A 9088   0.310   3.221   7.979 -0.4940 -2.3797 -2.5772
   90CHL1  H16B 9089   0.443   3.347   7.972 -0.0480 -0.5048 -1.9327
   90CHL1   C17 9090   0.256   3.430   7.918  0.4324 -0.4640  0.4641
   90CHL1   H17 9091   0.315   3.518   7.952 -1.1818  1.4839 -1.6415
   90CHL1   C13 9092   0.225   3.450   7.760 -1.2265 -0.3063  0.4079
   90CHL1   C18 9093   0.109   3.351   7.727  0.0842 -0.1675 -0.1184
   90CHL1  H18A 9094   0.115   3.252   7.778  0.1453  0.7853  1.7483
   90CHL1  H18B 9095   0.015   3.397   7.765  0.4383  0.1602  0.3625
   90CHL1  H18C 9096   0.097   3.351   7.616  1.9615 -2.2769 -0.3613
   90CHL1   C12 9097   0.204   3.598   7.716 -0.7000 -0.1513  0.0765
   90CHL1  H12A 9098   0.108   3.648   7.737  0.0168  0.6616  1.4486
   90CHL1  H12B 9099   0.290   3.655   7.758  0.2431 -1.1538 -0.4463
   90CHL1   C11 9100   0.205   3.604   7.554 -0.0406  0.9106  0.2744
   90CHL1  H11A 9101   0.113   3.552   7.522  0.8073 -0.5813  0.2131
   90CHL1  H11B 9102   0.188   3.707   7.516  1.7590  0.7794 -0.9460
   90CHL1    C9 9103   0.328   3.536   7.489 -0.0229  0.6854 -1.0567
   90CHL1    H9 9104   0.422   3.586   7.521  0.1398  0.1867 -0.7525
   90CHL1   C10 9105   0.334   3.540   7.338 -0.9283  0.4259  0.0878
   90CHL1   C19 9106   0.195   3.504   7.290 -0.1278 -0.5049  0.1076
   90CHL1  H19A 9107   0.195   3.482   7.181 -1.8847  0.0266 -0.0153
   90CHL1  H19B 9108   0.158   3.410   7.336  0.1175  0.0205  1.4082
   90CHL1  H19C 9109   0.125   3.588   7.308 -0.6310 -1.4724  2.9273
   90CHL1    C1 9110   0.370   3.691   7.293 -0.3338  0.4083  0.4339
   90CHL1   H1A 9111   0.281   3.752   7.319  1.1059  2.9939 -0.5767
   90CHL1   H1B 9112   0.454   3.736   7.351 -2.0521 -0.6471  3.8947
   90CHL1    C2 9113   0.404   3.714   7.149  0.3885  0.5164 -0.0788
   90CHL1   H2A 9114   0.438   3.818   7.132  0.8274  0.7801  2.2833
   90CHL1   H2B 9115   0.309   3.699   7.093  0.7864 -0.5907 -0.4673
   90CHL1   C20 9116   0.144   3.413   8.020 -0.5553  0.1540 -0.5157
   90CHL1   H20 9117   0.084   3.321   8.001 -0.2094 -0.2637  0.3679
   90CHL1   C21 9118   0.046   3.534   8.020  0.7620 -0.1312  0.7474
   90CHL1  H21A 9119  -0.024   3.522   7.935  1.8352 -0.6225 -0.0743
   90CHL1  H21B 9120   0.101   3.628   7.998  0.9328 -0.4607 -0.2484
   90CHL1  H21C 9121  -0.005   3.546   8.118  0.4124  1.2735  0.3984
   90CHL1   C22 9122   0.196   3.400   8.166  0.1096  0.4368  0.0883
   90CHL1  H22A 9123   0.293   3.346   8.171 -0.1670 -0.1111 -0.4441
   90CHL1  H22B 9124   0.220   3.501   8.205  0.5094  0.2906  0.2281
   90CHL1   C23 9125   0.103   3.333   8.264  0.5714  0.6020  0.0684
   90CHL1  H23A 9126   0.006   3.386   8.276 -0.2656 -1.0544  0.7794
   90CHL1  H23B 9127   0.081   3.233   8.220 -0.3330  1.3186 -1.1273
   90CHL1   C24 9128   0.169   3.321   8.404 -0.0447  0.4801 -1.2917
   90CHL1  H24A 9129   0.267   3.269   8.403 -0.8805 -1.1276 -2.5286
   90CHL1  H24B 9130   0.179   3.423   8.448  0.4053  0.0642 -0.4255
   90CHL1   C25 9131   0.076   3.255   8.515  0.9385  0.0607 -0.0485
   90CHL1   H25 9132  -0.011   3.321   8.537  1.1846  0.0809  0.9031
   90CHL1   C26 9133   0.019   3.120   8.468  0.0121 -0.1185 -0.4283
   90CHL1  H26A 9134  -0.058   3.091   8.543 -0.8509  2.0040 -0.4766
   90CHL1  H26B 9135  -0.033   3.124   8.370 -0.9521 -1.3440  0.0151
   90CHL1  H26C 9136   0.105   3.050   8.457 -0.3437 -1.1674  2.9624
   90CHL1   C27 9137   0.141   3.240   8.655 -0.4943 -0.0489  0.2051
   90CHL1  H27A 9138   0.148   3.337   8.708 -2.3087  1.2853 -1.9030
   90CHL1  H27B 9139   0.078   3.172   8.715 -1.6917  2.0413  1.3799
   90CHL1  H27C 9140   0.248   3.213   8.638 -0.0013  0.5327  2.3064
   91CHL1    C3 9141   2.223   5.150   7.155  0.1117 -0.2395  0.0089
   91CHL1    H3 9142   2.331   5.147   7.180 -0.0019  0.3573  0.5728
   91CHL1    O3 9143   2.217   5.149   7.013  0.2168 -0.1453  0.3217
   91CHL1   H3' 9144   2.124   5.139   6.991  0.1214  3.9488 -1.7693
   91CHL1    C4 9145   2.154   5.033   7.216 -0.0557 -0.0074  0.9218
   91CHL1   H4A 9146   2.047   5.034   7.189  0.8639  0.7431 -3.0683
   91CHL1   H4B 9147   2.206   4.945   7.174  0.5218 -0.0473  1.7034
   91CHL1    C5 9148   2.182   5.033   7.362 -0.1795  0.2683 -0.4410
   91CHL1    C6 9149   2.243   4.930   7.430 -0.0234 -0.7314  0.5251
   91CHL1    H6 9150   2.292   4.847   7.377 -0.8710 -0.7127 -0.2867
   91CHL1    C7 9151   2.263   4.925   7.579 -0.6006 -0.1757  0.2073
   91CHL1   H7A 9152   2.247   4.825   7.625 -0.0879 -0.1875  0.3685
   91CHL1   H7B 9153   2.366   4.952   7.612 -0.8263  1.2852 -0.2681
   91CHL1    C8 9154   2.167   5.030   7.642  0.6216 -0.0181 -0.1425
   91CHL1    H8 9155   2.065   4.986   7.638  1.4187 -1.8728 -0.9625
   91CHL1   C14 9156   2.203   5.038   7.785 -0.5657 -0.0298 -0.0229
   91CHL1   H14 9157   2.305   5.080   7.792 -0.3845 -0.3732 -0.5568
   91CHL1   C15 9158   2.232   4.909   7.873  0.5520  0.0538  1.0874
   91CHL1  H15A 9159   2.151   4.836   7.852  0.2622  0.7361 -0.2368
   91CHL1  H15B 9160   2.333   4.869   7.849 -0.3783 -0.9427 -1.3101
   91CHL1   C16 9161   2.234   4.963   8.019  0.2931 -0.5954  0.5366
   91CHL1  H16A 9162   2.166   4.891   8.069  1.1022 -1.3994  0.4731
   91CHL1  H16B 9163   2.337   4.960   8.059 -0.1398 -0.8875  1.6439
   91CHL1   C17 9164   2.178   5.106   8.008  0.2351  0.0049 -0.1156
   91CHL1   H17 9165   2.268   5.171   8.005 -0.2576  0.6713 -0.6407
   91CHL1   C13 9166   2.112   5.124   7.868 -0.1171  0.0883  0.0636
   91CHL1   C18 9167   1.975   5.067   7.872  0.1230  0.1063  0.4976
   91CHL1  H18A 9168   1.908   5.100   7.955  0.3533 -0.0138  0.7327
   91CHL1  H18B 9169   1.919   5.095   7.781  0.0447 -0.8458  0.2494
   91CHL1  H18C 9170   1.975   4.957   7.863 -0.6527  0.0925  0.6937
   91CHL1   C12 9171   2.126   5.264   7.815 -0.3218 -0.1551 -0.6316
   91CHL1  H12A 9172   2.043   5.313   7.870 -0.7933 -2.3965  0.6754
   91CHL1  H12B 9173   2.226   5.305   7.840 -0.4529  1.6922 -2.9170
   91CHL1   C11 9174   2.089   5.272   7.666  0.0128 -0.1219 -0.1617
   91CHL1  H11A 9175   1.979   5.261   7.657 -0.3345  3.4210 -1.2671
   91CHL1  H11B 9176   2.099   5.379   7.637 -3.0228 -0.1922 -1.6199
   91CHL1    C9 9177   2.155   5.165   7.571  0.1396 -0.4438 -0.6575
   91CHL1    H9 9178   2.260   5.203   7.570 -0.5572  1.7487  1.8837
   91CHL1   C10 9179   2.107   5.156   7.429 -0.3998 -0.0466  0.1976
   91CHL1   C19 9180   1.947   5.142   7.424 -0.2111 -0.9393 -0.7051
   91CHL1  H19A 9181   1.905   5.056   7.480 -1.1843 -0.0132  0.0168
   91CHL1  H19B 9182   1.904   5.230   7.475  3.4302 -0.6220  2.0256
   91CHL1  H19C 9183   1.901   5.134   7.323 -0.0605  1.1074 -0.9483
   91CHL1    C1 9184   2.159   5.290   7.355  0.9108  0.5469  0.6231
   91CHL1   H1A 9185   2.096   5.379   7.375  1.9635  1.1050  1.4609
   91CHL1   H1B 9186   2.255   5.318   7.403  2.5932 -0.6801 -1.9367
   91CHL1    C2 9187   2.161   5.279   7.201 -0.2267  0.1155  0.0174
   91CHL1   H2A 9188   2.213   5.368   7.159  1.2133  0.5373  2.6171
   91CHL1   H2B 9189   2.058   5.276   7.159  0.1504  1.0398 -0.9797
   91CHL1   C20 9190   2.101   5.141   8.136 -0.1665 -0.2703  0.1706
   91CHL1   H20 9191   2.003   5.088   8.137 -0.1841 -0.2411  1.2844
   91CHL1   C21 9192   2.067   5.292   8.133 -0.3866 -0.8735 -0.4174
   91CHL1  H21A 9193   2.045   5.325   8.237 -1.0283  1.0295 -1.1195
   91CHL1  H21B 9194   1.979   5.301   8.065  1.1440 -1.5315 -2.5473
   91CHL1  H21C 9195   2.159   5.341   8.095 -1.6582  0.4894 -1.8164
   91CHL1   C22 9196   2.168   5.105   8.270 -0.4457 -0.0732 -0.5979
   91CHL1  H22A 9197   2.099   5.138   8.350  2.1603  0.7754  1.3411
   91CHL1  H22B 9198   2.168   4.994   8.274 -1.9471 -0.1546 -2.0991
   91CHL1   C23 9199   2.308   5.158   8.290  0.4877  0.1900  0.0619
   91CHL1  H23A 9200   2.371   5.121   8.206  1.0855 -0.3442  0.7434
   91CHL1  H23B 9201   2.308   5.268   8.273  1.3208  0.1479 -0.2394
   91CHL1   C24 9202   2.371   5.136   8.425  0.9130  0.4058 -0.3100
   91CHL1  H24A 9203   2.480   5.158   8.432  0.7407  0.7752  1.2936
   91CHL1  H24B 9204   2.321   5.193   8.506  0.3955 -0.0080 -0.3324
   91CHL1   C25 9205   2.374   4.986   8.464  0.3726 -0.3679  0.0282
   91CHL1   H25 9206   2.271   4.945   8.459  0.5686 -0.6682 -2.1436
   91CHL1   C26 9207   2.470   4.902   8.375 -0.0676  0.3673  0.4262
   91CHL1  H26A 9208   2.449   4.922   8.268 -2.4672  2.3578  1.2137
   91CHL1  H26B 9209   2.570   4.936   8.411  0.2223 -0.4908  0.4230
   91CHL1  H26C 9210   2.452   4.795   8.395 -1.5287  0.5109 -0.0374
   91CHL1   C27 9211   2.417   4.975   8.614 -0.2192 -0.4194  0.9852
   91CHL1  H27A 9212   2.328   4.992   8.679 -1.8152  0.8887 -1.4569
   91CHL1  H27B 9213   2.452   4.874   8.642  3.9059  0.3617 -0.9234
   91CHL1  H27C 9214   2.494   5.050   8.643  0.1643 -0.6566  0.5889
   92CHL1    C3 9215   4.421   6.768   6.784 -0.1812  0.6140 -0.4627
   92CHL1    H3 9216   4.497   6.696   6.821 -1.2122  0.5453  1.6273
   92CHL1    O3 9217   4.397   6.736   6.653  0.4497 -0.3685  0.2344
   92CHL1   H3' 9218   4.372   6.644   6.662 -0.5210 -0.2438 -1.1499
   92CHL1    C4 9219   4.293   6.754   6.865  0.3155 -0.0911  0.0491
   92CHL1   H4A 9220   4.216   6.826   6.832 -0.8630 -1.2557  0.2312
   92CHL1   H4B 9221   4.248   6.654   6.846 -0.0188 -0.1286  0.9939
   92CHL1    C5 9222   4.321   6.771   7.011 -0.0916  0.2770  0.1359
   92CHL1    C6 9223   4.300   6.665   7.088 -0.3072  0.2378 -0.0468
   92CHL1    H6 9224   4.250   6.575   7.049 -1.8272  0.1257  2.0939
   92CHL1    C7 9225   4.317   6.681   7.237 -0.6205  0.7207 -0.1579
   92CHL1   H7A 9226   4.232   6.628   7.284  0.6226 -2.4546 -1.3203
   92CHL1   H7B 9227   4.413   6.630   7.263 -0.3993  0.0642 -2.1426
   92CHL1    C8 9228   4.329   6.828   7.278  0.0986  0.1820 -0.7502
   92CHL1    H8 9229   4.224   6.864   7.267  0.3516  1.0655 -0.2780
   92CHL1   C14 9230   4.374   6.834   7.425 -0.2866 -0.6013  0.7771
   92CHL1   H14 9231   4.476   6.791   7.432  0.0083  0.2279  1.6983
   92CHL1   C15 9232   4.286   6.760   7.523  0.1779  0.7313  0.0472
   92CHL1  H15A 9233   4.178   6.767   7.499  0.2925  1.2966 -0.3053
   92CHL1  H15B 9234   4.299   6.649   7.523  1.0396  0.8238 -0.2766
   92CHL1   C16 9235   4.304   6.823   7.666 -0.2241  0.1975 -0.5187
   92CHL1  H16A 9236   4.208   6.865   7.704 -1.3209 -1.2822 -1.5995
   92CHL1  H16B 9237   4.338   6.742   7.734  0.2986  0.2600 -0.7082
   92CHL1   C17 9238   4.410   6.935   7.638 -0.1191 -0.2726 -0.2781
   92CHL1   H17 9239   4.508   6.884   7.628  0.8753  1.4998  0.0621
   92CHL1   C13 9240   4.385   6.978   7.491  0.4778  0.0042 -0.0261
   92CHL1   C18 9241   4.251   7.056   7.479  0.3330 -0.6694  0.9260
   92CHL1  H18A 9242   4.248   7.159   7.520 -0.2271  0.2945 -1.4384
   92CHL1  H18B 9243   4.217   7.065   7.374 -0.8798  0.9781  1.4423
   92CHL1  H18C 9244   4.177   6.995   7.535  1.2134  0.1790  3.0837
   92CHL1   C12 9245   4.495   7.051   7.413  0.8732  0.5568  0.0564
   92CHL1  H12A 9246   4.517   7.155   7.442 -1.5491  1.0614  0.2404
   92CHL1  H12B 9247   4.590   6.994   7.422  0.7860  0.5406  0.8541
   92CHL1   C11 9248   4.468   7.046   7.261  0.4818  0.7101  0.7370
   92CHL1  H11A 9249   4.388   7.123   7.252 -1.5272 -1.4322 -0.4563
   92CHL1  H11B 9250   4.560   7.077   7.207 -0.7492  1.0095 -1.2524
   92CHL1    C9 9251   4.430   6.905   7.200 -0.0051 -0.0313  0.3138
   92CHL1    H9 9252   4.527   6.851   7.194  1.3304  2.1472  1.5951
   92CHL1   C10 9253   4.379   6.906   7.051  0.0743  0.0874  0.0485
   92CHL1   C19 9254   4.268   7.016   7.027 -0.6604 -0.0897  0.9435
   92CHL1  H19A 9255   4.188   7.008   7.104 -0.7133  0.0447  0.9010
   92CHL1  H19B 9256   4.315   7.116   7.031  1.0486 -0.8858  1.8623
   92CHL1  H19C 9257   4.210   7.010   6.933 -0.8346 -0.6364  1.0851
   92CHL1    C1 9258   4.502   6.935   6.952  0.2032  0.0945 -0.0759
   92CHL1   H1A 9259   4.533   7.041   6.958 -0.3664  0.2076  1.0641
   92CHL1   H1B 9260   4.586   6.867   6.975  0.8089  0.1871 -1.9051
   92CHL1    C2 9261   4.476   6.908   6.802 -1.0224  0.1842 -0.8671
   92CHL1   H2A 9262   4.566   6.916   6.738 -1.2082  0.6895 -1.0667
   92CHL1   H2B 9263   4.407   6.981   6.755 -0.0461  1.3608 -0.4899
   92CHL1   C20 9264   4.420   7.052   7.739 -0.7172 -0.4327 -0.2403
   92CHL1   H20 9265   4.341   7.128   7.720 -1.4613 -1.3287 -0.7882
   92CHL1   C21 9266   4.555   7.133   7.723  0.7150  0.3612  0.3117
   92CHL1  H21A 9267   4.644   7.071   7.746  0.3783  0.0543  0.7802
   92CHL1  H21B 9268   4.557   7.218   7.795  2.0697 -0.2120  0.9726
   92CHL1  H21C 9269   4.557   7.193   7.629  2.3046  2.6817  1.7752
   92CHL1   C22 9270   4.417   6.989   7.880  0.4290  0.5035 -0.5708
   92CHL1  H22A 9271   4.318   6.946   7.904 -0.1958  1.1859 -1.8502
   92CHL1  H22B 9272   4.495   6.909   7.883  2.6166  2.5645 -0.8426
   92CHL1   C23 9273   4.446   7.080   8.003 -0.1587 -0.5212 -0.2695
   92CHL1  H23A 9274   4.549   7.123   8.011 -0.2392 -0.7215  2.5111
   92CHL1  H23B 9275   4.381   7.170   7.997  1.2402  0.3383 -3.6807
   92CHL1   C24 9276   4.418   7.019   8.137 -0.0157  0.2601  0.3731
   92CHL1  H24A 9277   4.309   7.002   8.143  0.1010 -0.0598  1.7831
   92CHL1  H24B 9278   4.470   6.921   8.130 -1.2773 -0.2819 -1.5585
   92CHL1   C25 9279   4.474   7.092   8.262 -0.2382 -0.4165  0.6536
   92CHL1   H25 9280   4.579   7.118   8.234  0.1101 -1.1750  1.2523
   92CHL1   C26 9281   4.398   7.222   8.289  0.4047  0.1136  0.5335
   92CHL1  H26A 9282   4.293   7.194   8.311  0.1154  1.8619  1.4963
   92CHL1  H26B 9283   4.432   7.285   8.374  0.4933 -0.0611  0.6283
   92CHL1  H26C 9284   4.395   7.291   8.202  0.3020  0.7440  1.0369
   92CHL1   C27 9285   4.450   7.001   8.387 -0.0267  0.1841  0.8466
   92CHL1  H27A 9286   4.513   6.912   8.368  0.5352  0.5467  0.9793
   92CHL1  H27B 9287   4.491   7.052   8.477 -0.3947 -1.5293  2.0026
   92CHL1  H27C 9288   4.342   6.979   8.400 -0.3472  1.2058  0.0229
   93CHL1    C3 9289   3.393   4.783   6.835 -0.5542 -0.5138 -0.2068
   93CHL1    H3 9290   3.293   4.738   6.855 -0.2226 -0.1399  2.6250
   93CHL1    O3 9291   3.424   4.804   6.701  0.6068 -0.2632  0.3410
   93CHL1   H3' 9292   3.518   4.820   6.696  0.5209 -0.0455 -0.8735
   93CHL1    C4 9293   3.385   4.927   6.907  0.0621  0.0352  0.3870
   93CHL1   H4A 9294   3.473   4.990   6.883  0.4184 -0.6370 -0.0793
   93CHL1   H4B 9295   3.293   4.969   6.861 -0.2300 -2.3382 -1.3155
   93CHL1    C5 9296   3.380   4.912   7.057 -0.0503  0.5573 -0.3511
   93CHL1    C6 9297   3.277   4.958   7.126 -0.0558 -0.2471 -0.2554
   93CHL1    H6 9298   3.207   5.009   7.058  0.2493 -0.6561 -0.8859
   93CHL1    C7 9299   3.256   4.950   7.275 -0.2981 -0.8196 -0.3763
   93CHL1   H7A 9300   3.218   5.045   7.319  0.1522 -1.2301  0.9152
   93CHL1   H7B 9301   3.185   4.871   7.305 -2.3249  0.6119 -1.2981
   93CHL1    C8 9302   3.387   4.919   7.345 -0.3442  0.2928 -0.0649
   93CHL1    H8 9303   3.446   5.013   7.337 -0.5080  0.2944 -1.2934
   93CHL1   C14 9304   3.353   4.896   7.490 -0.0547  0.1216  0.0400
   93CHL1   H14 9305   3.275   4.817   7.494 -1.8074  1.9076  2.6046
   93CHL1   C15 9306   3.281   4.998   7.587  0.2953  0.0974  0.6182
   93CHL1  H15A 9307   3.334   5.095   7.580  0.6432 -0.0509  1.1540
   93CHL1  H15B 9308   3.173   5.005   7.561  0.3781  0.5983  0.4018
   93CHL1   C16 9309   3.295   4.933   7.724 -0.2975  0.0249  0.7308
   93CHL1  H16A 9310   3.327   5.006   7.802  0.8492  0.3116  0.0091
   93CHL1  H16B 9311   3.196   4.895   7.758  0.0338 -0.7707  0.8149
   93CHL1   C17 9312   3.400   4.820   7.712  0.2793 -0.3078  0.2190
   93CHL1   H17 9313   3.347   4.723   7.704 -0.2809  0.0729 -0.7372
   93CHL1   C13 9314   3.469   4.844   7.573  0.1422 -0.1747  0.3233
   93CHL1   C18 9315   3.584   4.949   7.577 -0.4559 -0.1389 -0.2299
   93CHL1  H18A 9316   3.616   4.983   7.476  2.7667 -0.2725  0.6874
   93CHL1  H18B 9317   3.548   5.038   7.634  2.9557  0.7087  0.7221
   93CHL1  H18C 9318   3.673   4.916   7.636 -0.6505  1.5454  1.0615
   93CHL1   C12 9319   3.522   4.710   7.503  0.0779  0.0572 -0.2723
   93CHL1  H12A 9320   3.605   4.668   7.563  0.1872  2.9826  1.7272
   93CHL1  H12B 9321   3.441   4.635   7.498  0.2240 -0.1172  0.0156
   93CHL1   C11 9322   3.569   4.739   7.357  0.8394 -0.6334 -0.6395
   93CHL1  H11A 9323   3.646   4.818   7.367  0.5512 -0.4223 -0.0524
   93CHL1  H11B 9324   3.615   4.645   7.320  0.2973 -1.6748  1.2561
   93CHL1    C9 9325   3.456   4.802   7.274 -0.2532  0.3881 -0.4375
   93CHL1    H9 9326   3.373   4.728   7.270 -1.9928  2.1735  1.1662
   93CHL1   C10 9327   3.494   4.829   7.124 -0.2964 -0.3983  0.3951
   93CHL1   C19 9328   3.627   4.900   7.109  0.6919 -0.1321  0.6375
   93CHL1  H19A 9329   3.710   4.834   7.144 -1.9527 -3.2832  1.2247
   93CHL1  H19B 9330   3.658   4.939   7.009 -2.3805 -0.5918 -0.5679
   93CHL1  H19C 9331   3.630   4.980   7.185  2.0574 -0.3366  0.8054
   93CHL1    C1 9332   3.495   4.692   7.047  0.7516 -0.0212 -0.4348
   93CHL1   H1A 9333   3.590   4.638   7.067  0.6896 -0.4565 -1.3179
   93CHL1   H1B 9334   3.405   4.632   7.068  1.5899 -1.7847 -1.7434
   93CHL1    C2 9335   3.507   4.694   6.894  0.2720 -0.3014 -0.7635
   93CHL1   H2A 9336   3.521   4.590   6.856  0.2334 -0.3914 -0.5371
   93CHL1   H2B 9337   3.603   4.741   6.862 -0.2597 -0.1243 -2.1115
   93CHL1   C20 9338   3.483   4.806   7.839 -0.3852  0.2710 -0.6981
   93CHL1   H20 9339   3.543   4.897   7.864  1.3663 -0.5759 -1.7290
   93CHL1   C21 9340   3.584   4.686   7.819 -0.6413  0.5496  0.3624
   93CHL1  H21A 9341   3.638   4.664   7.913 -0.2238 -1.5679 -0.3424
   93CHL1  H21B 9342   3.658   4.712   7.740 -1.0940  0.8982  0.0498
   93CHL1  H21C 9343   3.524   4.598   7.788 -2.6247  1.6663  0.9533
   93CHL1   C22 9344   3.390   4.792   7.963 -0.8457  0.8985 -0.0625
   93CHL1  H22A 9345   3.309   4.867   7.970 -1.7625  0.0219 -1.1836
   93CHL1  H22B 9346   3.341   4.694   7.946 -2.3042  1.4638  0.8595
   93CHL1   C23 9347   3.449   4.799   8.113 -0.1745  0.2403 -0.3639
   93CHL1  H23A 9348   3.534   4.729   8.124 -0.9724 -0.7422 -0.4438
   93CHL1  H23B 9349   3.486   4.901   8.137  1.9489 -0.6722  0.3831
   93CHL1   C24 9350   3.334   4.765   8.222 -0.5931 -0.7674 -0.0226
   93CHL1  H24A 9351   3.277   4.860   8.230 -0.9710 -0.7692 -2.5227
   93CHL1  H24B 9352   3.276   4.682   8.177  3.2094 -3.7724  0.3672
   93CHL1   C25 9353   3.403   4.733   8.363  0.2830 -0.1556  0.6003
   93CHL1   H25 9354   3.468   4.644   8.345 -0.2792 -0.1966 -1.2714
   93CHL1   C26 9355   3.501   4.835   8.422  0.0224  0.6140  0.9384
   93CHL1  H26A 9356   3.446   4.922   8.466 -0.0573 -1.0270  4.2166
   93CHL1  H26B 9357   3.553   4.790   8.509 -1.6016  0.6158  1.9428
   93CHL1  H26C 9358   3.578   4.867   8.349 -1.2428  1.6110  0.0162
   93CHL1   C27 9359   3.288   4.689   8.463 -0.2221 -0.5143 -0.1194
   93CHL1  H27A 9360   3.219   4.615   8.417 -0.6368  0.0729 -0.4489
   93CHL1  H27B 9361   3.340   4.644   8.550 -1.2012  1.4216  1.5087
   93CHL1  H27C 9362   3.235   4.782   8.495  0.1087 -0.5885  0.6623
   94CHL1    C3 9363   5.395   6.812   6.862  0.2294 -0.1043 -0.0155
   94CHL1    H3 9364   5.399   6.916   6.901  1.5647 -0.4849  0.8843
   94CHL1    O3 9365   5.387   6.805   6.715 -0.0276  0.1423 -0.0208
   94CHL1   H3' 9366   5.408   6.716   6.687 -1.5165 -0.4345  0.6285
   94CHL1    C4 9367   5.513   6.741   6.916 -0.0837 -0.3102  0.0906
   94CHL1   H4A 9368   5.533   6.633   6.898  0.3439 -0.3336  0.6793
   94CHL1   H4B 9369   5.601   6.792   6.872  0.2191 -2.4739 -1.9169
   94CHL1    C5 9370   5.522   6.755   7.069 -0.2698 -0.0510  0.2031
   94CHL1    C6 9371   5.626   6.812   7.131  0.1430 -0.6708  0.1076
   94CHL1    H6 9372   5.707   6.855   7.070 -1.9119  0.9187 -1.5848
   94CHL1    C7 9373   5.635   6.808   7.286 -0.0471  0.6365 -0.1019
   94CHL1   H7A 9374   5.738   6.773   7.308 -0.2967  0.9674  1.6673
   94CHL1   H7B 9375   5.621   6.912   7.322  0.6013  0.0951  1.7294
   94CHL1    C8 9376   5.534   6.721   7.366  0.1422  1.0042 -0.0780
   94CHL1    H8 9377   5.551   6.611   7.358 -0.4395  1.0127 -1.4836
   94CHL1   C14 9378   5.526   6.774   7.508 -0.2445 -0.6435  0.2925
   94CHL1   H14 9379   5.481   6.876   7.505 -2.0455 -1.4528 -2.1257
   94CHL1   C15 9380   5.647   6.801   7.598 -0.9750  0.6351  0.3176
   94CHL1  H15A 9381   5.727   6.731   7.567 -0.1102  1.4611  0.6599
   94CHL1  H15B 9382   5.680   6.907   7.590 -0.1475  0.4371  1.0767
   94CHL1   C16 9383   5.597   6.781   7.741  0.7452 -0.8197 -0.3445
   94CHL1  H16A 9384   5.646   6.695   7.791  0.0617 -1.2429 -0.3970
   94CHL1  H16B 9385   5.624   6.869   7.805  0.9832 -0.4749 -0.9166
   94CHL1   C17 9386   5.444   6.764   7.738 -0.5892 -0.1446 -0.2371
   94CHL1   H17 9387   5.385   6.858   7.734  0.9405  0.7821 -1.7354
   94CHL1   C13 9388   5.431   6.692   7.593  0.4355 -0.1965 -0.3871
   94CHL1   C18 9389   5.485   6.542   7.602  0.4141  0.2379 -0.3131
   94CHL1  H18A 9390   5.461   6.483   7.511 -0.7022  0.8975 -0.4583
   94CHL1  H18B 9391   5.592   6.539   7.630  0.1444  0.0907  0.7337
   94CHL1  H18C 9392   5.426   6.491   7.681 -1.0845  1.0947 -0.8559
   94CHL1   C12 9393   5.295   6.711   7.531 -0.8592  0.2012  0.1901
   94CHL1  H12A 9394   5.210   6.666   7.587 -0.2525 -0.5557  0.5196
   94CHL1  H12B 9395   5.274   6.820   7.529  0.3871  0.4716  1.5979
   94CHL1   C11 9396   5.288   6.660   7.388  0.4111 -0.4320 -0.5588
   94CHL1  H11A 9397   5.292   6.549   7.383 -0.8385 -0.5539  0.7315
   94CHL1  H11B 9398   5.192   6.695   7.345  0.3115 -0.7518 -0.5948
   94CHL1    C9 9399   5.398   6.726   7.297 -0.2450  0.1026 -0.9968
   94CHL1    H9 9400   5.377   6.835   7.309  1.6025  0.3724  0.0110
   94CHL1   C10 9401   5.404   6.694   7.142  0.0740  0.4913  0.0395
   94CHL1   C19 9402   5.409   6.539   7.124  0.2736  0.1002  0.1219
   94CHL1  H19A 9403   5.503   6.493   7.162  0.8457  1.6756  0.6722
   94CHL1  H19B 9404   5.324   6.489   7.175 -0.8494  1.2611 -0.5744
   94CHL1  H19C 9405   5.394   6.507   7.019 -1.2758 -1.1565  0.7132
   94CHL1    C1 9406   5.279   6.756   7.075  0.1816  0.9796 -0.0945
   94CHL1   H1A 9407   5.192   6.704   7.120  2.1204 -2.0049  0.3975
   94CHL1   H1B 9408   5.276   6.862   7.107 -1.4862  0.8370  0.2243
   94CHL1    C2 9409   5.263   6.763   6.921  0.2289  0.0120  0.2386
   94CHL1   H2A 9410   5.175   6.822   6.886 -0.6075 -2.4623 -2.0262
   94CHL1   H2B 9411   5.237   6.659   6.892 -2.0523  0.9441 -1.2318
   94CHL1   C20 9412   5.394   6.688   7.861 -0.0974 -0.2248 -0.8529
   94CHL1   H20 9413   5.451   6.594   7.875 -1.9187 -1.0700  1.2212
   94CHL1   C21 9414   5.248   6.646   7.853  0.5009  0.2648 -0.1423
   94CHL1  H21A 9415   5.226   6.591   7.947 -2.1213  2.6992  0.7405
   94CHL1  H21B 9416   5.220   6.575   7.773  0.1377 -0.8041  0.9060
   94CHL1  H21C 9417   5.175   6.729   7.853  1.0539  0.7951 -3.2733
   94CHL1   C22 9418   5.427   6.766   8.000  0.3882  0.2091  0.3935
   94CHL1  H22A 9419   5.390   6.701   8.082 -1.0743 -0.7336 -0.9860
   94CHL1  H22B 9420   5.536   6.786   8.003  0.2035  1.3919 -0.2095
   94CHL1   C23 9421   5.365   6.907   8.020  0.4520 -0.8408 -0.4819
   94CHL1  H23A 9422   5.409   6.968   7.939 -1.7548  1.6434  0.1027
   94CHL1  H23B 9423   5.255   6.901   8.002  0.4509 -2.8925  0.0544
   94CHL1   C24 9424   5.380   6.953   8.165 -0.4210  0.0535  0.0195
   94CHL1  H24A 9425   5.340   6.866   8.222 -2.0995  2.4006  2.5413
   94CHL1  H24B 9426   5.488   6.963   8.191 -0.7394  0.1743  1.3198
   94CHL1   C25 9427   5.294   7.071   8.200 -0.1429  0.2902 -0.0488
   94CHL1   H25 9428   5.200   7.063   8.142 -0.4558  1.7686  0.2487
   94CHL1   C26 9429   5.280   7.067   8.349  0.0072 -0.4611 -0.0524
   94CHL1  H26A 9430   5.370   7.075   8.413  0.7831  0.3258 -1.2152
   94CHL1  H26B 9431   5.215   7.155   8.370 -2.4645 -2.2867  0.2212
   94CHL1  H26C 9432   5.216   6.986   8.390  0.7090 -0.2065  1.5761
   94CHL1   C27 9433   5.359   7.207   8.160 -0.1797  0.4422  0.4618
   94CHL1  H27A 9434   5.395   7.223   8.056 -1.4848 -1.6569 -0.3577
   94CHL1  H27B 9435   5.288   7.291   8.176 -1.3640 -0.3321 -0.6008
   94CHL1  H27C 9436   5.447   7.227   8.224 -0.1939  0.1723  0.5659
   95CHL1    C3 9437   4.894   6.594   6.633  1.1925  0.2476  0.2561
   95CHL1    H3 9438   4.984   6.655   6.651  1.2218 -0.3882  2.4402
   95CHL1    O3 9439   4.853   6.584   6.492 -0.5314 -0.4541 -0.0862
   95CHL1   H3' 9440   4.827   6.676   6.494  0.3110 -0.2290  0.9809
   95CHL1    C4 9441   4.914   6.449   6.694  0.5360  0.3690 -0.7347
   95CHL1   H4A 9442   4.826   6.384   6.674  0.1999  0.2403  1.1114
   95CHL1   H4B 9443   5.006   6.404   6.650 -0.4438 -0.7223 -1.7025
   95CHL1    C5 9444   4.931   6.463   6.843  0.0890 -0.3461 -0.5938
   95CHL1    C6 9445   5.038   6.399   6.902 -0.3799  0.9977 -0.5437
   95CHL1    H6 9446   5.109   6.336   6.845 -1.1199 -2.4960  2.2117
   95CHL1    C7 9447   5.046   6.387   7.058 -0.5152  0.0851 -0.3474
   95CHL1   H7A 9448   5.062   6.280   7.082 -1.3094  1.0162  4.9660
   95CHL1   H7B 9449   5.137   6.447   7.085 -1.2159  0.6527  0.8118
   95CHL1    C8 9450   4.922   6.437   7.142 -0.0529  0.4152 -0.2562
   95CHL1    H8 9451   4.841   6.362   7.137  0.1161  0.2309 -0.2314
   95CHL1   C14 9452   4.949   6.469   7.295  0.3091  0.1882 -0.0914
   95CHL1   H14 9453   5.012   6.561   7.295 -1.2087  1.2614  0.3849
   95CHL1   C15 9454   5.024   6.371   7.381 -1.0036  0.6122  0.3507
   95CHL1  H15A 9455   4.976   6.271   7.373  1.1434 -0.1951 -3.9717
   95CHL1  H15B 9456   5.131   6.353   7.358 -0.5097 -1.3638  3.9163
   95CHL1   C16 9457   5.008   6.428   7.519 -0.3501 -0.8648  0.4131
   95CHL1  H16A 9458   5.001   6.349   7.597 -0.2277 -0.9764  0.3099
   95CHL1  H16B 9459   5.099   6.483   7.551 -2.5691  2.7257  0.8079
   95CHL1   C17 9460   4.892   6.529   7.517  0.1458 -0.3961  0.0589
   95CHL1   H17 9461   4.935   6.631   7.505  0.1813 -0.6519 -2.2279
   95CHL1   C13 9462   4.827   6.505   7.375  0.2268  0.5880 -0.3106
   95CHL1   C18 9463   4.723   6.391   7.391  0.7318  0.3225 -0.0974
   95CHL1  H18A 9464   4.685   6.361   7.291  2.8528 -1.7592 -0.3199
   95CHL1  H18B 9465   4.759   6.304   7.450 -3.0300 -1.2924 -0.0484
   95CHL1  H18C 9466   4.642   6.436   7.453  1.5017 -0.2679  1.3762
   95CHL1   C12 9467   4.756   6.625   7.311  0.4869 -0.4984  0.3459
   95CHL1  H12A 9468   4.660   6.653   7.359  0.6777 -0.9679  1.0039
   95CHL1  H12B 9469   4.815   6.718   7.320  1.0120 -0.9771  1.9240
   95CHL1   C11 9470   4.731   6.606   7.157 -0.1413  0.2777  0.4026
   95CHL1  H11A 9471   4.642   6.540   7.152  0.4231 -0.4669  0.0091
   95CHL1  H11B 9472   4.703   6.704   7.113  0.5564 -0.2238 -1.1956
   95CHL1    C9 9473   4.851   6.558   7.077 -0.1823  0.6457 -0.0223
   95CHL1    H9 9474   4.930   6.635   7.089  1.6109 -1.1683  0.1508
   95CHL1   C10 9475   4.828   6.542   6.922 -0.1527 -0.3399 -0.9123
   95CHL1   C19 9476   4.697   6.457   6.908 -0.4344 -0.6755 -0.1333
   95CHL1  H19A 9477   4.679   6.435   6.800 -1.3301 -2.3532  0.3322
   95CHL1  H19B 9478   4.693   6.363   6.966 -0.4273  0.5581  1.8920
   95CHL1  H19C 9479   4.611   6.515   6.946  0.3554 -0.9559  2.1374
   95CHL1    C1 9480   4.805   6.682   6.858 -0.2369  1.0845  0.6056
   95CHL1   H1A 9481   4.715   6.730   6.902 -0.6827 -1.0672  2.0943
   95CHL1   H1B 9482   4.891   6.751   6.878 -1.0901  1.9912  1.2179
   95CHL1    C2 9483   4.781   6.677   6.707  1.7735 -0.7372 -0.4870
   95CHL1   H2A 9484   4.769   6.780   6.666 -1.0597 -0.8348 -0.0051
   95CHL1   H2B 9485   4.689   6.618   6.687  1.2206 -0.2689  0.5806
   95CHL1   C20 9486   4.804   6.534   7.639  0.1862  0.4719  0.2978
   95CHL1   H20 9487   4.742   6.441   7.645 -1.1668  1.4202  1.3816
   95CHL1   C21 9488   4.705   6.658   7.640 -0.4342  0.0986  0.0079
   95CHL1  H21A 9489   4.754   6.758   7.646  0.6975 -0.1669 -3.8604
   95CHL1  H21B 9490   4.635   6.644   7.725 -0.2258  0.6201  0.2713
   95CHL1  H21C 9491   4.639   6.643   7.553  1.2008 -2.5063 -0.8345
   95CHL1   C22 9492   4.891   6.529   7.768  1.0047 -0.0494  0.0275
   95CHL1  H22A 9493   4.972   6.454   7.760  0.7687 -0.0135 -3.0710
   95CHL1  H22B 9494   4.922   6.634   7.787 -0.4393  0.1894  1.1790
   95CHL1   C23 9495   4.814   6.484   7.896 -0.4010 -0.3452  0.3402
   95CHL1  H23A 9496   4.716   6.535   7.906 -0.7384 -0.3691 -2.5074
   95CHL1  H23B 9497   4.775   6.381   7.883  0.4277 -0.5656 -0.4987
   95CHL1   C24 9498   4.899   6.475   8.015 -0.0300  0.3722  0.3091
   95CHL1  H24A 9499   4.990   6.418   7.987  0.0411  0.1569  0.9728
   95CHL1  H24B 9500   4.940   6.572   8.050 -0.8150  1.0693 -0.6906
   95CHL1   C25 9501   4.836   6.381   8.128  0.1280 -0.1553  0.4945
   95CHL1   H25 9502   4.805   6.288   8.075 -0.8747  0.9638 -0.9033
   95CHL1   C26 9503   4.949   6.336   8.226  0.3274  0.3907  0.5598
   95CHL1  H26A 9504   4.899   6.283   8.310 -0.4802  0.3066  0.0367
   95CHL1  H26B 9505   5.012   6.266   8.167 -2.1533  0.0018 -1.7642
   95CHL1  H26C 9506   5.001   6.428   8.259  0.7901  0.8715 -1.4252
   95CHL1   C27 9507   4.717   6.449   8.197 -0.5677 -0.5599  0.2090
   95CHL1  H27A 9508   4.626   6.459   8.134 -1.5789  0.3272  1.7824
   95CHL1  H27B 9509   4.686   6.395   8.289 -2.7230  0.4694  0.1154
   95CHL1  H27C 9510   4.753   6.551   8.225 -0.4141 -1.0816  1.9678
   96CHL1    C3 9511   5.418   5.063   6.599 -0.2398 -0.9168 -0.7536
   96CHL1    H3 9512   5.508   5.125   6.622  0.5550 -1.8864 -1.2356
   96CHL1    O3 9513   5.401   5.080   6.464  0.2303 -0.9457 -0.3738
   96CHL1   H3' 9514   5.363   5.165   6.442 -2.0134 -1.1652  2.3928
   96CHL1    C4 9515   5.459   4.916   6.629 -0.3136 -0.6010 -0.2038
   96CHL1   H4A 9516   5.372   4.853   6.601 -1.3476  0.1041  1.3300
   96CHL1   H4B 9517   5.541   4.885   6.561  0.3717  0.1600  0.2663
   96CHL1    C5 9518   5.491   4.903   6.779  0.2868  0.4140 -0.6156
   96CHL1    C6 9519   5.615   4.862   6.813  0.0760 -0.1746  0.3422
   96CHL1    H6 9520   5.692   4.838   6.738 -0.3949 -2.8559  0.6460
   96CHL1    C7 9521   5.657   4.833   6.955 -0.1714  0.5452  0.5032
   96CHL1   H7A 9522   5.719   4.741   6.958  0.3504  0.8715 -0.0631
   96CHL1   H7B 9523   5.729   4.917   6.968 -0.3938  0.5494  1.7273
   96CHL1    C8 9524   5.533   4.840   7.053 -0.2678  0.1726 -0.7695
   96CHL1    H8 9525   5.488   4.740   7.037 -0.4810 -0.1022  1.4491
   96CHL1   C14 9526   5.586   4.867   7.198 -0.6509 -0.0148  0.3928
   96CHL1   H14 9527   5.621   4.972   7.198  0.8392 -0.5016 -0.3463
   96CHL1   C15 9528   5.714   4.791   7.248  0.2238 -0.0407  0.2090
   96CHL1  H15A 9529   5.702   4.689   7.206 -0.5557 -0.7630  2.1160
   96CHL1  H15B 9530   5.804   4.845   7.215 -0.3154 -0.6973 -2.4456
   96CHL1   C16 9531   5.697   4.795   7.398  0.3702 -1.0054 -0.7303
   96CHL1  H16A 9532   5.696   4.691   7.438 -0.9076 -0.9034 -0.5002
   96CHL1  H16B 9533   5.780   4.845   7.452  0.6030 -0.7887 -1.2803
   96CHL1   C17 9534   5.560   4.864   7.424 -0.0785  0.1965 -0.0000
   96CHL1   H17 9535   5.587   4.970   7.441  1.7543 -0.3362  0.5419
   96CHL1   C13 9536   5.477   4.845   7.301  0.4974  0.0824 -0.0319
   96CHL1   C18 9537   5.427   4.704   7.290  0.0195  0.0663  0.7574
   96CHL1  H18A 9538   5.506   4.629   7.314  1.5110  1.2277 -0.3533
   96CHL1  H18B 9539   5.357   4.685   7.373  1.6815  0.9867  2.4207
   96CHL1  H18C 9540   5.383   4.674   7.193  2.1090  0.2843 -0.3009
   96CHL1   C12 9541   5.368   4.956   7.277  0.5833  0.3430 -0.7282
   96CHL1  H12A 9542   5.279   4.933   7.340  1.5746 -0.5483  0.3561
   96CHL1  H12B 9543   5.401   5.059   7.301  0.6128  0.0679  0.4096
   96CHL1   C11 9544   5.322   4.945   7.134  0.9028  0.2783 -0.5032
   96CHL1  H11A 9545   5.260   4.853   7.129  0.7180  0.3908 -0.2903
   96CHL1  H11B 9546   5.254   5.032   7.121 -1.3813 -1.4461 -0.3619
   96CHL1    C9 9547   5.433   4.950   7.025 -0.3652  0.2996 -0.4152
   96CHL1    H9 9548   5.485   5.047   7.042 -0.4618 -0.1641  2.7974
   96CHL1   C10 9549   5.382   4.945   6.877  0.0396  0.9307  0.8207
   96CHL1   C19 9550   5.258   4.849   6.872  0.3588 -0.8070  0.4301
   96CHL1  H19A 9551   5.180   4.894   6.937  1.3687  1.4714  0.1224
   96CHL1  H19B 9552   5.217   4.822   6.772  1.7019 -1.9314  0.1766
   96CHL1  H19C 9553   5.288   4.754   6.921  1.0471 -1.0548 -0.4589
   96CHL1    C1 9554   5.329   5.086   6.835 -0.0120 -0.6342 -0.2509
   96CHL1   H1A 9555   5.241   5.111   6.899  1.0499  0.8254  0.6615
   96CHL1   H1B 9556   5.400   5.168   6.858 -2.8221  1.9102 -0.3207
   96CHL1    C2 9557   5.288   5.090   6.686  0.0307  0.6448 -0.5870
   96CHL1   H2A 9558   5.245   5.190   6.664  1.3617  1.0209 -1.4797
   96CHL1   H2B 9559   5.212   5.014   6.658 -1.1014  1.3613  0.4857
   96CHL1   C20 9560   5.492   4.810   7.555 -0.2098  0.5144 -0.1328
   96CHL1   H20 9561   5.480   4.700   7.549  0.4952  0.4285  0.0108
   96CHL1   C21 9562   5.357   4.873   7.593  0.0453  0.5568 -0.4788
   96CHL1  H21A 9563   5.279   4.827   7.530 -1.3989 -0.1932  1.7943
   96CHL1  H21B 9564   5.362   4.984   7.582  0.4672  0.7564  1.5310
   96CHL1  H21C 9565   5.323   4.861   7.698 -0.8179  1.3451 -0.6597
   96CHL1   C22 9566   5.584   4.826   7.685  0.3263  0.9309  0.4115
   96CHL1  H22A 9567   5.691   4.807   7.662  0.2398 -0.8379  1.4147
   96CHL1  H22B 9568   5.576   4.935   7.704  1.5654  0.9724  0.6943
   96CHL1   C23 9569   5.534   4.743   7.814  0.1284  0.1240 -0.1059
   96CHL1  H23A 9570   5.435   4.765   7.859  0.4703  0.7743  0.3230
   96CHL1  H23B 9571   5.501   4.642   7.779 -1.9855  0.2883  1.2795
   96CHL1   C24 9572   5.644   4.737   7.925 -0.1309  0.3358  0.7974
   96CHL1  H24A 9573   5.744   4.754   7.880 -0.8405  0.6796 -0.6731
   96CHL1  H24B 9574   5.633   4.816   8.003 -0.4691  1.6858 -0.5900
   96CHL1   C25 9575   5.646   4.612   8.009  0.5097  0.0114  0.0059
   96CHL1   H25 9576   5.643   4.516   7.953  0.6866  0.0789 -0.1149
   96CHL1   C26 9577   5.775   4.610   8.100  0.0481  0.0465  0.1587
   96CHL1  H26A 9578   5.774   4.517   8.160 -0.7167  0.0142  0.0995
   96CHL1  H26B 9579   5.864   4.617   8.033  0.1715 -2.0857  0.0771
   96CHL1  H26C 9580   5.770   4.693   8.174 -0.3762 -1.0189  1.3413
   96CHL1   C27 9581   5.525   4.602   8.101  0.2827 -0.5214 -0.3692
   96CHL1  H27A 9582   5.433   4.607   8.040  0.1708 -0.7576 -0.2217
   96CHL1  H27B 9583   5.531   4.517   8.172  2.9725  1.0349  1.3737
   96CHL1  H27C 9584   5.517   4.687   8.172 -2.4662 -1.1503  0.1059
   97OSM      N 9585   3.291   0.417  11.223 -0.1737 -0.0885  0.4884
   97OSM    C15 9586   3.441   0.426  11.224 -0.0577 -0.3622 -0.4057
   97OSM   H15A 9587   3.480   0.449  11.323 -0.7466  0.0480 -0.2286
   97OSM   H15B 9588   3.472   0.501  11.153  0.0383 -0.5348 -0.5447
   97OSM   H15C 9589   3.489   0.333  11.197  1.2867  0.6038 -1.4155
   97OSM    C14 9590   3.254   0.328  11.331  0.4501 -0.3228  0.7147
   97OSM   H14A 9591   3.264   0.225  11.303  3.6427  0.0773  0.2140
   97OSM   H14B 9592   3.152   0.349  11.360 -0.5300 -2.2356 -1.2554
   97OSM   H14C 9593   3.321   0.328  11.415 -1.6656  2.2954  2.5244
   97OSM    C13 9594   3.227   0.550  11.270  0.8713  0.2569  0.6013
   97OSM   H13A 9595   3.249   0.559  11.375 -0.0948 -1.2325  0.9513
   97OSM   H13B 9596   3.121   0.569  11.260  0.8366  0.8017  1.8985
   97OSM   H13C 9597   3.270   0.633  11.215 -0.0877  1.1054  1.1113
   97OSM    C12 9598   3.228   0.383  11.094 -0.5134 -0.2630 -0.4985
   97OSM   H12A 9599   3.245   0.465  11.026  2.0449 -0.6669 -0.4000
   97OSM   H12B 9600   3.122   0.363  11.105 -0.5451 -0.1013 -0.5139
   97OSM    C11 9601   3.282   0.254  11.018 -0.5070 -0.2583 -0.6192
   97OSM   H11A 9602   3.382   0.261  10.970  0.4881 -1.3193  1.2461
   97OSM   H11B 9603   3.212   0.242  10.931 -0.2450 -1.0244 -0.7248
   97OSM      P 9604   3.408   0.038  11.102  0.2984  0.1191  0.3438
   97OSM    O13 9605   3.531   0.104  11.161  0.2624 -0.2700 -0.2546
   97OSM    O14 9606   3.361  -0.074  11.181 -0.7098 -0.3810 -0.1963
   97OSM    O11 9607   3.447  -0.011  10.956 -0.5354 -0.3530  0.2655
   97OSM    O12 9608   3.289   0.141  11.093  0.7893 -0.1365  0.1215
   97OSM    C1S 9609   3.354  -0.078  10.870 -0.8461 -0.2809  0.2989
   97OSM    H1S 9610   3.249  -0.061  10.904 -0.6822 -0.6163  0.9971
   97OSM    H1T 9611   3.375  -0.186  10.887  5.1824  0.8469  0.9915
   97OSM     NF 9612   3.248  -0.090  10.650 -0.2772  0.4420  0.0538
   97OSM    HNF 9613   3.262  -0.171  10.594  1.7763  2.2001 -2.0729
   97OSM    C2S 9614   3.359  -0.037  10.725  0.1516  0.2276 -1.0694
   97OSM    H2S 9615   3.355   0.073  10.716 -2.0196  0.2313 -0.3197
   97OSM    C3S 9616   3.490  -0.063  10.663 -0.2381  0.2749  0.2719
   97OSM    H3S 9617   3.500  -0.173  10.664  0.6967  0.3646  1.0592
   97OSM     O3 9618   3.600  -0.010  10.739 -0.2071 -0.3176  0.7067
   97OSM    HO3 9619   3.555   0.023  10.817 -1.4592 -0.8440  0.2244
   97OSM    C4S 9620   3.492  -0.016  10.521 -0.1746 -0.1769  0.7611
   97OSM    H4S 9621   3.471   0.091  10.510 -1.2954 -0.1340  3.0042
   97OSM    C5S 9622   3.538  -0.084  10.415 -0.1777 -0.2724 -0.9042
   97OSM    H5S 9623   3.579  -0.185  10.430 -2.1880 -1.2761 -1.9281
   97OSM    C6S 9624   3.538  -0.032  10.273  0.5597 -0.0225 -0.9311
   97OSM    H6S 9625   3.600  -0.097  10.208  0.7254 -0.2849 -0.5111
   97OSM    H6T 9626   3.570   0.074  10.267 -3.2581  1.5739  3.6617
   97OSM    C7S 9627   3.399  -0.044  10.221  0.2078 -0.2222  0.1067
   97OSM    H7S 9628   3.330   0.015  10.285 -1.2286 -2.0074  0.2459
   97OSM    H7T 9629   3.364  -0.150  10.225 -0.2853 -0.0699 -0.1157
   97OSM    C8S 9630   3.369   0.023  10.085 -0.2178  0.4714 -0.3665
   97OSM    H8S 9631   3.393   0.130  10.106  2.3556 -0.1610  0.0762
   97OSM    H8T 9632   3.259   0.018  10.074 -0.1814 -0.4464 -0.3292
   97OSM    C9S 9633   3.444  -0.028   9.962  0.6095 -0.0688 -0.6088
   97OSM    H9S 9634   3.443  -0.138   9.952  0.3931 -0.0462 -0.8604
   97OSM    H9T 9635   3.552  -0.003   9.962  0.9830 -1.6536 -1.5002
   97OSM   C10S 9636   3.380   0.015   9.828  0.1071  0.1064 -0.1492
   97OSM   H10S 9637   3.424   0.112   9.798  0.2672 -0.0229 -0.3285
   97OSM   H10T 9638   3.270   0.028   9.834 -0.1020 -1.5584 -0.0194
   97OSM   C11S 9639   3.422  -0.083   9.718 -0.8413 -1.1069  0.3234
   97OSM   H11S 9640   3.391  -0.183   9.756 -2.4565 -0.4348  0.8237
   97OSM   H11T 9641   3.531  -0.087   9.696 -1.1450  1.1211 -1.7009
   97OSM   C12S 9642   3.371  -0.044   9.574  0.0455 -0.0286  0.7356
   97OSM   H12S 9643   3.412   0.055   9.546 -0.0345 -0.3633 -0.6006
   97OSM   H12T 9644   3.260  -0.032   9.570 -0.0611 -1.3139 -1.4623
   97OSM   C13S 9645   3.417  -0.144   9.459  0.3126 -0.1457  0.1601
   97OSM   H13S 9646   3.350  -0.231   9.476 -0.1675 -0.1280 -1.6161
   97OSM   H13T 9647   3.526  -0.165   9.469  0.5801  1.7204  1.5971
   97OSM   C14S 9648   3.392  -0.079   9.321 -0.0736 -0.0249 -0.0768
   97OSM   H14S 9649   3.408  -0.168   9.257  0.2973  1.6196 -2.3235
   97OSM   H14T 9650   3.475  -0.010   9.295  0.0177  0.0106  0.3048
   97OSM   C15S 9651   3.253  -0.018   9.292 -0.0009 -0.6288  0.2215
   97OSM   H15S 9652   3.249   0.081   9.342  0.3636 -1.4592  1.9287
   97OSM   H15T 9653   3.168  -0.079   9.329  1.7090 -3.1176  0.1261
   97OSM   C16S 9654   3.231   0.007   9.141 -0.5196  0.1585  0.5537
   97OSM   H16S 9655   3.248  -0.081   9.077 -1.2623  0.4194 -0.0140
   97OSM   H16T 9656   3.307   0.083   9.111 -0.5699  0.4602  1.1647
   97OSM   C17S 9657   3.096   0.067   9.107  0.6048  0.7978  0.3078
   97OSM   H17S 9658   3.074   0.167   9.150  1.8387  0.8057  0.9206
   97OSM   H17T 9659   3.018  -0.001   9.148 -1.3304  2.6485 -0.1841
   97OSM   C18S 9660   3.077   0.087   8.957 -0.1296 -0.9198  0.2653
   97OSM   H18S 9661   2.974   0.119   8.929 -0.0962 -0.3290  0.7928
   97OSM   H18T 9662   3.113   0.005   8.891  1.6351  0.7150 -0.8259
   97OSM   H18U 9663   3.133   0.176   8.923 -2.3491 -0.0569 -1.1880
   97OSM    C1F 9664   3.128  -0.030  10.657 -0.1759  0.0902 -0.0092
   97OSM     OF 9665   3.103   0.056  10.741  0.8807  0.0670  0.5226
   97OSM    C2F 9666   3.028  -0.093  10.564 -0.6410 -0.1642 -0.3407
   97OSM    H2F 9667   2.973  -0.174  10.617 -1.1297 -0.5841 -1.4567
   97OSM    H2G 9668   3.090  -0.138  10.484 -0.1457 -0.0150 -0.0399
   97OSM    C3F 9669   2.939   0.020  10.508  0.4915  0.3852  0.3897
   97OSM    H3F 9670   2.896   0.086  10.586 -1.4615  0.4546 -0.7061
   97OSM    H3G 9671   2.848  -0.024  10.462  1.6620  0.8223 -2.4969
   97OSM    C4F 9672   3.013   0.120  10.412  0.3594  0.3920  0.0203
   97OSM    H4F 9673   3.060   0.061  10.330 -0.1241 -0.5968  0.4427
   97OSM    H4G 9674   3.096   0.157  10.476 -2.6374  1.5728  3.4243
   97OSM    C5F 9675   2.928   0.237  10.353 -0.2299  0.3625  0.2572
   97OSM    H5F 9676   2.892   0.293  10.442 -1.9834 -1.0440  0.4576
   97OSM    H5G 9677   2.838   0.202  10.300 -1.6094  0.4416  2.4699
   97OSM    C6F 9678   3.015   0.325  10.259  0.0875  0.9033 -0.4722
   97OSM    H6F 9679   3.101   0.365  10.316 -0.6556  0.8661  0.7002
   97OSM    H6G 9680   2.951   0.413  10.235 -0.5624  0.8501  0.9932
   97OSM    C7F 9681   3.071   0.267  10.128 -0.3977 -0.8130  0.1103
   97OSM    H7F 9682   2.979   0.231  10.077 -0.4752 -0.4277 -0.0188
   97OSM    H7G 9683   3.132   0.179  10.158  0.1245  0.2927  2.3755
   97OSM    C8F 9684   3.142   0.360  10.035 -0.2701 -0.5752  0.2779
   97OSM    H8F 9685   3.227   0.402  10.093 -0.4638 -1.3833  1.1616
   97OSM    H8G 9686   3.075   0.447  10.019  0.4510 -0.2124 -0.7847
   97OSM    C9F 9687   3.198   0.295   9.912 -0.6483 -0.0389  0.8943
   97OSM    H9F 9688   3.295   0.244   9.922 -1.3999 -2.1591 -2.0210
   97OSM   C10F 9689   3.129   0.290   9.794 -0.2771 -0.4379  0.4603
   97OSM   H10F 9690   3.182   0.244   9.709 -3.1447 -0.2793 -1.4932
   97OSM   C11F 9691   2.993   0.330   9.748  0.3612 -0.6164  0.4903
   97OSM   H11F 9692   2.922   0.342   9.833  1.3619  1.3343  1.0661
   97OSM   H11G 9693   2.945   0.248   9.689  1.0906 -0.0569 -0.9027
   97OSM   C12F 9694   3.005   0.458   9.660  0.3740  0.4492  0.3391
   97OSM   H12F 9695   3.061   0.526   9.727  1.0625 -0.1288  0.3543
   97OSM   H12G 9696   2.908   0.505   9.633  0.1171 -1.7167 -2.8987
   97OSM   C13F 9697   3.079   0.430   9.530 -0.2279  0.2300  0.7638
   97OSM   H13F 9698   3.176   0.377   9.546  0.7601  1.9953  0.7328
   97OSM   H13G 9699   3.097   0.522   9.471 -1.6051 -0.0056 -0.0335
   97OSM   C14F 9700   3.006   0.336   9.435 -0.1391  0.0706 -0.4736
   97OSM   H14F 9701   3.021   0.234   9.477 -0.3607 -0.1606 -0.9511
   97OSM   H14G 9702   3.059   0.330   9.338 -1.3038 -2.4967 -1.0043
   97OSM   C15F 9703   2.847   0.358   9.406 -0.3982  0.2146 -0.2618
   97OSM   H15F 9704   2.782   0.338   9.495 -1.2619  0.2958 -0.8678
   97OSM   H15G 9705   2.823   0.282   9.329  1.6908 -1.0707  0.3233
   97OSM   C16F 9706   2.839   0.503   9.358 -1.1753  0.1150 -0.3271
   97OSM   H16F 9707   2.898   0.564   9.429 -0.4064 -1.0164  0.0270
   97OSM   H16G 9708   2.732   0.528   9.345 -1.5010 -0.2668  1.4476
   97OSM   C17F 9709   2.894   0.529   9.212  0.3560 -1.0316 -0.5102
   97OSM   H17F 9710   2.852   0.460   9.136 -0.6790 -1.7407  0.6773
   97OSM   H17G 9711   3.004   0.529   9.203  0.6059  2.0586  1.6516
   97OSM   C18F 9712   2.860   0.673   9.168 -0.2317 -0.2607 -0.1653
   97OSM   H18F 9713   2.914   0.693   9.073 -1.3760  1.5870 -0.4573
   97OSM   H18G 9714   2.905   0.735   9.248 -0.5253  0.6397 -0.6887
   97OSM   H18H 9715   2.752   0.694   9.153 -0.3366  1.1479  2.2927
   98OSM      N 9716   2.910   6.760  11.039  0.2764 -0.6842 -0.0346
   98OSM    C15 9717   3.020   6.826  11.123 -0.1407  0.2252  0.1318
   98OSM   H15A 9718   2.970   6.891  11.194  0.0657  0.9389 -0.3738
   98OSM   H15B 9719   3.084   6.888  11.062  0.1586 -0.8132 -0.6083
   98OSM   H15C 9720   3.054   6.745  11.186 -1.7315  0.5351  1.4318
   98OSM    C14 9721   2.811   6.681  11.117 -0.2043 -0.3024 -0.1822
   98OSM   H14A 9722   2.748   6.618  11.056 -0.7777  0.4503 -0.3728
   98OSM   H14B 9723   2.755   6.738  11.190  0.6449  0.1540  0.1231
   98OSM   H14C 9724   2.863   6.603  11.170 -0.6571 -1.1199 -0.9397
   98OSM    C13 9725   2.832   6.863  10.961  0.2132 -0.4680 -0.3076
   98OSM   H13A 9726   2.756   6.811  10.903 -1.1129 -1.5465  2.3064
   98OSM   H13B 9727   2.893   6.923  10.896  0.5336 -0.0074  0.4207
   98OSM   H13C 9728   2.783   6.929  11.031  1.1699  0.0568 -0.1231
   98OSM    C12 9729   2.972   6.683  10.924 -1.4303 -0.9906  0.0129
   98OSM   H12A 9730   3.052   6.737  10.876  0.1482 -1.1171  2.3879
   98OSM   H12B 9731   2.904   6.663  10.842 -1.8058  1.6755 -0.3535
   98OSM    C11 9732   3.028   6.541  10.957  0.3406 -0.1105 -1.4308
   98OSM   H11A 9733   2.950   6.466  10.983  1.1950 -0.4227  0.3443
   98OSM   H11B 9734   3.090   6.549  11.049 -1.6914 -4.8850  0.5670
   98OSM      P 9735   3.177   6.356  10.852 -0.0683  0.2101 -0.4366
   98OSM    O13 9736   3.274   6.352  10.743  0.4141 -0.6122 -0.0498
   98OSM    O14 9737   3.219   6.322  10.990 -0.4625  0.2850 -0.3678
   98OSM    O11 9738   3.049   6.277  10.818  0.1581  0.2084 -0.1705
   98OSM    O12 9739   3.113   6.497  10.851 -0.0163 -0.3952  0.4134
   98OSM    C1S 9740   2.948   6.323  10.726  0.7121 -0.3122  0.6509
   98OSM    H1S 9741   2.974   6.415  10.668 -1.3117 -0.3417 -0.3553
   98OSM    H1T 9742   2.862   6.357  10.789  1.2089  0.4932  0.9061
   98OSM     NF 9743   2.859   6.306  10.496  0.4425 -0.1318 -0.3324
   98OSM    HNF 9744   2.770   6.350  10.503  0.0407 -0.9213 -0.3813
   98OSM    C2S 9745   2.911   6.225  10.615  0.1956 -0.7182 -0.9042
   98OSM    H2S 9746   3.005   6.174  10.583 -0.2915 -0.9364 -2.0227
   98OSM    C3S 9747   2.812   6.128  10.676  0.3340  0.3880  0.5832
   98OSM    H3S 9748   2.715   6.178  10.695 -0.5871 -0.8251 -0.8267
   98OSM     O3 9749   2.847   6.086  10.806  0.0402 -0.3069 -0.4721
   98OSM    HO3 9750   2.921   6.146  10.819  2.2090 -2.5004 -2.1831
   98OSM    C4S 9751   2.782   6.013  10.579 -0.2124 -0.2665  0.1975
   98OSM    H4S 9752   2.697   6.036  10.514  0.8868 -1.0176 -1.5226
   98OSM    C5S 9753   2.848   5.891  10.571  0.0208  0.4574  0.3023
   98OSM    H5S 9754   2.913   5.861  10.655 -0.8616 -0.0254  0.8177
   98OSM    C6S 9755   2.804   5.778  10.491 -0.9678  0.3277  0.5083
   98OSM    H6S 9756   2.715   5.808  10.431  0.4479  3.1955 -0.2213
   98OSM    H6T 9757   2.765   5.702  10.562 -1.0537 -0.0171  0.0944
   98OSM    C7S 9758   2.916   5.714  10.404  0.3474 -0.2033 -0.0386
   98OSM    H7S 9759   2.992   5.678  10.476 -2.7296 -2.7154  2.1006
   98OSM    H7T 9760   2.972   5.784  10.338  0.2475  0.0953  0.1906
   98OSM    C8S 9761   2.868   5.595  10.313  0.1161 -0.2095  0.7561
   98OSM    H8S 9762   2.859   5.506  10.380 -0.5145 -3.4322 -3.3851
   98OSM    H8T 9763   2.958   5.570  10.253 -1.0428 -0.5520 -0.8962
   98OSM    C9S 9764   2.748   5.616  10.222 -0.2882  0.0469  0.9187
   98OSM    H9S 9765   2.764   5.711  10.165 -1.8361  0.5330  1.2564
   98OSM    H9T 9766   2.654   5.627  10.280 -1.9984 -0.8593 -1.5602
   98OSM   C10S 9767   2.712   5.514  10.115  0.1226  0.4035  0.8002
   98OSM   H10S 9768   2.803   5.461  10.080  0.8774  1.0195  1.8047
   98OSM   H10T 9769   2.658   5.575  10.039 -2.8297 -1.0229  1.6710
   98OSM   C11S 9770   2.601   5.412  10.158  0.8751  0.2650 -0.2655
   98OSM   H11S 9771   2.513   5.477  10.175  1.6840  1.8591 -1.9992
   98OSM   H11T 9772   2.630   5.368  10.256 -0.7698  0.1138  0.1602
   98OSM   C12S 9773   2.569   5.307  10.051  0.3085 -0.3175 -0.2564
   98OSM   H12S 9774   2.659   5.244  10.036  0.8465 -0.0705  1.7174
   98OSM   H12T 9775   2.536   5.355   9.957 -0.7088  0.6579  0.5787
   98OSM   C13S 9776   2.461   5.209  10.094  0.6800 -0.7627 -0.1983
   98OSM   H13S 9777   2.366   5.265  10.111 -0.1470 -2.0884 -0.3863
   98OSM   H13T 9778   2.487   5.147  10.182  1.5283 -0.0746  0.0444
   98OSM   C14S 9779   2.427   5.120   9.969  1.1512  0.5130  0.0717
   98OSM   H14S 9780   2.494   5.032   9.980  0.7119  0.1523 -0.1118
   98OSM   H14T 9781   2.444   5.159   9.867 -0.8491 -0.3619 -0.6276
   98OSM   C15S 9782   2.284   5.071   9.961 -0.2076 -0.2255  0.8448
   98OSM   H15S 9783   2.288   4.988   9.887 -0.0172  1.1063 -0.6666
   98OSM   H15T 9784   2.220   5.156   9.930 -1.3942 -1.1459  0.7310
   98OSM   C16S 9785   2.225   5.015  10.085 -0.2306  0.8752 -0.2222
   98OSM   H16S 9786   2.257   5.074  10.174 -1.3522 -3.1807  3.0433
   98OSM   H16T 9787   2.266   4.914  10.106  0.0386  0.9621 -0.3284
   98OSM   C17S 9788   2.080   4.978  10.069  0.3349 -0.4489 -0.6679
   98OSM   H17S 9789   2.051   4.925   9.976 -0.1994  1.6788 -1.7361
   98OSM   H17T 9790   2.019   5.071  10.063 -1.6631 -1.8320 -2.2070
   98OSM   C18S 9791   2.024   4.918  10.199 -0.5492  0.5768 -0.4442
   98OSM   H18S 9792   2.060   4.815  10.215 -0.5965  0.7230  0.6693
   98OSM   H18T 9793   1.915   4.901  10.185 -0.2569 -2.0162  0.2954
   98OSM   H18U 9794   2.031   4.984  10.289 -1.9766 -2.1535  1.7409
   98OSM    C1F 9795   2.942   6.378  10.426  0.4118 -0.8836 -0.2515
   98OSM     OF 9796   3.063   6.359  10.431 -0.1077 -0.5916 -0.2751
   98OSM    C2F 9797   2.883   6.481  10.336  0.5360  0.3997  0.5817
   98OSM    H2F 9798   2.833   6.556  10.400 -0.0527  0.6828 -0.2078
   98OSM    H2G 9799   2.802   6.437  10.274 -0.3997 -0.0495  2.0910
   98OSM    C3F 9800   2.986   6.542  10.247  0.8261 -0.8498 -0.0001
   98OSM    H3F 9801   3.072   6.573  10.310 -0.7166 -2.5743  3.0416
   98OSM    H3G 9802   2.944   6.629  10.192 -0.4944 -1.1094  0.5666
   98OSM    C4F 9803   3.036   6.447  10.127  0.2693  0.6293  0.6032
   98OSM    H4F 9804   2.969   6.384  10.064  1.0791 -0.6834  1.0387
   98OSM    H4G 9805   3.099   6.374  10.181  2.2580 -0.6832 -3.2873
   98OSM    C5F 9806   3.127   6.521  10.038 -0.0884 -0.6008 -0.5417
   98OSM    H5F 9807   3.167   6.449   9.964  1.2238  0.9508 -1.3860
   98OSM    H5G 9808   3.216   6.545  10.101 -0.3869 -0.0593 -0.3250
   98OSM    C6F 9809   3.087   6.644   9.959 -0.3002 -0.1221 -0.3646
   98OSM    H6F 9810   3.171   6.673   9.892  0.5356  0.1504  0.7849
   98OSM    H6G 9811   3.069   6.720  10.037 -0.3451 -0.6560  0.1486
   98OSM    C7F 9812   2.956   6.623   9.885 -0.6797  0.2649 -0.2478
   98OSM    H7F 9813   2.871   6.602   9.954  0.7853  0.5848  1.6948
   98OSM    H7G 9814   2.970   6.533   9.821  2.8026  0.2744  0.4460
   98OSM    C8F 9815   2.931   6.753   9.804 -0.8568  0.2677  0.4669
   98OSM    H8F 9816   3.018   6.745   9.735  0.3888  2.9492  1.6838
   98OSM    H8G 9817   2.923   6.852   9.852 -1.4287  0.3514  0.2058
   98OSM    C9F 9818   2.793   6.739   9.747 -0.6873 -0.1362  0.0746
   98OSM    H9F 9819   2.705   6.725   9.811 -2.9545  0.4494 -2.8132
   98OSM   C10F 9820   2.759   6.700   9.620 -0.0031 -0.4685  0.7885
   98OSM   H10F 9821   2.654   6.679   9.597 -0.2080  0.5517  0.8071
   98OSM   C11F 9822   2.855   6.654   9.512 -0.0981  0.6159 -0.9493
   98OSM   H11F 9823   2.830   6.551   9.478  1.8377 -0.7375  1.5826
   98OSM   H11G 9824   2.962   6.659   9.541 -0.9638  0.7030  2.4296
   98OSM   C12F 9825   2.840   6.753   9.395 -0.7994  0.3488 -0.4475
   98OSM   H12F 9826   2.918   6.731   9.319 -2.1565  0.4585 -1.9087
   98OSM   H12G 9827   2.865   6.849   9.444  0.2999 -0.4986  0.6770
   98OSM   C13F 9828   2.699   6.748   9.324 -0.7487 -0.3776 -0.6110
   98OSM   H13F 9829   2.634   6.731   9.413  0.8089  3.6366  1.4511
   98OSM   H13G 9830   2.690   6.653   9.269  2.7348 -0.1751 -1.6367
   98OSM   C14F 9831   2.647   6.875   9.258  0.2295 -0.5990 -0.8605
   98OSM   H14F 9832   2.712   6.959   9.293 -0.9350  0.7555 -1.9272
   98OSM   H14G 9833   2.539   6.894   9.275  0.6488  0.4790  0.6751
   98OSM   C15F 9834   2.665   6.872   9.106 -0.4251  0.4423  0.1307
   98OSM   H15F 9835   2.574   6.839   9.051  0.4581 -2.3414  0.2851
   98OSM   H15G 9836   2.743   6.798   9.078  2.2910  2.8990  0.9699
   98OSM   C16F 9837   2.712   7.012   9.052  0.6365 -0.5456 -0.5297
   98OSM   H16F 9838   2.822   7.024   9.067  0.6851  0.5576 -1.6900
   98OSM   H16G 9839   2.670   7.100   9.106  0.5417 -0.3317 -0.9524
   98OSM   C17F 9840   2.688   7.022   8.899 -0.0594  0.3019 -0.1441
   98OSM   H17F 9841   2.733   6.931   8.854 -0.4357  0.9966 -1.9791
   98OSM   H17G 9842   2.743   7.114   8.868  2.5949 -1.0372  0.4674
   98OSM   C18F 9843   2.543   7.033   8.855  0.1151  0.2527 -0.7432
   98OSM   H18F 9844   2.496   7.099   8.932  0.7869 -0.1825  0.0426
   98OSM   H18G 9845   2.500   6.931   8.865  2.6950 -0.6576  1.8509
   98OSM   H18H 9846   2.532   7.084   8.757 -2.5629 -0.3130 -0.7721
   99OSM      N 9847   5.153   0.640  11.036  0.5370 -0.1196 -0.0575
   99OSM    C15 9848   5.062   0.595  10.935 -0.4048 -0.4335  0.1296
   99OSM   H15A 9849   4.960   0.601  10.970 -0.3791 -0.6716  0.2423
   99OSM   H15B 9850   5.095   0.501  10.893 -0.8408  0.4257 -2.2506
   99OSM   H15C 9851   5.074   0.663  10.851  0.9356 -0.9823 -0.1444
   99OSM    C14 9852   5.157   0.787  11.065 -0.1252 -0.9466 -0.6191
   99OSM   H14A 9853   5.185   0.845  10.978 -0.6808 -0.5206 -0.5227
   99OSM   H14B 9854   5.228   0.813  11.142  0.1044  1.2154 -1.5191
   99OSM   H14C 9855   5.065   0.833  11.100  0.3541 -3.1274  3.7637
   99OSM    C13 9856   5.117   0.554  11.160 -0.2717  0.4787 -0.1111
   99OSM   H13A 9857   5.087   0.458  11.122 -1.4666  0.3074  1.1977
   99OSM   H13B 9858   5.036   0.594  11.220 -0.4301  1.1012 -0.7369
   99OSM   H13C 9859   5.202   0.538  11.225 -0.5215  1.6862  0.5353
   99OSM    C12 9860   5.293   0.607  10.986  0.0579  0.0991  1.2094
   99OSM   H12A 9861   5.366   0.662  11.043  0.6842 -1.0311  1.4975
   99OSM   H12B 9862   5.307   0.658  10.892 -1.7875 -0.0699  0.8176
   99OSM    C11 9863   5.322   0.454  10.986 -0.5099 -0.4019 -0.3278
   99OSM   H11A 9864   5.297   0.403  11.081 -1.0222 -3.9020 -2.2568
   99OSM   H11B 9865   5.433   0.449  10.981 -0.4492 -1.1994  1.5510
   99OSM      P 9866   5.245   0.231  10.884  0.0526  0.2344  0.2145
   99OSM    O13 9867   5.365   0.183  10.956 -0.0836  0.0957 -0.0618
   99OSM    O14 9868   5.118   0.206  10.952  0.1878 -0.0543  0.4247
   99OSM    O11 9869   5.242   0.189  10.729 -0.2086 -0.3885 -0.6238
   99OSM    O12 9870   5.269   0.393  10.870  0.0261  0.1991  0.2553
   99OSM    C1S 9871   5.134   0.229  10.643  0.6844  0.6587 -0.0228
   99OSM    H1S 9872   5.160   0.334  10.615  0.1158  1.1303  1.2006
   99OSM    H1T 9873   5.035   0.209  10.689  0.6934 -2.1236 -1.1291
   99OSM     NF 9874   5.045   0.182  10.416 -0.2188  0.6565  0.0882
   99OSM    HNF 9875   4.963   0.126  10.410 -1.0092  1.6681  1.3847
   99OSM    C2S 9876   5.137   0.140  10.513 -0.4736 -0.1796  0.3278
   99OSM    H2S 9877   5.236   0.150  10.465 -0.7656  0.9472 -0.0596
   99OSM    C3S 9878   5.119  -0.016  10.540 -0.1154 -1.2876  0.7033
   99OSM    H3S 9879   5.016  -0.021  10.581  0.4907 -3.0389  2.1035
   99OSM     O3 9880   5.199  -0.064  10.645 -0.1076 -0.8997 -0.5463
   99OSM    HO3 9881   5.238   0.017  10.678 -2.0939  0.1869 -0.7849
   99OSM    C4S 9882   5.125  -0.091  10.415  0.0001 -0.3105 -0.5601
   99OSM    H4S 9883   5.024  -0.112  10.376  0.3523 -0.9636 -1.1360
   99OSM    C5S 9884   5.235  -0.135  10.348 -0.3841  0.5333  0.2825
   99OSM    H5S 9885   5.335  -0.132  10.393 -0.6266 -1.3672  1.0198
   99OSM    C6S 9886   5.226  -0.209  10.218  0.6376  0.0120 -0.0058
   99OSM    H6S 9887   5.176  -0.307  10.234  1.2608 -0.7406 -2.5589
   99OSM    H6T 9888   5.331  -0.237  10.195  0.7913  0.9832 -0.5339
   99OSM    C7S 9889   5.158  -0.126  10.108  0.1327  0.0035  0.0189
   99OSM    H7S 9890   5.224  -0.037  10.101 -0.5334  0.6516  1.7883
   99OSM    H7T 9891   5.054  -0.096  10.132  0.8445  1.6584  1.1029
   99OSM    C8S 9892   5.146  -0.211   9.976  0.2432 -0.0556 -0.7780
   99OSM    H8S 9893   5.045  -0.258   9.978 -0.0181  0.5361  0.3689
   99OSM    H8T 9894   5.210  -0.301   9.976  0.2491 -0.0584 -0.0333
   99OSM    C9S 9895   5.157  -0.122   9.849 -0.2044  0.2255  0.0884
   99OSM    H9S 9896   5.244  -0.052   9.858 -0.6915  1.0168 -1.2077
   99OSM    H9T 9897   5.070  -0.053   9.842 -2.1965 -2.1591  0.9815
   99OSM   C10S 9898   5.158  -0.196   9.718 -0.4232 -0.4510 -1.0634
   99OSM   H10S 9899   5.075  -0.266   9.696 -0.6326 -0.8090  0.7765
   99OSM   H10T 9900   5.247  -0.263   9.713 -2.3609 -3.3825  1.4695
   99OSM   C11S 9901   5.166  -0.096   9.602  0.1041 -0.1292  0.1113
   99OSM   H11S 9902   5.263  -0.041   9.611 -1.6063  2.8700  0.8834
   99OSM   H11T 9903   5.085  -0.020   9.607 -0.4167 -0.6863  0.2274
   99OSM   C12S 9904   5.144  -0.153   9.460  0.2915 -0.3981  0.7102
   99OSM   H12S 9905   5.212  -0.234   9.428  0.4421 -0.5892  1.5139
   99OSM   H12T 9906   5.043  -0.199   9.460 -0.7646  1.8539  1.6518
   99OSM   C13S 9907   5.163  -0.043   9.357 -0.4131  0.7083 -0.0263
   99OSM   H13S 9908   5.265  -0.006   9.383 -0.1767 -1.5999  2.6519
   99OSM   H13T 9909   5.089   0.037   9.378 -0.3695  0.7539 -0.0462
   99OSM   C14S 9910   5.142  -0.088   9.218 -0.0921 -0.2417 -0.0985
   99OSM   H14S 9911   5.039  -0.129   9.205 -0.1033 -0.6680  1.2081
   99OSM   H14T 9912   5.212  -0.167   9.186  1.9154  0.9091  1.3315
   99OSM   C15S 9913   5.140   0.027   9.114  0.1860  0.3807  0.0072
   99OSM   H15S 9914   5.231   0.091   9.124 -0.0102  0.7673 -0.6509
   99OSM   H15T 9915   5.054   0.096   9.122 -0.5162 -0.6607  1.6297
   99OSM   C16S 9916   5.137  -0.019   8.966  0.3456  0.0964 -0.4770
   99OSM   H16S 9917   5.163  -0.127   8.957 -0.8163 -0.4073  1.8583
   99OSM   H16T 9918   5.221   0.034   8.917  0.1274  0.9205  0.0231
   99OSM   C17S 9919   5.010   0.023   8.888 -0.6414  0.1724 -0.0548
   99OSM   H17S 9920   5.019  -0.026   8.788 -1.6137  1.1915 -0.6533
   99OSM   H17T 9921   5.005   0.133   8.877 -0.7186  0.3130  1.3239
   99OSM   C18S 9922   4.876  -0.019   8.951 -0.5698  0.0052  0.1690
   99OSM   H18S 9923   4.785  -0.006   8.888 -0.1668  0.3560 -0.3378
   99OSM   H18T 9924   4.855   0.053   9.032 -1.9779 -0.5414  0.3057
   99OSM   H18U 9925   4.888  -0.125   8.982  0.6818  0.0544 -0.1090
   99OSM    C1F 9926   5.055   0.296  10.346 -0.2160  0.5484 -0.6129
   99OSM     OF 9927   5.146   0.377  10.366  0.5784 -0.4664  0.5588
   99OSM    C2F 9928   4.943   0.329  10.250  0.5193 -0.8948  0.1146
   99OSM    H2F 9929   4.959   0.436  10.226  0.8288 -0.2517  2.9653
   99OSM    H2G 9930   4.846   0.311  10.301  1.0195  1.0790  1.8096
   99OSM    C3F 9931   4.946   0.230  10.131 -0.9708  0.5740  0.3119
   99OSM    H3F 9932   4.896   0.135  10.158 -0.3569  0.4513  1.0375
   99OSM    H3G 9933   4.878   0.272  10.053 -0.8083 -0.7237 -0.5385
   99OSM    C4F 9934   5.082   0.213  10.061  0.0332  0.6602 -0.2244
   99OSM    H4F 9935   5.078   0.112  10.014 -1.6951  0.6771 -0.1190
   99OSM    H4G 9936   5.164   0.216  10.136  1.8132  0.9539 -2.1158
   99OSM    C5F 9937   5.124   0.306   9.946  0.4843  0.0324 -0.2310
   99OSM    H5F 9938   5.136   0.409   9.987  2.7395 -1.2239  2.3728
   99OSM    H5G 9939   5.045   0.297   9.868  0.6359 -0.0748 -0.3718
   99OSM    C6F 9940   5.270   0.271   9.892  1.1146  0.0602 -0.6054
   99OSM    H6F 9941   5.272   0.170   9.845  0.2104 -1.4699  2.4626
   99OSM    H6G 9942   5.344   0.269   9.975  0.0169  1.2421  0.4223
   99OSM    C7F 9943   5.317   0.383   9.796  0.2401 -0.0157 -0.4177
   99OSM    H7F 9944   5.419   0.376   9.753 -0.3568  1.1286 -2.0526
   99OSM    H7G 9945   5.310   0.472   9.862 -2.5242  0.1686 -0.8780
   99OSM    C8F 9946   5.234   0.401   9.669 -0.4075 -0.0950  0.1329
   99OSM    H8F 9947   5.260   0.497   9.620 -1.8179  1.6958  2.7532
   99OSM    H8G 9948   5.124   0.396   9.686 -0.9794  2.3320 -2.4338
   99OSM    C9F 9949   5.263   0.288   9.571 -0.7937 -0.3625 -0.9859
   99OSM    H9F 9950   5.224   0.193   9.609 -3.0160  0.8418 -0.1597
   99OSM   C10F 9951   5.341   0.279   9.462 -0.6651 -0.0562 -0.5591
   99OSM   H10F 9952   5.351   0.185   9.405  2.5415  0.4656 -0.9329
   99OSM   C11F 9953   5.415   0.394   9.401 -0.1515  0.5514  0.0203
   99OSM   H11F 9954   5.499   0.364   9.335 -0.7232 -0.9053 -0.0653
   99OSM   H11G 9955   5.444   0.467   9.480  0.1559  0.9255 -0.4347
   99OSM   C12F 9956   5.328   0.479   9.300 -0.5117  0.3052 -0.2958
   99OSM   H12F 9957   5.370   0.578   9.271  1.4442 -0.7038 -1.0331
   99OSM   H12G 9958   5.232   0.501   9.351  0.6347 -0.8041  2.4381
   99OSM   C13F 9959   5.299   0.404   9.165  0.2772 -0.6573 -0.2030
   99OSM   H13F 9960   5.259   0.304   9.191 -1.3256  0.1489  0.5198
   99OSM   H13G 9961   5.395   0.389   9.112  0.6105  0.9227 -0.0710
   99OSM   C14F 9962   5.190   0.467   9.085 -0.3091 -1.1433 -0.7667
   99OSM   H14F 9963   5.230   0.564   9.050  0.9612 -0.7345  1.7074
   99OSM   H14G 9964   5.113   0.498   9.159  0.5208  1.5935 -1.0237
   99OSM   C15F 9965   5.131   0.381   8.977 -0.6681 -0.1011  0.2901
   99OSM   H15F 9966   5.059   0.303   9.011 -1.9158  0.6982 -0.4857
   99OSM   H15G 9967   5.204   0.326   8.914 -2.0189 -0.4220 -1.0395
   99OSM   C16F 9968   5.058   0.472   8.874 -0.3547  0.1750 -0.4780
   99OSM   H16F 9969   5.124   0.528   8.804 -0.1059  0.0304 -0.3579
   99OSM   H16G 9970   5.004   0.544   8.939 -0.7704 -0.4823 -0.0886
   99OSM   C17F 9971   4.942   0.413   8.789  0.0542 -0.3015 -0.3198
   99OSM   H17F 9972   4.892   0.503   8.747 -0.4272 -1.0284 -1.3333
   99OSM   H17G 9973   4.867   0.356   8.848  0.7646 -0.5357  0.3575
   99OSM   C18F 9974   4.989   0.315   8.674  0.2737  0.3469 -0.1064
   99OSM   H18F 9975   5.074   0.256   8.715  0.8417  0.5265 -1.0092
   99OSM   H18G 9976   5.027   0.361   8.581 -2.4718  3.6367  0.3035
   99OSM   H18H 9977   4.906   0.245   8.650  1.0897 -0.6665  0.0132
  100OSM      N 9978   0.087   0.852  11.067  0.6543 -0.3362 -0.4372
  100OSM    C15 9979   0.088   0.970  11.164 -0.3955 -0.4332 -0.3972
  100OSM   H15A 9980   0.174   1.034  11.155 -1.3092  0.6098 -1.9109
  100OSM   H15B 9981   0.081   0.942  11.268  0.9967  3.3312  0.7675
  100OSM   H15C 9982  -0.001   1.026  11.137  0.2437  0.5743 -0.4365
  100OSM    C14 9983  -0.040   0.776  11.076 -0.0694 -0.2848  0.4012
  100OSM   H14A 9984  -0.052   0.683  11.024 -0.8830 -1.0688  1.9457
  100OSM   H14B 9985  -0.128   0.836  11.055  0.5896  1.3946  2.1831
  100OSM   H14C 9986  -0.061   0.765  11.181  0.7106  1.1403  0.7254
  100OSM    C13 9987   0.100   0.911  10.932  0.3423 -0.2635  0.3080
  100OSM   H13A 9988   0.082   0.832  10.859 -0.2144  1.8683 -1.9467
  100OSM   H13B 9989   0.199   0.950  10.916 -0.2946  1.2919  0.0540
  100OSM   H13C 9990   0.037   0.996  10.910  2.2361  1.0972  0.0406
  100OSM    C12 9991   0.197   0.757  11.111 -0.6353 -0.2233 -0.3281
  100OSM   H12A 9992   0.233   0.783  11.210 -0.3785  0.0241 -0.4840
  100OSM   H12B 9993   0.281   0.787  11.050 -0.7995 -0.9927 -0.9304
  100OSM    C11 9994   0.187   0.605  11.085 -0.3175 -0.6406  0.3604
  100OSM   H11A 9995   0.105   0.547  11.133  0.8882 -1.0510  1.9607
  100OSM   H11B 9996   0.282   0.555  11.114 -0.4890 -1.2928 -0.1859
  100OSM      P 9997   0.317   0.602  10.858 -0.0454  0.6317  0.1441
  100OSM    O13 9998   0.408   0.703  10.920 -0.0457 -0.0839  0.3145
  100OSM    O14 9999   0.370   0.462  10.838  0.0607 -0.1039  0.1832
  100OSM    O1110000   0.268   0.654  10.718 -0.6516  0.1141 -0.4920
  100OSM    O1210001   0.180   0.590  10.943  0.2066 -0.0041  0.5192
  100OSM    C1S10002   0.349   0.721  10.621  1.1213 -0.0380 -0.1684
  100OSM    H1S10003   0.428   0.648  10.592  2.1193  1.9758 -2.7206
  100OSM    H1T10004   0.393   0.819  10.649 -0.0016  0.3066  0.4287
  100OSM     NF10005   0.344   0.811  10.386 -0.2550  0.2289 -0.2917
  100OSM    HNF10006   0.372   0.907  10.388  0.3298  0.0625 -0.5525
  100OSM    C2S10007   0.263   0.755  10.492  0.0892 -0.3361  0.0923
  100OSM    H2S10008   0.215   0.663  10.453  0.3987 -0.4265 -0.0716
  100OSM    C3S10009   0.158   0.853  10.555 -0.1518  0.0655 -0.2428
  100OSM    H3S10010   0.217   0.938  10.594 -2.3450  0.9384  1.2546
  100OSM     O310011   0.069   0.799  10.653 -0.2082  0.0564  0.4632
  100OSM    HO310012   0.109   0.716  10.680 -1.7775 -0.7668  0.2949
  100OSM    C4S10013   0.068   0.908  10.440 -0.0164 -0.5170 -0.5575
  100OSM    H4S10014  -0.007   0.840  10.399 -0.7655 -0.6904  1.0427
  100OSM    C5S10015   0.071   1.041  10.414 -0.1549  0.1670 -0.1445
  100OSM    H5S10016   0.137   1.112  10.466 -1.1303  0.2468  0.9933
  100OSM    C6S10017  -0.021   1.109  10.317 -0.1423 -0.2831  0.4907
  100OSM    H6S10018  -0.066   1.203  10.357  1.9681  1.8026 -1.8711
  100OSM    H6T10019  -0.102   1.038  10.289 -1.2977  1.5950 -1.0841
  100OSM    C7S10020   0.054   1.137  10.187 -0.4322  0.4390  0.1241
  100OSM    H7S10021   0.106   1.053  10.136 -0.0527  1.1868 -0.7282
  100OSM    H7T10022   0.131   1.212  10.215 -0.5468  1.4519 -2.2336
  100OSM    C8S10023  -0.027   1.209  10.077  0.4857  0.2474  0.5990
  100OSM    H8S10024  -0.048   1.312  10.114  0.3819  0.4902 -0.1222
  100OSM    H8T10025  -0.125   1.164  10.054  0.3909  1.1351 -0.8491
  100OSM    C9S10026   0.051   1.219   9.941  0.9982  0.8776 -0.6860
  100OSM    H9S10027   0.104   1.131   9.900  0.7736  0.6099 -0.4102
  100OSM    H9T10028   0.134   1.289   9.964  0.8651  0.6940  0.3768
  100OSM   C10S10029  -0.027   1.292   9.827 -0.1471 -0.7186 -0.1307
  100OSM   H10S10030  -0.097   1.362   9.878 -0.6581 -1.5646  0.3607
  100OSM   H10T10031  -0.094   1.231   9.763  0.6569  1.9098 -3.5826
  100OSM   C11S10032   0.080   1.344   9.725 -0.3279  0.0480 -0.5743
  100OSM   H11S10033   0.139   1.258   9.687  2.1665  0.9230  1.1803
  100OSM   H11T10034   0.142   1.429   9.760  0.8432 -1.7052  1.7061
  100OSM   C12S10035   0.018   1.398   9.598  0.6266 -0.4550  0.8057
  100OSM   H12S10036  -0.024   1.499   9.617 -2.0282 -1.6348  1.3502
  100OSM   H12T10037  -0.061   1.328   9.565 -0.4809  1.1767 -0.1045
  100OSM   C13S10038   0.112   1.401   9.479 -0.3009  0.2004  0.0176
  100OSM   H13S10039   0.153   1.299   9.460 -0.4385  0.4977 -1.9967
  100OSM   H13T10040   0.201   1.460   9.512 -1.1362  1.8596 -0.6345
  100OSM   C14S10041   0.044   1.433   9.343  0.3299  0.3550  0.0496
  100OSM   H14S10042  -0.016   1.526   9.347 -0.5850 -0.2844  1.4642
  100OSM   H14T10043  -0.017   1.344   9.316  0.8130 -0.1428  0.6030
  100OSM   C15S10044   0.153   1.461   9.239 -0.0595  0.5525  0.7937
  100OSM   H15S10045   0.218   1.374   9.216 -0.4157  0.6011 -0.4613
  100OSM   H15T10046   0.225   1.534   9.283 -0.8048  0.8273  1.5721
  100OSM   C16S10047   0.087   1.526   9.112 -0.1317  0.6291  0.3171
  100OSM   H16S10048   0.015   1.607   9.135 -0.2971  1.0001 -1.4181
  100OSM   H16T10049   0.041   1.458   9.036  0.6991  1.3918 -0.8919
  100OSM   C17S10050   0.203   1.588   9.029 -0.1498 -0.5475 -0.3252
  100OSM   H17S10051   0.263   1.503   8.989  0.9996  0.2767 -0.4093
  100OSM   H17T10052   0.268   1.645   9.099  2.6138 -4.3128  0.3252
  100OSM   C18S10053   0.166   1.678   8.909  0.4245 -0.2198  0.0238
  100OSM   H18S10054   0.091   1.760   8.909 -0.6761 -1.2079 -0.6857
  100OSM   H18T10055   0.124   1.615   8.828 -0.7120 -0.8356  1.0881
  100OSM   H18U10056   0.261   1.731   8.883  0.7619 -1.3394 -1.1020
  100OSM    C1F10057   0.407   0.737  10.301  0.0333 -0.2296  0.2041
  100OSM     OF10058   0.402   0.619  10.302 -0.0321 -0.0725 -0.0046
  100OSM    C2F10059   0.484   0.809  10.190  0.4475  0.3622  0.1630
  100OSM    H2F10060   0.502   0.754  10.095 -1.8693 -0.2423  0.0473
  100OSM    H2G10061   0.587   0.841  10.218  0.3451  1.0195 -0.2093
  100OSM    C3F10062   0.408   0.935  10.138 -0.0243  0.0784  0.7251
  100OSM    H3F10063   0.414   1.024  10.204 -1.6189  1.3520 -0.8109
  100OSM    H3G10064   0.300   0.913  10.128 -0.1934  1.5203 -0.9590
  100OSM    C4F10065   0.482   0.988  10.012  0.5969  0.3312 -0.4432
  100OSM    H4F10066   0.593   0.992  10.017  0.5895 -0.0834  0.0179
  100OSM    H4G10067   0.451   1.092   9.987  1.7147  1.3070  2.1114
  100OSM    C5F10068   0.434   0.913   9.881  0.3866  0.8861  0.3954
  100OSM    H5F10069   0.323   0.913   9.893  0.5567 -1.0938  2.2586
  100OSM    H5G10070   0.456   0.804   9.888  0.1324  0.7805 -0.4262
  100OSM    C6F10071   0.480   0.970   9.746 -0.0906 -0.4778  0.3033
  100OSM    H6F10072   0.587   1.002   9.744 -1.4810  4.6664  1.1001
  100OSM    H6G10073   0.416   1.056   9.717  0.2867 -1.2283 -2.9646
  100OSM    C7F10074   0.454   0.873   9.627 -0.2115  0.3181 -0.0492
  100OSM    H7F10075   0.346   0.851   9.639 -0.1597  0.1343  0.0946
  100OSM    H7G10076   0.515   0.781   9.641 -1.4769 -0.6205 -0.6246
  100OSM    C8F10077   0.473   0.938   9.491  0.0841 -0.1691  0.4266
  100OSM    H8F10078   0.572   0.988   9.494 -0.4590  0.9469 -0.1372
  100OSM    H8G10079   0.386   1.006   9.485 -0.3494 -0.5597  1.9374
  100OSM    C9F10080   0.479   0.838   9.381 -0.1731 -0.0965  0.1375
  100OSM    H9F10081   0.550   0.755   9.393  0.4182  0.7326  2.5909
  100OSM   C10F10082   0.402   0.836   9.270  0.8597 -0.2460  0.3105
  100OSM   H10F10083   0.410   0.759   9.193 -0.6079 -0.0195 -0.0643
  100OSM   C11F10084   0.299   0.941   9.230 -0.3599 -0.4122 -0.5692
  100OSM   H11F10085   0.265   1.010   9.311  0.8571 -1.1645  0.6078
  100OSM   H11G10086   0.212   0.886   9.188 -1.5143 -0.3032  1.5657
  100OSM   C12F10087   0.340   1.029   9.110 -0.0895  0.6738  0.0727
  100OSM   H12F10088   0.379   0.962   9.031 -1.6715 -1.3005  0.9059
  100OSM   H12G10089   0.433   1.084   9.139  1.1866 -1.5139  0.2240
  100OSM   C13F10090   0.223   1.111   9.044  0.5964 -0.5275  0.3709
  100OSM   H13F10091   0.254   1.174   8.958 -0.1230 -0.5601  0.0868
  100OSM   H13G10092   0.175   1.167   9.127 -0.8945 -0.7657 -0.3191
  100OSM   C14F10093   0.098   1.027   9.000 -0.3662 -1.2727 -0.0699
  100OSM   H14F10094   0.042   0.985   9.086  0.8279 -3.3314 -0.2751
  100OSM   H14G10095   0.142   0.942   8.943  0.1190 -0.6492 -0.6373
  100OSM   C15F10096  -0.011   1.092   8.918 -1.4705 -0.2235 -0.0883
  100OSM   H15F10097   0.034   1.124   8.822  0.3879 -1.7221  0.2492
  100OSM   H15G10098  -0.044   1.189   8.962 -1.2481  0.6899 -1.8987
  100OSM   C16F10099  -0.131   1.003   8.886 -0.0701 -0.4063  0.5331
  100OSM   H16F10100  -0.194   0.985   8.976 -0.8700 -1.4229 -0.2216
  100OSM   H16G10101  -0.082   0.912   8.846  0.2910 -0.7065  1.6283
  100OSM   C17F10102  -0.225   1.069   8.788  1.4479  0.1052  0.6570
  100OSM   H17F10103  -0.167   1.102   8.699 -0.0180 -0.3963 -0.4865
  100OSM   H17G10104  -0.277   1.161   8.820  0.0869 -0.5659  0.4195
  100OSM   C18F10105  -0.339   0.979   8.728  0.2589  0.3094 -0.3356
  100OSM   H18F10106  -0.315   0.871   8.714  3.0359  0.4348  2.7875
  100OSM   H18G10107  -0.365   1.014   8.626  0.7296  0.0499 -0.5449
  100OSM   H18H10108  -0.427   0.987   8.796 -0.9260  2.0326 -2.0419
  101OSM      N10109   3.105   1.307  11.228  0.5170  0.5604  0.0020
  101OSM    C1510110   3.040   1.437  11.191 -0.3952 -0.2217  0.5723
  101OSM   H15A10111   2.948   1.424  11.137 -1.0059 -0.4713  1.6525
  101OSM   H15B10112   3.109   1.492  11.129  0.3733 -1.1626  0.5693
  101OSM   H15C10113   3.002   1.498  11.271 -0.3851  2.1022 -1.1631
  101OSM    C1410114   3.236   1.324  11.301  0.5020 -0.0740 -0.3634
  101OSM   H14A10115   3.220   1.357  11.403 -1.2995 -0.3818 -0.5331
  101OSM   H14B10116   3.293   1.394  11.242 -1.0398  0.9304 -0.6962
  101OSM   H14C10117   3.290   1.231  11.293 -0.9463 -0.9876  0.2639
  101OSM    C1310118   3.004   1.235  11.320 -0.1055 -0.0824 -0.3746
  101OSM   H13A10119   3.032   1.133  11.344 -2.8767 -1.4925 -2.8920
  101OSM   H13B10120   2.905   1.236  11.278 -0.4278  1.4674  0.3962
  101OSM   H13C10121   2.993   1.291  11.412 -0.1831  0.2952 -0.6142
  101OSM    C1210122   3.128   1.221  11.107 -0.4351  0.2785 -0.1459
  101OSM   H12A10123   3.031   1.202  11.062 -1.3882  0.3481  1.8310
  101OSM   H12B10124   3.159   1.120  11.127 -0.6613  0.2289 -0.0408
  101OSM    C1110125   3.230   1.275  11.001 -0.0595 -0.3119 -0.7472
  101OSM   H11A10126   3.207   1.379  10.970  2.0105 -0.0551 -1.4952
  101OSM   H11B10127   3.216   1.215  10.908 -0.3593  0.4669 -1.2089
  101OSM      P10128   3.460   1.146  11.052  0.3951  0.0816  0.2087
  101OSM    O1310129   3.598   1.187  11.089  0.3887  0.0679 -0.0591
  101OSM    O1410130   3.394   1.035  11.130 -0.1281 -0.3730  0.4073
  101OSM    O1110131   3.465   1.098  10.906  0.1533 -0.3952  0.1848
  101OSM    O1210132   3.359   1.269  11.048  0.1607 -0.0922 -0.0033
  101OSM    C1S10133   3.487   1.182  10.793 -0.1266  0.1389  0.1324
  101OSM    H1S10134   3.589   1.225  10.793 -0.0997  0.0743  0.0281
  101OSM    H1T10135   3.419   1.270  10.796 -0.8516 -0.4231  0.6301
  101OSM     NF10136   3.495   1.174  10.539  0.0699  0.2717 -0.0397
  101OSM    HNF10137   3.432   1.197  10.465 -1.0385 -2.5375 -0.0210
  101OSM    C2S10138   3.458   1.101  10.659 -0.1581  0.5731  0.8518
  101OSM    H2S10139   3.522   1.010  10.665  0.4063  0.6983 -2.2787
  101OSM    C3S10140   3.315   1.041  10.646 -0.1745 -0.2051  0.0458
  101OSM    H3S10141   3.246   1.127  10.661  0.6196  0.3247  0.6824
  101OSM     O310142   3.286   0.952  10.753 -0.1025  0.6378  0.0583
  101OSM    HO310143   3.365   0.961  10.808  0.5755 -1.5515 -0.5050
  101OSM    C4S10144   3.302   0.977  10.513  0.4209 -0.3817 -0.0259
  101OSM    H4S10145   3.219   1.020  10.454  0.6399 -0.3684 -0.3252
  101OSM    C5S10146   3.366   0.870  10.467 -0.1224  0.5170 -0.5522
  101OSM    H5S10147   3.431   0.811  10.534 -0.0373  0.0973 -1.0058
  101OSM    C6S10148   3.344   0.813  10.330  0.3167 -0.6254  0.1398
  101OSM    H6S10149   3.341   0.703  10.348 -1.2988 -1.1618 -3.0665
  101OSM    H6T10150   3.424   0.827  10.254 -2.4402  0.0947 -2.7575
  101OSM    C7S10151   3.203   0.827  10.257  0.0999 -0.6883 -0.6834
  101OSM    H7S10152   3.182   0.924  10.207 -0.3940  0.5417  1.8344
  101OSM    H7T10153   3.123   0.797  10.328  1.3924  0.8913  1.5092
  101OSM    C8S10154   3.194   0.729  10.146 -0.1613  0.3591 -0.1643
  101OSM    H8S10155   3.101   0.736  10.085  0.9445 -0.8730 -2.0263
  101OSM    H8T10156   3.199   0.622  10.176  0.8589  1.0255  2.2039
  101OSM    C9S10157   3.295   0.765  10.033 -0.0745  0.0671 -0.3325
  101OSM    H9S10158   3.385   0.699  10.044  0.2662  0.4979 -0.5118
  101OSM    H9T10159   3.334   0.869  10.036  1.9045 -0.6205 -1.1105
  101OSM   C10S10160   3.232   0.744   9.897  0.1917  0.1400 -0.6218
  101OSM   H10S10161   3.159   0.827   9.882  0.4512  0.9444  2.2042
  101OSM   H10T10162   3.166   0.655   9.895  0.3550  0.0377 -1.9135
  101OSM   C11S10163   3.340   0.736   9.787 -0.0426 -0.0134  0.4892
  101OSM   H11S10164   3.407   0.650   9.809 -0.0222 -0.0382  0.3297
  101OSM   H11T10165   3.405   0.824   9.807 -0.3251 -0.2932  2.7831
  101OSM   C12S10166   3.276   0.744   9.648 -0.7076 -0.4842  0.0391
  101OSM   H12S10167   3.238   0.846   9.626  1.3790  0.1704 -0.6214
  101OSM   H12T10168   3.187   0.677   9.644 -0.4072 -1.0931  2.4373
  101OSM   C13S10169   3.370   0.721   9.533 -0.1736  0.0658 -0.6647
  101OSM   H13S10170   3.400   0.614   9.544 -0.9302  0.0606  1.4108
  101OSM   H13T10171   3.458   0.787   9.552  1.6925 -1.5165 -3.3199
  101OSM   C14S10172   3.312   0.763   9.394  0.5793 -0.6001 -0.0710
  101OSM   H14S10173   3.289   0.871   9.387  3.4248  0.1094  0.8938
  101OSM   H14T10174   3.215   0.711   9.386  0.7044 -0.9293  0.5225
  101OSM   C15S10175   3.405   0.720   9.271 -0.0243 -0.1132 -0.0258
  101OSM   H15S10176   3.511   0.710   9.304 -0.0081 -0.5769 -0.2116
  101OSM   H15T10177   3.386   0.798   9.195  2.6808  0.1464 -0.4699
  101OSM   C16S10178   3.357   0.587   9.203  0.2032  0.4643  0.3715
  101OSM   H16S10179   3.416   0.571   9.110  1.2247 -0.9614  1.2685
  101OSM   H16T10180   3.248   0.591   9.183 -0.2017 -0.9604  2.1862
  101OSM   C17S10181   3.388   0.462   9.282 -0.7946 -0.6359 -0.3898
  101OSM   H17S10182   3.334   0.464   9.379 -1.7730  0.3726 -0.9475
  101OSM   H17T10183   3.495   0.466   9.311 -0.1882 -1.3855 -2.4356
  101OSM   C18S10184   3.351   0.335   9.202 -0.5247  0.2040 -0.0947
  101OSM   H18S10185   3.391   0.344   9.098  0.8210  0.2129  0.4156
  101OSM   H18T10186   3.240   0.344   9.205 -0.4722  0.2734  2.0087
  101OSM   H18U10187   3.378   0.233   9.237 -0.4354  0.8459  1.7462
  101OSM    C1F10188   3.620   1.218  10.509  0.2847 -0.1144 -0.6900
  101OSM     OF10189   3.713   1.193  10.584 -0.9847  0.1418  0.5196
  101OSM    C2F10190   3.637   1.300  10.385 -0.8096 -0.9385  0.0251
  101OSM    H2F10191   3.691   1.395  10.408 -0.5374 -1.1048  0.0806
  101OSM    H2G10192   3.538   1.313  10.337 -0.1286  0.6690 -1.0013
  101OSM    C3F10193   3.718   1.217  10.290  0.4051  0.5227 -0.9561
  101OSM    H3F10194   3.810   1.181  10.340 -0.0834  1.5467  0.7317
  101OSM    H3G10195   3.752   1.275  10.202  1.1473 -1.0229 -1.7038
  101OSM    C4F10196   3.637   1.107  10.237 -0.7794 -0.4794  0.5740
  101OSM    H4F10197   3.536   1.132  10.199  0.1522 -1.4072 -2.6829
  101OSM    H4G10198   3.623   1.022  10.308  2.1587  0.1353  1.9833
  101OSM    C5F10199   3.719   1.052  10.114  0.3519 -0.9373 -0.2710
  101OSM    H5F10200   3.820   1.019  10.145  1.1931  0.8870 -0.9644
  101OSM    H5G10201   3.737   1.140  10.048  0.4432 -0.8462 -0.1243
  101OSM    C6F10202   3.648   0.937  10.043  0.4168  0.4741  0.5475
  101OSM    H6F10203   3.625   0.863  10.123  2.7854 -2.7965 -1.6610
  101OSM    H6G10204   3.562   0.957   9.976  1.2221 -0.2598 -0.7149
  101OSM    C7F10205   3.740   0.856   9.953 -0.0263  0.8111 -0.4983
  101OSM    H7F10206   3.678   0.773   9.914 -0.2274 -0.3679  2.2218
  101OSM    H7G10207   3.821   0.808  10.012  0.7984  0.8346 -1.5974
  101OSM    C8F10208   3.815   0.935   9.852  0.1730 -0.3696 -0.0229
  101OSM    H8F10209   3.892   0.871   9.803  0.9176  0.2247  0.3598
  101OSM    H8G10210   3.865   1.024   9.896 -0.5187  1.3373 -2.6087
  101OSM    C9F10211   3.727   0.975   9.741 -0.2661 -0.4478  0.2395
  101OSM    H9F10212   3.673   1.070   9.749 -1.5958 -1.0599 -1.0899
  101OSM   C10F10213   3.694   0.895   9.637  0.7344  0.2023 -0.4395
  101OSM   H10F10214   3.622   0.931   9.562  0.0984 -0.8355 -0.3389
  101OSM   C11F10215   3.745   0.754   9.607 -0.5655 -0.3842  0.6089
  101OSM   H11F10216   3.674   0.671   9.630 -0.4623 -0.4779  0.5856
  101OSM   H11G10217   3.827   0.722   9.675  0.5710 -2.1870 -1.5595
  101OSM   C12F10218   3.793   0.747   9.462  0.8660  0.2597 -0.3602
  101OSM   H12F10219   3.717   0.795   9.397 -0.1265 -1.4912 -0.5395
  101OSM   H12G10220   3.795   0.638   9.440  0.2483 -0.2805  2.0443
  101OSM   C13F10221   3.935   0.805   9.427 -0.2331  0.2675 -0.0601
  101OSM   H13F10222   4.013   0.770   9.497 -1.1769  0.1865  0.9624
  101OSM   H13G10223   3.932   0.916   9.433  0.9326  0.2754  0.4603
  101OSM   C14F10224   3.967   0.765   9.278  0.6305  0.1050 -0.3498
  101OSM   H14F10225   3.882   0.782   9.208  0.5732 -0.2984 -0.3799
  101OSM   H14G10226   3.983   0.655   9.275 -1.4643 -0.2171 -0.5751
  101OSM   C15F10227   4.092   0.842   9.227  0.2524 -0.0054 -0.2257
  101OSM   H15F10228   4.154   0.847   9.319 -1.2121  3.3536  0.6616
  101OSM   H15G10229   4.056   0.945   9.206 -1.0355 -0.0832  1.5159
  101OSM   C16F10230   4.156   0.779   9.103  0.0104 -0.0934 -0.1328
  101OSM   H16F10231   4.187   0.673   9.119 -1.3726 -0.7340 -1.4856
  101OSM   H16G10232   4.247   0.836   9.076  1.1870 -2.1611 -0.6328
  101OSM   C17F10233   4.056   0.783   8.982  0.3954 -0.3273  0.7221
  101OSM   H17F10234   4.016   0.887   8.976  0.7291 -0.2950 -1.0123
  101OSM   H17G10235   3.963   0.723   8.991  0.1271  0.0665  0.6156
  101OSM   C18F10236   4.135   0.741   8.856  0.0761  0.1619  0.1243
  101OSM   H18F10237   4.096   0.783   8.761  1.7752  1.6942  0.0674
  101OSM   H18G10238   4.140   0.630   8.847 -2.1193 -0.1048  1.8408
  101OSM   H18H10239   4.238   0.784   8.856  0.4044 -0.6058  0.4819
  102OSM      N10240   4.859   2.954  10.944  0.1668  0.4615  0.5991
  102OSM    C1510241   4.722   2.994  10.990 -0.2265  0.4764  0.5131
  102OSM   H15A10242   4.665   3.063  10.929 -0.9495 -3.1262 -3.1231
  102OSM   H15B10243   4.724   3.039  11.088  0.8062 -0.5261  0.9600
  102OSM   H15C10244   4.658   2.909  11.008 -3.1423  2.8214  1.6186
  102OSM    C1410245   4.934   3.082  10.908 -0.0774  0.1631  0.6057
  102OSM   H14A10246   4.929   3.156  10.986 -1.3608 -0.5436  1.2000
  102OSM   H14B10247   4.893   3.128  10.819 -0.6889 -0.8949  0.3342
  102OSM   H14C10248   5.040   3.064  10.894 -0.1526  1.6068 -1.9874
  102OSM    C1310249   4.926   2.879  11.053 -0.5014 -0.6772  0.1333
  102OSM   H13A10250   4.964   2.945  11.129  2.0685 -2.4156  0.4540
  102OSM   H13B10251   5.016   2.833  11.014 -0.6227  0.5111 -1.5849
  102OSM   H13C10252   4.867   2.807  11.108  0.1942 -1.5506 -0.2573
  102OSM    C1210253   4.849   2.867  10.823  0.5713  0.8544  1.0079
  102OSM   H12A10254   4.789   2.916  10.748 -0.3552  1.3718  2.0659
  102OSM   H12B10255   4.800   2.776  10.854  1.7954 -1.0591 -2.3998
  102OSM    C1110256   4.983   2.819  10.760  0.5888  0.4175  0.0200
  102OSM   H11A10257   5.026   2.912  10.715 -1.4479  1.1331 -0.5536
  102OSM   H11B10258   4.947   2.744  10.686 -0.3488  0.3528  0.5261
  102OSM      P10259   5.226   2.737  10.779  0.2012  0.1773 -0.0484
  102OSM    O1310260   5.333   2.818  10.846  0.0662 -0.1443 -0.5437
  102OSM    O1410261   5.240   2.595  10.781  0.8037 -0.3956 -0.3074
  102OSM    O1110262   5.207   2.785  10.627 -0.8069 -0.1182 -0.5999
  102OSM    O1210263   5.083   2.765  10.843 -0.3560  0.7692  0.6517
  102OSM    C1S10264   5.322   2.772  10.538 -0.5475 -0.1214  0.0420
  102OSM    H1S10265   5.335   2.667  10.505  0.6001 -0.3253  1.0901
  102OSM    H1T10266   5.420   2.805  10.579  0.5230 -1.3167 -1.5075
  102OSM     NF10267   5.373   2.817  10.300 -0.5723 -0.8404  0.0517
  102OSM    HNF10268   5.445   2.880  10.270 -1.4210  1.1229  1.9611
  102OSM    C2S10269   5.288   2.857  10.408  0.7280 -0.5288  0.3067
  102OSM    H2S10270   5.188   2.822  10.373  0.0951  1.5359 -0.0623
  102OSM    C3S10271   5.276   3.012  10.433 -0.2504 -0.8358 -0.0175
  102OSM    H3S10272   5.372   3.048  10.475 -1.7549  0.8897  2.0642
  102OSM     O310273   5.179   3.048  10.526  0.4832  0.5897  0.2150
  102OSM    HO310274   5.157   2.970  10.578 -1.3278 -0.1141 -1.5424
  102OSM    C4S10275   5.243   3.090  10.305 -0.2284 -0.3361  0.6310
  102OSM    H4S10276   5.146   3.068  10.258 -0.0760  0.5231 -0.0981
  102OSM    C5S10277   5.327   3.166  10.233 -0.5708 -0.0444  0.1281
  102OSM    H5S10278   5.427   3.193  10.270 -1.1534  2.1285  0.1990
  102OSM    C6S10279   5.293   3.242  10.106  0.2005 -0.3036  0.2150
  102OSM    H6S10280   5.348   3.207  10.016  1.8787 -0.7314  1.3780
  102OSM    H6T10281   5.321   3.349  10.115  0.6025 -0.3612 -0.3563
  102OSM    C7S10282   5.134   3.260  10.068 -0.1167 -0.2280 -0.6352
  102OSM    H7S10283   5.079   3.287  10.161 -0.0574 -0.6642 -0.4702
  102OSM    H7T10284   5.091   3.159  10.055  2.3282 -1.4451  0.4298
  102OSM    C8S10285   5.111   3.347   9.939 -0.0518 -0.0038 -0.3126
  102OSM    H8S10286   5.155   3.448   9.946  2.2761 -0.9182 -1.3559
  102OSM    H8T10287   5.001   3.364   9.929  0.2934  0.5232 -3.6043
  102OSM    C9S10288   5.146   3.266   9.810 -0.6341 -0.4375 -0.4307
  102OSM    H9S10289   5.086   3.174   9.801  0.2176 -0.9698 -0.8347
  102OSM    H9T10290   5.253   3.237   9.824 -0.1037  0.7630 -1.7810
  102OSM   C10S10291   5.124   3.347   9.682  0.0967  0.3725 -0.7444
  102OSM   H10S10292   5.177   3.442   9.706 -1.5415  0.4888  2.6720
  102OSM   H10T10293   5.016   3.363   9.660  0.0913  0.1610 -0.8774
  102OSM   C11S10294   5.194   3.282   9.560 -0.3157 -0.0891  0.4595
  102OSM   H11S10295   5.145   3.185   9.536 -0.8557  0.4785 -0.7490
  102OSM   H11T10296   5.299   3.264   9.594  0.6085 -0.4471 -2.4126
  102OSM   C12S10297   5.200   3.367   9.437  1.0504  0.5654  0.3425
  102OSM   H12S10298   5.245   3.465   9.463  1.2254  1.1797 -2.1167
  102OSM   H12T10299   5.099   3.379   9.390  1.1641  0.8500  0.1704
  102OSM   C13S10300   5.297   3.313   9.327  0.1187  0.2163 -0.4178
  102OSM   H13S10301   5.362   3.232   9.367  0.9619  1.1889  0.2155
  102OSM   H13T10302   5.358   3.399   9.292  0.4982  0.4170  0.7123
  102OSM   C14S10303   5.230   3.254   9.200  0.3455 -0.0386 -0.4866
  102OSM   H14S10304   5.130   3.301   9.200  0.5107  0.3960 -2.6756
  102OSM   H14T10305   5.219   3.144   9.215 -0.3695 -0.0251 -0.8853
  102OSM   C15S10306   5.312   3.290   9.074  0.6186  0.3164 -0.0661
  102OSM   H15S10307   5.378   3.202   9.061  0.6931  0.2841  0.5039
  102OSM   H15T10308   5.379   3.376   9.100  1.2370  0.0318 -0.7076
  102OSM   C16S10309   5.242   3.309   8.935 -0.3365 -1.0481  0.4148
  102OSM   H16S10310   5.194   3.409   8.930  0.2812 -0.7971 -0.5232
  102OSM   H16T10311   5.152   3.244   8.925 -1.5342  0.8380 -1.4854
  102OSM   C17S10312   5.332   3.267   8.817 -0.5031  1.1164 -0.4358
  102OSM   H17S10313   5.375   3.170   8.850  2.9570  1.7285 -2.9071
  102OSM   H17T10314   5.423   3.330   8.809 -0.7896  1.5453 -0.3382
  102OSM   C18S10315   5.281   3.251   8.671 -0.6328  0.1791  0.5121
  102OSM   H18S10316   5.366   3.236   8.600 -1.8394  0.1968 -0.9520
  102OSM   H18T10317   5.224   3.341   8.641 -1.3356 -0.2058  0.6904
  102OSM   H18U10318   5.216   3.161   8.668  0.3108 -0.4814 -1.6151
  102OSM    C1F10319   5.370   2.699  10.241 -0.3195 -0.5483  0.2691
  102OSM     OF10320   5.285   2.616  10.273 -0.4220 -0.3146  0.1721
  102OSM    C2F10321   5.463   2.680  10.129 -0.3572  0.1375 -0.8282
  102OSM    H2F10322   5.499   2.576  10.117  2.1793  0.6737  1.5573
  102OSM    H2G10323   5.552   2.744  10.146  0.4447 -1.0672 -0.4596
  102OSM    C3F10324   5.392   2.723  10.000  0.4541  0.1096 -0.7695
  102OSM    H3F10325   5.353   2.828  10.002 -1.3900 -0.5715  0.5607
  102OSM    H3G10326   5.299   2.663   9.983 -0.0078  0.6990 -0.3481
  102OSM    C4F10327   5.479   2.719   9.871 -0.3457 -0.6079  0.4010
  102OSM    H4F10328   5.486   2.614   9.837 -3.2000 -0.8444  0.4146
  102OSM    H4G10329   5.575   2.771   9.891 -0.6211  0.0858 -0.0686
  102OSM    C5F10330   5.421   2.807   9.761 -0.1345  0.3106 -0.2478
  102OSM    H5F10331   5.416   2.912   9.797  1.1721 -0.2409  1.6395
  102OSM    H5G10332   5.322   2.773   9.725  0.1355  1.6942 -2.3731
  102OSM    C6F10333   5.508   2.803   9.630 -0.4019  0.1853  0.0859
  102OSM    H6F10334   5.497   2.704   9.579  0.1569  0.7116 -1.0746
  102OSM    H6G10335   5.614   2.817   9.660 -0.9392  1.8541  1.2530
  102OSM    C7F10336   5.465   2.922   9.539  0.2626  0.8202 -0.3203
  102OSM    H7F10337   5.460   3.008   9.609 -0.0323 -0.3766  1.1640
  102OSM    H7G10338   5.363   2.901   9.501  0.0847  1.3108 -0.1259
  102OSM    C8F10339   5.558   2.942   9.426  0.0116 -0.2820  0.2213
  102OSM    H8F10340   5.662   2.969   9.453 -0.8421  1.7027  1.6806
  102OSM    H8G10341   5.521   3.031   9.370  0.4262 -0.3611 -0.1835
  102OSM    C9F10342   5.541   2.816   9.347  0.3439 -0.9422 -0.4145
  102OSM    H9F10343   5.608   2.735   9.380 -0.3506 -1.5706 -0.5384
  102OSM   C10F10344   5.447   2.788   9.252 -0.9063  0.2475 -0.1918
  102OSM   H10F10345   5.462   2.693   9.199  0.4917  0.0230  0.5847
  102OSM   C11F10346   5.331   2.873   9.204 -0.0671 -0.2083 -0.1913
  102OSM   H11F10347   5.319   2.970   9.257 -2.7529 -0.6509  0.0739
  102OSM   H11G10348   5.237   2.820   9.230 -1.3418  1.0941 -1.9975
  102OSM   C12F10349   5.352   2.900   9.057 -0.1696  0.2815 -0.0754
  102OSM   H12F10350   5.461   2.910   9.037  0.1689 -3.4757 -0.5153
  102OSM   H12G10351   5.302   2.998   9.042 -0.7637  0.1208  0.8153
  102OSM   C13F10352   5.306   2.801   8.954  0.1314 -0.1443 -0.4095
  102OSM   H13F10353   5.199   2.777   8.971  0.9198 -3.4447  0.2615
  102OSM   H13G10354   5.358   2.702   8.952 -1.6555 -1.0895 -2.3563
  102OSM   C14F10355   5.301   2.851   8.816  0.0342 -0.1527 -0.5089
  102OSM   H14F10356   5.401   2.867   8.771  2.3585 -1.1369  4.0331
  102OSM   H14G10357   5.267   2.957   8.812 -0.0999 -0.1045  1.5624
  102OSM   C15F10358   5.228   2.759   8.714 -0.5557  0.2713  0.5539
  102OSM   H15F10359   5.122   2.764   8.746  0.1274  0.9260  2.8055
  102OSM   H15G10360   5.257   2.653   8.731  1.7848  1.1575  2.4241
  102OSM   C16F10361   5.224   2.793   8.563 -0.2049  0.0240  0.1505
  102OSM   H16F10362   5.328   2.790   8.525 -0.5615  0.8654 -0.9123
  102OSM   H16G10363   5.180   2.894   8.552  0.9628  0.5757  0.4717
  102OSM   C17F10364   5.133   2.710   8.467  0.4123  0.1801  0.2275
  102OSM   H17F10365   5.173   2.710   8.363  3.0861  4.0097  1.1462
  102OSM   H17G10366   5.036   2.761   8.450  0.4607 -1.2955 -5.4447
  102OSM   C18F10367   5.120   2.562   8.510 -0.5883  0.2551  0.2013
  102OSM   H18F10368   5.056   2.500   8.445  1.4370  0.5733 -2.1795
  102OSM   H18G10369   5.080   2.565   8.614 -1.4428  1.4901 -0.1547
  102OSM   H18H10370   5.216   2.506   8.506 -0.6522  0.1554  0.0944
  103OSM      N10371   4.378   6.372  11.222 -0.3378 -0.4056 -0.1412
  103OSM    C1510372   4.508   6.442  11.194  0.1852  0.1634  0.1053
  103OSM   H15A10373   4.547   6.406  11.100 -0.0255  1.1898 -0.3721
  103OSM   H15B10374   4.582   6.422  11.270  1.0761  3.5159  0.2059
  103OSM   H15C10375   4.498   6.547  11.171  2.8654  0.4870  0.2352
  103OSM    C1410376   4.407   6.229  11.255 -0.1992 -0.8834  0.3497
  103OSM   H14A10377   4.464   6.175  11.180 -0.4435 -0.4364 -0.1590
  103OSM   H14B10378   4.312   6.180  11.268 -1.3820  1.8874  2.6644
  103OSM   H14C10379   4.468   6.225  11.344  2.0036  1.7358 -0.9745
  103OSM    C1310380   4.332   6.432  11.355 -0.2641  0.5776 -0.5021
  103OSM   H13A10381   4.415   6.434  11.424 -0.6129  0.2779 -0.0707
  103OSM   H13B10382   4.242   6.382  11.388  0.0920  1.7373  2.4020
  103OSM   H13C10383   4.298   6.534  11.342 -0.9940  0.3398 -0.4907
  103OSM    C1210384   4.278   6.391  11.114 -0.1183 -0.4263 -0.2462
  103OSM   H12A10385   4.275   6.498  11.102  0.3283 -0.3130  0.6106
  103OSM   H12B10386   4.184   6.356  11.153 -0.6484  1.1042 -0.1030
  103OSM    C1110387   4.303   6.321  10.978  0.2553  0.1500  0.6585
  103OSM   H11A10388   4.208   6.337  10.922  0.7641 -0.3782 -0.3745
  103OSM   H11B10389   4.304   6.211  10.995  0.0817  0.1853  0.8985
  103OSM      P10390   4.414   6.514  10.840  0.3336  0.1106 -0.1168
  103OSM    O1310391   4.381   6.620  10.937 -0.2044 -0.3268  0.0345
  103OSM    O1410392   4.538   6.526  10.763  0.5456  0.2064  0.0635
  103OSM    O1110393   4.286   6.502  10.745 -0.1177  0.3498  0.8432
  103OSM    O1210394   4.421   6.373  10.916 -0.3727 -0.3200 -0.0177
  103OSM    C1S10395   4.289   6.582  10.623 -0.0666 -1.1154  0.2857
  103OSM    H1S10396   4.378   6.556  10.562 -0.1786 -1.3077  0.2045
  103OSM    H1T10397   4.298   6.692  10.640 -0.8285 -0.8596 -0.8909
  103OSM     NF10398   4.183   6.603  10.389 -0.0478  0.0521 -0.6696
  103OSM    HNF10399   4.097   6.633  10.349 -1.2189 -0.1427  1.6156
  103OSM    C2S10400   4.173   6.546  10.525 -0.0834 -0.3915 -0.0060
  103OSM    H2S10401   4.189   6.436  10.520  0.0383 -0.3856  0.2356
  103OSM    C3S10402   4.030   6.568  10.583  0.3213  0.5124 -0.0788
  103OSM    H3S10403   4.016   6.677  10.592  0.1137  0.4148  0.8376
  103OSM     O310404   4.004   6.515  10.714  0.4702  0.2922 -0.1077
  103OSM    HO310405   4.089   6.511  10.757 -0.1891 -0.8235  1.1147
  103OSM    C4S10406   3.922   6.528  10.482  0.2242  0.4976  0.4781
  103OSM    H4S10407   3.910   6.608  10.407  3.4495  1.1318  0.5468
  103OSM    C5S10408   3.853   6.407  10.472 -0.1992 -0.3405 -0.8097
  103OSM    H5S10409   3.863   6.315  10.531  0.3459  0.9839  1.2397
  103OSM    C6S10410   3.738   6.377  10.380  1.0535  0.4072 -0.2376
  103OSM    H6S10411   3.638   6.406  10.420  0.3405 -3.1883  0.7944
  103OSM    H6T10412   3.740   6.267  10.364  4.4523  0.3981 -0.0284
  103OSM    C7S10413   3.764   6.437  10.235 -0.4614 -0.1041  0.2114
  103OSM    H7S10414   3.858   6.386  10.203  0.0189  1.4307 -0.8625
  103OSM    H7T10415   3.768   6.548  10.239  0.5190 -0.1012 -0.5596
  103OSM    C8S10416   3.650   6.403  10.138  0.0062  0.1027  0.2745
  103OSM    H8S10417   3.562   6.470  10.152  1.1547  1.8452 -0.6188
  103OSM    H8T10418   3.641   6.295  10.162  0.5893 -0.2154 -0.8806
  103OSM    C9S10419   3.691   6.415   9.991 -0.0528 -0.4746  0.4268
  103OSM    H9S10420   3.788   6.363   9.982  0.2541  0.2363 -0.5093
  103OSM    H9T10421   3.706   6.523   9.973 -0.5518 -0.7103 -1.6224
  103OSM   C10S10422   3.597   6.360   9.884  0.1188  0.3583 -0.8007
  103OSM   H10S10423   3.499   6.410   9.899  0.0599  0.0564 -0.1878
  103OSM   H10T10424   3.598   6.251   9.902  0.4314  0.0308 -2.7382
  103OSM   C11S10425   3.642   6.370   9.737 -0.3689 -1.1208  0.2818
  103OSM   H11S10426   3.740   6.318   9.747  0.9637  1.1915 -0.3568
  103OSM   H11T10427   3.668   6.471   9.698  3.8707 -1.9583  0.6539
  103OSM   C12S10428   3.542   6.300   9.649 -0.0091  0.5141  0.0359
  103OSM   H12S10429   3.441   6.323   9.690 -0.5784 -0.6787 -0.6888
  103OSM   H12T10430   3.559   6.192   9.668  3.1514  1.0952  0.6821
  103OSM   C13S10431   3.560   6.310   9.496 -0.0942  0.1038 -0.0578
  103OSM   H13S10432   3.667   6.287   9.479 -0.5901 -1.3660 -1.3123
  103OSM   H13T10433   3.548   6.411   9.452  0.4806  1.0656  1.9508
  103OSM   C14S10434   3.477   6.209   9.420 -0.4772  0.7330 -0.0734
  103OSM   H14S10435   3.369   6.234   9.427 -0.8035 -0.0444 -1.8604
  103OSM   H14T10436   3.497   6.113   9.473 -0.8890  1.3189  1.1282
  103OSM   C15S10437   3.517   6.187   9.278  0.3175 -0.7856 -0.4552
  103OSM   H15S10438   3.456   6.099   9.245  0.3689 -1.1695  0.4543
  103OSM   H15T10439   3.624   6.164   9.260  1.2139  1.1274  2.2283
  103OSM   C16S10440   3.476   6.311   9.194  0.7182  0.0988 -0.6821
  103OSM   H16S10441   3.526   6.406   9.225 -0.0733  0.9387 -1.9417
  103OSM   H16T10442   3.371   6.341   9.210  0.4495  0.7695 -3.3821
  103OSM   C17S10443   3.496   6.288   9.042 -0.0850  0.0913 -0.1736
  103OSM   H17S10444   3.491   6.179   9.027  0.1905  0.3453 -2.1446
  103OSM   H17T10445   3.603   6.314   9.025 -0.6612  0.4164 -3.4635
  103OSM   C18S10446   3.399   6.350   8.942 -0.1852 -0.4217  0.7130
  103OSM   H18S10447   3.430   6.456   8.929  0.2312 -0.7416 -1.1409
  103OSM   H18T10448   3.293   6.353   8.973  0.5015  1.2102  2.9828
  103OSM   H18U10449   3.408   6.298   8.844  3.0660  1.0649  0.1655
  103OSM    C1F10450   4.292   6.610  10.311  0.3510 -0.2597 -0.0443
  103OSM     OF10451   4.405   6.564  10.333 -0.0787  0.2716 -0.1375
  103OSM    C2F10452   4.267   6.675  10.175 -0.0498  0.4894 -0.2921
  103OSM    H2F10453   4.158   6.677  10.153 -0.2061 -0.5053  0.3688
  103OSM    H2G10454   4.309   6.606  10.100 -0.2160  1.4663 -1.2998
  103OSM    C3F10455   4.345   6.805  10.163 -0.1830  0.5627 -0.9479
  103OSM    H3F10456   4.435   6.813  10.228  0.0024 -1.3538 -0.9358
  103OSM    H3G10457   4.275   6.873  10.216 -0.0614  0.3119 -0.4633
  103OSM    C4F10458   4.404   6.838  10.027 -0.7739  0.3971 -0.0202
  103OSM    H4F10459   4.456   6.743  10.003 -2.6606 -1.5073  3.0413
  103OSM    H4G10460   4.476   6.922  10.027 -1.1659  0.7366  0.3939
  103OSM    C5F10461   4.297   6.870   9.919 -0.3320  0.3525  0.3216
  103OSM    H5F10462   4.247   6.966   9.943 -0.4479 -0.0438  1.6962
  103OSM    H5G10463   4.223   6.787   9.915  3.0229 -2.7541 -0.5747
  103OSM    C6F10464   4.358   6.889   9.780  0.4942  0.3696  0.2357
  103OSM    H6F10465   4.434   6.808   9.772 -0.3103 -0.8769  4.0096
  103OSM    H6G10466   4.408   6.989   9.774  3.3687 -1.1250 -1.7857
  103OSM    C7F10467   4.258   6.867   9.665  0.1800  0.4611  0.0069
  103OSM    H7F10468   4.200   6.960   9.649 -0.9451 -0.5106 -1.7786
  103OSM    H7G10469   4.193   6.779   9.682  0.7771 -0.3934 -2.0201
  103OSM    C8F10470   4.334   6.838   9.529 -0.3533  0.0849  0.4894
  103OSM    H8F10471   4.254   6.796   9.464 -0.1799  0.6943 -0.1103
  103OSM    H8G10472   4.403   6.753   9.552 -0.1342 -0.3885 -1.8254
  103OSM    C9F10473   4.414   6.949   9.473 -0.2354 -0.6979 -0.2079
  103OSM    H9F10474   4.383   7.045   9.517 -0.6223  0.0155 -2.0252
  103OSM   C10F10475   4.509   6.937   9.378 -0.2562  0.3389 -0.1699
  103OSM   H10F10476   4.547   7.034   9.342 -0.4958  0.7866  0.7578
  103OSM   C11F10477   4.531   6.813   9.295 -0.5383 -0.4211  0.7304
  103OSM   H11F10478   4.485   6.725   9.344 -0.4824  0.2182  1.9481
  103OSM   H11G10479   4.640   6.792   9.301 -0.5101 -0.4116  0.2796
  103OSM   C12F10480   4.481   6.829   9.152  0.5317  0.3489  0.4460
  103OSM   H12F10481   4.524   6.741   9.098  1.0147 -0.0929  1.5378
  103OSM   H12G10482   4.514   6.928   9.115 -1.1081  0.8296  0.2120
  103OSM   C13F10483   4.331   6.832   9.136  0.5510  0.4339 -0.0306
  103OSM   H13F10484   4.290   6.929   9.170 -1.7818  0.2488 -2.0855
  103OSM   H13G10485   4.276   6.753   9.193  0.3369  0.9970  0.5436
  103OSM   C14F10486   4.279   6.827   8.991  0.4306  0.0455  0.3896
  103OSM   H14F10487   4.312   6.737   8.935  1.8499 -0.0607  1.3921
  103OSM   H14G10488   4.323   6.911   8.934  1.2858 -2.0501 -2.1245
  103OSM   C15F10489   4.127   6.852   8.987 -0.8041 -0.1449  0.3670
  103OSM   H15F10490   4.124   6.954   9.032  0.4384  0.1387 -0.1438
  103OSM   H15G10491   4.071   6.777   9.045  0.9494 -0.8647  1.1736
  103OSM   C16F10492   4.076   6.861   8.847 -0.3329  0.1814  0.2572
  103OSM   H16F10493   3.974   6.904   8.855 -1.1705 -1.3294 -1.9694
  103OSM   H16G10494   4.073   6.757   8.808  0.2370  0.5776 -0.8934
  103OSM   C17F10495   4.156   6.945   8.755 -0.4440  0.1169 -0.1531
  103OSM   H17F10496   4.236   6.872   8.727 -1.2628 -0.4140 -1.1294
  103OSM   H17G10497   4.188   7.030   8.819  0.3248 -0.7964  0.6910
  103OSM   C18F10498   4.083   6.974   8.626  0.5819 -1.0286 -0.3343
  103OSM   H18F10499   4.148   7.021   8.550 -0.7446  0.5186 -0.5391
  103OSM   H18G10500   3.996   7.042   8.636  0.8103 -0.5614 -1.4479
  103OSM   H18H10501   4.046   6.879   8.582 -0.2292  0.0397 -1.9970
  104OSM      N10502   6.027   5.772  11.152  0.1323 -0.2637  0.1081
  104OSM    C1510503   5.992   5.625  11.154 -0.0835 -0.4601  0.4113
  104OSM   H15A10504   5.916   5.606  11.228 -1.6872 -0.0881 -1.0903
  104OSM   H15B10505   6.084   5.570  11.167 -0.3903 -1.5017 -1.6315
  104OSM   H15C10506   5.951   5.601  11.057 -0.2849 -0.4551  0.4953
  104OSM    C1410507   5.898   5.839  11.135  0.0070  0.0946  0.2677
  104OSM   H14A10508   5.859   5.802  11.042  0.1847  1.9195 -0.5504
  104OSM   H14B10509   5.898   5.947  11.130 -1.5761  0.1840  1.9001
  104OSM   H14C10510   5.826   5.805  11.208  1.1550 -2.0028  0.4721
  104OSM    C1310511   6.078   5.804  11.287 -0.2123 -0.3499  0.4689
  104OSM   H13A10512   6.074   5.911  11.304 -2.9866  0.1864 -2.9268
  104OSM   H13B10513   6.174   5.759  11.302  0.1324  0.2212 -0.0074
  104OSM   H13C10514   6.017   5.767  11.369 -0.3348  0.7288  0.8713
  104OSM    C1210515   6.125   5.805  11.040 -0.3267 -0.3855 -0.4425
  104OSM   H12A10516   6.218   5.755  11.063  0.2575 -0.0970 -2.0765
  104OSM   H12B10517   6.153   5.909  11.036 -1.2709 -0.1025  0.0284
  104OSM    C1110518   6.078   5.754  10.894 -0.3873  0.0814 -0.1574
  104OSM   H11A10519   6.144   5.805  10.820 -2.1274  0.3579 -1.5718
  104OSM   H11B10520   5.979   5.804  10.885 -0.8343 -1.0045 -1.5479
  104OSM      P10521   6.181   5.517  10.836 -0.0947 -0.5942 -0.0263
  104OSM    O1310522   6.304   5.587  10.883  0.2222  0.2939  0.0321
  104OSM    O1410523   6.155   5.387  10.900 -0.3129 -0.1663 -0.0595
  104OSM    O1110524   6.188   5.492  10.683  0.3919 -0.0890 -0.5215
  104OSM    O1210525   6.063   5.619  10.867  0.0211 -0.1472  0.6078
  104OSM    C1S10526   6.098   5.557  10.595  0.2281 -0.8997  0.5454
  104OSM    H1S10527   6.109   5.667  10.601 -1.4079 -0.7832  1.5162
  104OSM    H1T10528   5.998   5.509  10.604  0.3631 -0.9318  1.8580
  104OSM     NF10529   6.048   5.602  10.357 -0.4661  0.2289 -0.5049
  104OSM    HNF10530   5.953   5.575  10.346 -1.0592  1.9873  0.1326
  104OSM    C2S10531   6.131   5.515  10.445  0.4991 -0.2181 -0.3438
  104OSM    H2S10532   6.236   5.542  10.421  0.2416 -0.7584 -2.1737
  104OSM    C3S10533   6.118   5.366  10.425 -0.0104  0.1741 -0.0004
  104OSM    H3S10534   6.019   5.328  10.458  0.4761 -0.1703  1.0878
  104OSM     O310535   6.213   5.291  10.498 -0.3451  0.1873 -0.0040
  104OSM    HO310536   6.226   5.341  10.579 -0.3274 -2.5955  1.7813
  104OSM    C4S10537   6.112   5.336  10.275 -0.1562 -0.7425  0.0184
  104OSM    H4S10538   6.025   5.358  10.213  2.0103 -1.3736 -3.3898
  104OSM    C5S10539   6.210   5.269  10.211 -0.3841  0.1189 -1.2957
  104OSM    H5S10540   6.286   5.208  10.263 -0.7428 -1.1376 -2.2109
  104OSM    C6S10541   6.211   5.233  10.064  0.6547 -0.3415  0.4004
  104OSM    H6S10542   6.112   5.190  10.038  0.0880  1.5723 -0.6894
  104OSM    H6T10543   6.291   5.157  10.050 -0.2643 -1.3927  0.8777
  104OSM    C7S10544   6.239   5.352   9.974  0.8106  0.0573  0.0384
  104OSM    H7S10545   6.320   5.411  10.021 -0.6841  1.4768  0.8550
  104OSM    H7T10546   6.147   5.413   9.983 -0.7145 -2.3058  0.8925
  104OSM    C8S10547   6.264   5.323   9.822  0.4206  0.5017 -0.4181
  104OSM    H8S10548   6.195   5.239   9.797  0.1659  1.3699 -2.6782
  104OSM    H8T10549   6.373   5.299   9.817  0.4893  0.9390 -0.9881
  104OSM    C9S10550   6.229   5.441   9.735 -0.3257 -0.1669 -0.2586
  104OSM    H9S10551   6.286   5.537   9.732 -0.9357  0.2885  2.2844
  104OSM    H9T10552   6.127   5.474   9.763  0.1393  1.1720 -0.0808
  104OSM   C10S10553   6.233   5.385   9.589  0.1467 -0.1445 -0.4991
  104OSM   H10S10554   6.156   5.305   9.592  0.0964 -0.0560  0.5174
  104OSM   H10T10555   6.331   5.335   9.575  0.5953 -0.0337  2.0635
  104OSM   C11S10556   6.204   5.491   9.484 -0.2491  0.0253 -0.3084
  104OSM   H11S10557   6.291   5.561   9.483  0.7122 -1.1427 -1.4370
  104OSM   H11T10558   6.113   5.548   9.513  0.8436  1.9636 -0.5475
  104OSM   C12S10559   6.186   5.433   9.342  0.1494 -0.0683 -0.1505
  104OSM   H12S10560   6.092   5.373   9.345  0.8023 -1.0438  0.9448
  104OSM   H12T10561   6.265   5.366   9.302 -0.7463 -0.5566 -1.1445
  104OSM   C13S10562   6.156   5.539   9.238 -0.0867  0.3184  0.1829
  104OSM   H13S10563   6.250   5.599   9.235 -1.1353  2.0630  1.1398
  104OSM   H13T10564   6.071   5.592   9.286  0.2134 -0.5180  1.6750
  104OSM   C14S10565   6.127   5.483   9.099  0.0629  0.2622 -0.0431
  104OSM   H14S10566   6.028   5.433   9.098 -0.2086  0.7547  1.2628
  104OSM   H14T10567   6.205   5.406   9.079 -1.9316 -1.5674 -0.8941
  104OSM   C15S10568   6.145   5.592   8.988 -0.8101  0.6757  0.0332
  104OSM   H15S10569   6.240   5.644   9.012  0.5450 -2.1222  1.0159
  104OSM   H15T10570   6.064   5.663   9.013 -1.7732 -0.2570 -0.4083
  104OSM   C16S10571   6.122   5.546   8.846 -0.0465  0.5922  0.3850
  104OSM   H16S10572   6.011   5.539   8.842  0.0788 -0.7899 -1.5379
  104OSM   H16T10573   6.156   5.441   8.829 -0.5638  0.5822 -0.6147
  104OSM   C17S10574   6.169   5.649   8.742  0.3362  0.2161  0.6329
  104OSM   H17S10575   6.278   5.648   8.721 -0.0158 -1.1460 -1.1886
  104OSM   H17T10576   6.148   5.753   8.774  1.9673  0.8088 -0.2300
  104OSM   C18S10577   6.090   5.634   8.604 -0.0816  0.2679  0.3782
  104OSM   H18S10578   5.983   5.661   8.608  0.1647  1.1236  1.3342
  104OSM   H18T10579   6.106   5.529   8.569 -0.5025  0.6218 -0.8939
  104OSM   H18U10580   6.140   5.699   8.529 -0.2095 -1.5400 -1.3322
  104OSM    C1F10581   6.081   5.731  10.341 -0.1580 -1.1129  0.4227
  104OSM     OF10582   6.191   5.765  10.372  0.3891 -0.6272  0.6001
  104OSM    C2F10583   5.986   5.831  10.291  0.4556 -0.2088  0.7008
  104OSM    H2F10584   6.003   5.922  10.354  0.7534  0.4810 -0.3569
  104OSM    H2G10585   5.881   5.798  10.304  0.8660 -1.6813  0.3301
  104OSM    C3F10586   6.022   5.885  10.149  0.6395 -0.1563 -0.7030
  104OSM    H3F10587   6.126   5.925  10.148  1.0009 -1.0367 -3.6153
  104OSM    H3G10588   5.951   5.968  10.132  0.7351 -0.1484 -1.0695
  104OSM    C4F10589   6.004   5.798  10.024 -0.6980  0.2952 -0.1832
  104OSM    H4F10590   5.900   5.761  10.023 -1.5933  2.7034  0.5878
  104OSM    H4G10591   6.067   5.707  10.020 -0.0183  0.6912  1.2100
  104OSM    C5F10592   6.031   5.877   9.902 -0.1364 -0.3249  0.6529
  104OSM    H5F10593   6.131   5.924   9.906  0.2337 -1.1829  1.9870
  104OSM    H5G10594   5.959   5.962   9.904  0.4581  0.2494 -1.6743
  104OSM    C6F10595   6.012   5.804   9.769  0.0772  0.8805 -0.2341
  104OSM    H6F10596   5.909   5.763   9.766 -0.6060  2.6319 -3.0296
  104OSM    H6G10597   6.082   5.717   9.767 -0.3783  0.5075  0.0787
  104OSM    C7F10598   6.029   5.902   9.655  0.2872  0.1327 -0.1104
  104OSM    H7F10599   6.135   5.933   9.640  0.3842 -0.1839 -0.0873
  104OSM    H7G10600   5.968   5.987   9.693  0.4668  0.4036 -0.4224
  104OSM    C8F10601   5.987   5.849   9.516 -0.5473 -0.8276  0.2376
  104OSM    H8F10602   5.887   5.803   9.504 -0.3679 -0.3083 -4.1274
  104OSM    H8G10603   6.065   5.778   9.482  1.8651  1.3397  1.0816
  104OSM    C9F10604   5.988   5.967   9.414  0.2357  1.0690  0.3933
  104OSM    H9F10605   5.921   6.049   9.445 -1.5833  0.9643 -2.9783
  104OSM   C10F10606   6.066   5.987   9.306  0.8198 -0.2681 -0.0033
  104OSM   H10F10607   6.050   6.078   9.246  0.5638 -0.0598  0.3807
  104OSM   C11F10608   6.171   5.888   9.268  0.6460  0.6639 -0.1136
  104OSM   H11F10609   6.130   5.840   9.177  0.0177  2.8545 -1.0056
  104OSM   H11G10610   6.185   5.806   9.341  0.2333 -0.2484 -1.0461
  104OSM   C12F10611   6.302   5.943   9.206 -0.1397  0.0859  0.5587
  104OSM   H12F10612   6.379   5.869   9.174 -0.6467 -0.1297 -0.1823
  104OSM   H12G10613   6.359   5.994   9.287 -2.0817  1.9626  0.7599
  104OSM   C13F10614   6.290   6.043   9.092 -0.0474 -0.0530 -0.5881
  104OSM   H13F10615   6.384   6.102   9.089  0.7800 -1.4014 -1.6136
  104OSM   H13G10616   6.207   6.114   9.113  0.0672  0.4106 -1.6632
  104OSM   C14F10617   6.247   5.985   8.952 -0.0672  0.6627 -0.3510
  104OSM   H14F10618   6.149   5.937   8.972  0.4507 -0.6843 -1.0441
  104OSM   H14G10619   6.324   5.909   8.926 -0.5296  0.1989 -0.3622
  104OSM   C15F10620   6.220   6.090   8.853  0.6317 -0.2973  0.1692
  104OSM   H15F10621   6.314   6.147   8.840 -0.1567  1.0061 -0.0146
  104OSM   H15G10622   6.131   6.143   8.895  1.2374  1.2696 -0.4919
  104OSM   C16F10623   6.189   6.024   8.723 -0.3366  1.0936  0.3504
  104OSM   H16F10624   6.094   5.967   8.736  0.7473 -0.7718  0.2365
  104OSM   H16G10625   6.259   5.947   8.684 -2.7116 -1.9461  1.8261
  104OSM   C17F10626   6.185   6.120   8.603  0.1015 -0.3082 -0.4272
  104OSM   H17F10627   6.282   6.170   8.585 -0.0449  1.4806  3.3790
  104OSM   H17G10628   6.105   6.195   8.624 -0.4217 -0.4857 -1.6829
  104OSM   C18F10629   6.143   6.039   8.479  0.0467  0.4228 -0.2102
  104OSM   H18F10630   6.223   5.968   8.453  0.3232  0.9313 -0.7492
  104OSM   H18G10631   6.122   6.107   8.394 -0.7828  0.5912  0.1231
  104OSM   H18H10632   6.053   5.978   8.503 -0.4055  1.3029  0.4054
  105OSM      N10633   2.447   1.679  11.061 -0.0007 -0.0083 -0.7452
  105OSM    C1510634   2.559   1.621  10.989  0.1754  0.0618 -0.1597
  105OSM   H15A10635   2.611   1.693  10.927  0.9143  0.4634  0.9058
  105OSM   H15B10636   2.514   1.551  10.921 -2.4472 -1.4663  3.0282
  105OSM   H15C10637   2.625   1.577  11.062  0.4668  0.5305 -0.1340
  105OSM    C1410638   2.392   1.570  11.145  0.8239 -0.1859  0.3146
  105OSM   H14A10639   2.302   1.606  11.193  0.4751  0.7659 -1.0331
  105OSM   H14B10640   2.456   1.539  11.227 -1.3338 -1.1607  1.6552
  105OSM   H14C10641   2.359   1.486  11.087  1.2615  1.4940 -2.4439
  105OSM    C1310642   2.491   1.780  11.167  0.2843 -0.7077  0.1299
  105OSM   H13A10643   2.406   1.801  11.230  0.8078  2.2802 -0.1043
  105OSM   H13B10644   2.531   1.871  11.125  1.7731 -0.4036  2.1222
  105OSM   H13C10645   2.567   1.737  11.231  1.1587 -1.5507 -1.4623
  105OSM    C1210646   2.342   1.755  10.976 -0.9218 -0.0938 -0.0199
  105OSM   H12A10647   2.369   1.856  10.948 -4.0866  0.7802 -0.1813
  105OSM   H12B10648   2.253   1.771  11.036 -0.9336 -1.2028  0.2642
  105OSM    C1110649   2.294   1.690  10.842  0.5019 -0.3940  0.1626
  105OSM   H11A10650   2.382   1.654  10.785  0.5523 -0.7624  0.4724
  105OSM   H11B10651   2.255   1.776  10.783 -0.5334 -0.5833  0.5565
  105OSM      P10652   2.221   1.431  10.836  0.8106  0.4463 -0.3151
  105OSM    O1310653   2.337   1.414  10.751 -0.1048 -0.0536 -0.2654
  105OSM    O1410654   2.230   1.343  10.959  0.2752  0.0203 -0.6905
  105OSM    O1110655   2.100   1.377  10.757  0.6476  0.5460 -0.2787
  105OSM    O1210656   2.200   1.583  10.876 -0.1098 -0.1329 -0.4696
  105OSM    C1S10657   2.045   1.413  10.628 -0.1532  0.0772  0.2676
  105OSM    H1S10658   2.005   1.516  10.634  0.7151  0.4996 -0.9826
  105OSM    H1T10659   1.957   1.349  10.603 -0.4755  1.4648 -2.3271
  105OSM     NF10660   2.112   1.463  10.397 -0.4701  0.1781 -0.2738
  105OSM    HNF10661   2.101   1.414  10.311  0.6847 -0.6383  0.0432
  105OSM    C2S10662   2.144   1.398  10.519 -0.0919  0.1888  0.0870
  105OSM    H2S10663   2.239   1.452  10.542 -1.0367  1.0133  2.1009
  105OSM    C3S10664   2.184   1.246  10.494  0.2727 -0.0717 -0.0645
  105OSM    H3S10665   2.093   1.184  10.492  0.3964 -0.2316 -0.8788
  105OSM     O310666   2.272   1.191  10.591 -0.6905 -0.1255  0.6545
  105OSM    HO310667   2.311   1.267  10.634 -1.7465  0.2037  1.0470
  105OSM    C4S10668   2.252   1.218  10.365  0.5104 -0.2132 -0.6576
  105OSM    H4S10669   2.360   1.235  10.364  0.5844  0.3750  4.4923
  105OSM    C5S10670   2.203   1.166  10.252  0.2498  0.2035  0.5882
  105OSM    H5S10671   2.094   1.149  10.244  0.2425  0.8728 -0.7450
  105OSM    C6S10672   2.279   1.144  10.125  1.0134 -0.3578  0.2225
  105OSM    H6S10673   2.254   1.041  10.092  2.0208  0.0555 -1.9549
  105OSM    H6T10674   2.388   1.146  10.147  0.9419  1.0428  0.5308
  105OSM    C7S10675   2.238   1.248  10.028  0.2834 -0.6354  0.2311
  105OSM    H7S10676   2.253   1.350  10.068 -1.5779 -0.6800  1.0798
  105OSM    H7T10677   2.134   1.227   9.995  0.0465 -4.0620  2.7987
  105OSM    C8S10678   2.331   1.237   9.912  0.7808 -0.3066  0.7179
  105OSM    H8S10679   2.331   1.129   9.887 -2.4761 -0.7190  2.3165
  105OSM    H8T10680   2.435   1.261   9.942  1.1488  1.0808 -1.5700
  105OSM    C9S10681   2.284   1.315   9.791 -0.4491  0.4738  0.0080
  105OSM    H9S10682   2.293   1.423   9.815 -0.1632  0.5520 -0.4434
  105OSM    H9T10683   2.183   1.284   9.755 -0.1006  0.6153 -1.1172
  105OSM   C10S10684   2.363   1.294   9.661  0.1258  0.5152  0.2796
  105OSM   H10S10685   2.358   1.185   9.637  0.6541 -0.1777  3.0466
  105OSM   H10T10686   2.472   1.306   9.682 -0.2183  2.4781  1.0166
  105OSM   C11S10687   2.303   1.362   9.544  0.0460  0.3666  0.0784
  105OSM   H11S10688   2.291   1.470   9.568 -1.3110 -0.1679  1.9559
  105OSM   H11T10689   2.202   1.322   9.522 -0.1043  0.9342 -0.2692
  105OSM   C12S10690   2.391   1.367   9.416  0.2176 -1.1323  0.2821
  105OSM   H12S10691   2.394   1.263   9.378 -1.1315 -0.8432 -0.6708
  105OSM   H12T10692   2.498   1.385   9.436  0.1321 -2.6933  2.2410
  105OSM   C13S10693   2.341   1.464   9.309 -0.7552  0.2126 -0.4533
  105OSM   H13S10694   2.366   1.568   9.339 -1.2954 -0.0324  0.9123
  105OSM   H13T10695   2.231   1.454   9.301 -0.9981  1.4821  1.1255
  105OSM   C14S10696   2.393   1.433   9.175  0.5393 -0.4486 -0.0217
  105OSM   H14S10697   2.350   1.334   9.148 -2.7229  1.4965 -2.3527
  105OSM   H14T10698   2.503   1.426   9.179  0.6959  1.0787 -1.1304
  105OSM   C15S10699   2.374   1.559   9.085  0.4123  0.0083 -0.5045
  105OSM   H15S10700   2.455   1.633   9.104  0.5031 -0.2455  0.1082
  105OSM   H15T10701   2.272   1.603   9.093  1.2831  1.7385  1.8046
  105OSM   C16S10702   2.391   1.524   8.940  0.7110  0.3523 -0.0922
  105OSM   H16S10703   2.495   1.488   8.921  0.5240 -0.7155  0.8248
  105OSM   H16T10704   2.368   1.613   8.879  0.2359 -0.9067 -1.8008
  105OSM   C17S10705   2.304   1.410   8.892  0.5109 -0.5865 -0.4581
  105OSM   H17S10706   2.198   1.437   8.909  0.2462 -1.5556 -0.5004
  105OSM   H17T10707   2.328   1.313   8.942 -1.8647 -1.5700 -1.1620
  105OSM   C18S10708   2.313   1.394   8.741  0.0544 -0.5328  0.6768
  105OSM   H18S10709   2.296   1.493   8.694 -0.3769 -1.7811 -1.8479
  105OSM   H18T10710   2.237   1.323   8.701 -1.5946  1.3678  0.3529
  105OSM   H18U10711   2.413   1.349   8.727  0.7987  0.8891  1.2477
  105OSM    C1F10712   2.093   1.592  10.380  0.2470 -0.0984 -0.0190
  105OSM     OF10713   2.128   1.677  10.467  0.4348 -0.4141  0.8913
  105OSM    C2F10714   2.027   1.630  10.249  0.2302 -0.0831  0.6188
  105OSM    H2F10715   1.918   1.613  10.263  0.5269 -2.1721  0.5385
  105OSM    H2G10716   2.056   1.561  10.166 -0.7289 -0.0987  0.2876
  105OSM    C3F10717   2.041   1.779  10.214 -0.3271 -0.9341  0.3804
  105OSM    H3F10718   2.145   1.817  10.225 -0.8557  0.1476  1.8057
  105OSM    H3G10719   1.972   1.841  10.275  1.6206 -0.1826  1.8638
  105OSM    C4F10720   2.018   1.804  10.060  0.3185 -0.2834 -0.2675
  105OSM    H4F10721   2.020   1.911  10.030  0.6491 -1.0760 -3.2939
  105OSM    H4G10722   1.918   1.765  10.031 -0.1040 -0.0791  0.8890
  105OSM    C5F10723   2.129   1.741   9.979  0.1472 -0.1040  0.1307
  105OSM    H5F10724   2.128   1.630   9.982 -0.5179 -0.1130 -0.2673
  105OSM    H5G10725   2.225   1.783  10.016  0.6279 -2.2755  1.4000
  105OSM    C6F10726   2.105   1.773   9.826  0.6108  0.1064 -0.2115
  105OSM    H6F10727   2.086   1.881   9.810 -0.9191 -0.6037 -3.7111
  105OSM    H6G10728   2.011   1.718   9.802  0.1046  1.1101 -0.5465
  105OSM    C7F10729   2.204   1.726   9.718 -0.1887  0.6299  0.0635
  105OSM    H7F10730   2.214   1.617   9.735 -0.8290  0.5980  0.2471
  105OSM    H7G10731   2.302   1.779   9.721 -0.7356  1.6204  0.8618
  105OSM    C8F10732   2.145   1.748   9.574 -0.0734  0.0288  0.6365
  105OSM    H8F10733   2.047   1.699   9.560 -0.0196  0.1175 -0.0863
  105OSM    H8G10734   2.214   1.687   9.511 -0.2271 -0.5407  1.0132
  105OSM    C9F10735   2.145   1.895   9.530 -0.0286 -0.2178 -0.4488
  105OSM    H9F10736   2.046   1.942   9.544 -0.4575 -0.5856 -2.0793
  105OSM   C10F10737   2.246   1.973   9.484 -0.6220  0.8950  0.4827
  105OSM   H10F10738   2.230   2.079   9.460 -0.4253  0.8184 -0.0125
  105OSM   C11F10739   2.380   1.920   9.448  0.9032  0.2667 -0.0771
  105OSM   H11F10740   2.391   1.829   9.511  3.4720 -0.3451 -1.3317
  105OSM   H11G10741   2.465   1.987   9.473  1.7684 -0.4760 -0.9372
  105OSM   C12F10742   2.408   1.882   9.298  0.0040 -0.5348 -0.1290
  105OSM   H12F10743   2.346   1.794   9.271  1.8159 -1.4447 -1.3684
  105OSM   H12G10744   2.506   1.832   9.284  0.7282  0.2871  1.8495
  105OSM   C13F10745   2.390   1.996   9.196 -0.0227 -0.4692 -0.2488
  105OSM   H13F10746   2.451   2.087   9.215  1.1869 -1.0797 -1.1406
  105OSM   H13G10747   2.287   2.036   9.210  0.8142  2.4440 -2.1478
  105OSM   C14F10748   2.401   1.939   9.052 -0.2059 -0.4586 -0.1100
  105OSM   H14F10749   2.324   1.859   9.041 -1.1737  0.2900  1.0121
  105OSM   H14G10750   2.497   1.884   9.051  0.4538  0.6402  1.0760
  105OSM   C15F10751   2.397   2.050   8.945  0.5908 -0.4122 -0.0760
  105OSM   H15F10752   2.478   2.120   8.972 -0.3513  0.7938 -0.3376
  105OSM   H15G10753   2.299   2.102   8.945 -0.4216 -2.2038 -2.0609
  105OSM   C16F10754   2.448   2.002   8.804 -0.4316 -0.4045 -0.0225
  105OSM   H16F10755   2.398   1.903   8.795 -0.2951 -0.5686  0.9478
  105OSM   H16G10756   2.558   1.989   8.804 -0.6024 -1.9941  0.5522
  105OSM   C17F10757   2.413   2.088   8.687 -0.0720  0.1545  0.5157
  105OSM   H17F10758   2.452   2.037   8.597 -0.9959 -3.2966  1.9745
  105OSM   H17G10759   2.454   2.190   8.694 -0.2822  0.1222  2.5298
  105OSM   C18F10760   2.259   2.103   8.667 -0.2747  0.6696 -0.7925
  105OSM   H18F10761   2.230   2.205   8.633 -1.4350  1.2490  1.8344
  105OSM   H18G10762   2.198   2.084   8.758  1.3321 -0.3378  0.1036
  105OSM   H18H10763   2.230   2.025   8.593 -2.2186 -0.3064  0.9270
  106OSM      N10764   0.864   0.674  10.960  0.3571 -0.4446 -0.3074
  106OSM    C1510765   0.813   0.597  11.083  0.2025 -0.6947  0.3495
  106OSM   H15A10766   0.818   0.489  11.075 -0.7193 -0.6716 -0.5705
  106OSM   H15B10767   0.714   0.630  11.109  0.5907  0.4934  0.3551
  106OSM   H15C10768   0.875   0.617  11.169  0.2416  1.1924 -0.0916
  106OSM    C1410769   0.762   0.661  10.850  0.3611  0.1884  0.3114
  106OSM   H14A10770   0.754   0.556  10.827 -0.9007 -0.0004  1.5179
  106OSM   H14B10771   0.795   0.719  10.765 -0.4563 -0.4965 -0.4823
  106OSM   H14C10772   0.663   0.695  10.879 -0.0910 -2.9805  2.8173
  106OSM    C1310773   0.862   0.817  10.992 -0.5605  0.0638  0.0505
  106OSM   H13A10774   0.878   0.865  10.897 -1.1685  1.1636  0.4965
  106OSM   H13B10775   0.946   0.840  11.056 -1.2462 -0.3909  1.1424
  106OSM   H13C10776   0.768   0.855  11.031 -0.6884  0.7020 -0.8599
  106OSM    C1210777   1.003   0.621  10.910 -0.5181  0.2331  0.4454
  106OSM   H12A10778   0.989   0.514  10.898 -2.1488  0.1588  2.7550
  106OSM   H12B10779   1.074   0.634  10.990  0.1467 -0.4665 -0.0160
  106OSM    C1110780   1.075   0.692  10.789 -0.1706  0.2962 -0.9498
  106OSM   H11A10781   1.021   0.668  10.695 -0.0279  1.7170 -1.4000
  106OSM   H11B10782   1.171   0.637  10.780 -1.1857 -1.3758 -1.8609
  106OSM      P10783   1.183   0.898  10.915 -0.1621 -0.2533  0.2979
  106OSM    O1310784   1.094   0.998  10.984  0.3384  0.0618 -0.0946
  106OSM    O1410785   1.248   0.798  11.006  0.3900 -0.5489 -0.0675
  106OSM    O1110786   1.304   0.958  10.837  0.5983  0.5457  0.0565
  106OSM    O1210787   1.088   0.834  10.805 -0.2274  0.3453 -0.3624
  106OSM    C1S10788   1.401   0.884  10.762  0.2825 -0.1356  0.1506
  106OSM    H1S10789   1.401   0.778  10.796  2.4122 -1.2139 -2.9839
  106OSM    H1T10790   1.502   0.918  10.793  0.2101  0.9778 -0.7810
  106OSM     NF10791   1.474   0.829  10.542 -0.0385 -0.2591 -0.7434
  106OSM    HNF10792   1.556   0.864  10.497  1.1925  3.4017  3.9403
  106OSM    C2S10793   1.383   0.915  10.609  0.3032 -0.6058  0.1034
  106OSM    H2S10794   1.281   0.876  10.588  0.6488 -0.9668 -0.9318
  106OSM    C3S10795   1.392   1.065  10.574 -0.3338 -0.0462 -0.4546
  106OSM    H3S10796   1.488   1.106  10.614 -0.4297  0.0677 -0.3416
  106OSM     O310797   1.284   1.139  10.627  0.2589  0.3415 -0.2169
  106OSM    HO310798   1.252   1.084  10.699 -0.2578 -0.4812 -1.0750
  106OSM    C4S10799   1.388   1.084  10.425 -0.2303  0.0808 -0.0916
  106OSM    H4S10800   1.484   1.128  10.393  0.9905 -0.2492  2.9001
  106OSM    C5S10801   1.291   1.048  10.335 -0.0560 -0.2311 -0.3262
  106OSM    H5S10802   1.209   0.987  10.376  0.1164  1.4806  2.6813
  106OSM    C6S10803   1.291   1.070  10.184  0.3445 -0.6789  0.7291
  106OSM    H6S10804   1.229   1.159  10.159  1.3210  0.8605  3.5780
  106OSM    H6T10805   1.258   0.976  10.136  1.2384 -0.7600  0.2710
  106OSM    C7S10806   1.430   1.107  10.124  0.3333  0.4855  0.4664
  106OSM    H7S10807   1.512   1.049  10.172 -0.3742 -0.9949 -0.0740
  106OSM    H7T10808   1.442   1.213  10.153  0.3150  0.1543  1.6995
  106OSM    C8S10809   1.456   1.085   9.976  0.2245 -0.0020 -0.6960
  106OSM    H8S10810   1.441   0.979   9.948 -0.4684  0.0823 -0.6440
  106OSM    H8T10811   1.564   1.104   9.959  0.8358 -2.3166  0.3967
  106OSM    C9S10812   1.382   1.179   9.875  0.3272  0.8120  0.6803
  106OSM    H9S10813   1.406   1.283   9.906 -1.5670  1.6210 -0.5267
  106OSM    H9T10814   1.271   1.180   9.883  0.2046  2.1899 -0.8854
  106OSM   C10S10815   1.443   1.163   9.741  0.3790  0.5559 -0.1332
  106OSM   H10S10816   1.550   1.190   9.750  0.5280 -0.4490  1.2055
  106OSM   H10T10817   1.394   1.239   9.676  0.7075  1.5137  0.7254
  106OSM   C11S10818   1.420   1.025   9.679 -0.4024 -0.3183  0.6282
  106OSM   H11S10819   1.311   1.001   9.676 -0.3546 -0.3562 -1.9109
  106OSM   H11T10820   1.481   0.951   9.735 -0.7084  0.9104  2.6311
  106OSM   C12S10821   1.464   1.024   9.531  0.1404  0.1932  0.4645
  106OSM   H12S10822   1.466   0.919   9.494  0.3449  0.0186  0.9604
  106OSM   H12T10823   1.570   1.058   9.537 -0.7092  3.4391 -1.3901
  106OSM   C13S10824   1.383   1.114   9.435 -0.1945 -0.8840 -0.3226
  106OSM   H13S10825   1.408   1.220   9.461  1.7962 -1.5024  0.3585
  106OSM   H13T10826   1.275   1.092   9.444 -0.2173 -0.9330 -0.7403
  106OSM   C14S10827   1.415   1.101   9.285 -0.0808 -0.1703  0.3832
  106OSM   H14S10828   1.346   1.169   9.231 -0.8027  0.3282  1.9036
  106OSM   H14T10829   1.386   0.999   9.252 -1.6004  0.2534  0.3667
  106OSM   C15S10830   1.560   1.118   9.247  0.3065  0.9527  0.1075
  106OSM   H15S10831   1.633   1.054   9.301  2.1110  1.5901 -1.5010
  106OSM   H15T10832   1.599   1.216   9.281  1.1077  0.5405  0.3784
  106OSM   C16S10833   1.594   1.091   9.102 -0.5424  0.4079  0.1963
  106OSM   H16S10834   1.575   0.988   9.065 -0.4440 -0.0647  1.4178
  106OSM   H16T10835   1.704   1.109   9.106 -0.7191  1.3871  0.7088
  106OSM   C17S10836   1.527   1.184   9.003  0.3424 -0.3705  0.7104
  106OSM   H17S10837   1.572   1.286   8.997  1.1975 -0.8150 -0.6734
  106OSM   H17T10838   1.420   1.209   9.016 -0.1677 -0.9098 -2.1373
  106OSM   C18S10839   1.529   1.139   8.854  0.1527 -0.1327 -0.0234
  106OSM   H18S10840   1.475   1.205   8.782  4.3394  1.2708 -1.9945
  106OSM   H18T10841   1.494   1.034   8.862  0.1415 -0.0353  1.3074
  106OSM   H18U10842   1.635   1.139   8.823  0.2363  1.9695  0.1746
  106OSM    C1F10843   1.473   0.699  10.546 -0.4569 -0.0585  0.1516
  106OSM     OF10844   1.381   0.631  10.592 -0.5987 -0.1695  0.7363
  106OSM    C2F10845   1.607   0.638  10.509 -0.0217  0.8167  0.1396
  106OSM    H2F10846   1.640   0.565  10.586 -1.3082 -2.1924 -2.0794
  106OSM    H2G10847   1.680   0.722  10.506  1.0027 -0.0439  0.6943
  106OSM    C3F10848   1.605   0.580  10.363  0.0346 -0.7210  0.0603
  106OSM    H3F10849   1.515   0.516  10.352 -1.4994  1.5155 -0.6567
  106OSM    H3G10850   1.699   0.520  10.357 -0.0611 -1.0306  1.3977
  106OSM    C4F10851   1.598   0.697  10.255 -0.0804  0.3034  0.0890
  106OSM    H4F10852   1.681   0.768  10.276 -1.3110  1.1537  2.2564
  106OSM    H4G10853   1.504   0.756  10.267  0.4238  0.9750  0.8097
  106OSM    C5F10854   1.610   0.641  10.109 -0.3120 -0.5446 -0.5916
  106OSM    H5F10855   1.651   0.538  10.121 -1.9379 -1.1179  0.2349
  106OSM    H5G10856   1.676   0.718  10.064  1.7629 -2.3040 -0.6174
  106OSM    C6F10857   1.469   0.620  10.050  0.7700 -0.7801  0.0761
  106OSM    H6F10858   1.427   0.722  10.043  1.7860 -0.3667 -0.1197
  106OSM    H6G10859   1.402   0.574  10.125  1.3146 -0.9676  0.4507
  106OSM    C7F10860   1.466   0.558   9.916  0.0879 -0.2270  0.0763
  106OSM    H7F10861   1.362   0.520   9.903 -0.3116  1.3275 -1.5795
  106OSM    H7G10862   1.520   0.462   9.912 -2.7978 -1.8733 -0.4667
  106OSM    C8F10863   1.496   0.660   9.796  0.0477  0.0048  0.0246
  106OSM    H8F10864   1.606   0.670   9.782  0.0524 -1.3049 -0.8576
  106OSM    H8G10865   1.445   0.755   9.825 -1.3577 -0.1906 -1.7398
  106OSM    C9F10866   1.437   0.629   9.660 -0.0894 -0.0500  0.4972
  106OSM    H9F10867   1.340   0.578   9.656  0.2139 -0.6409  0.6165
  106OSM   C10F10868   1.497   0.654   9.546  0.0996  0.4718  0.0836
  106OSM   H10F10869   1.439   0.626   9.457  0.6419 -0.0332 -0.1099
  106OSM   C11F10870   1.634   0.719   9.523 -0.7404  0.5366  0.3246
  106OSM   H11F10871   1.718   0.653   9.552 -1.3977 -1.0146 -1.2315
  106OSM   H11G10872   1.635   0.817   9.577  3.0738  0.0021  1.3402
  106OSM   C12F10873   1.646   0.737   9.366 -0.1596  0.3251 -0.4807
  106OSM   H12F10874   1.691   0.839   9.364  1.3666 -0.2582  1.5269
  106OSM   H12G10875   1.549   0.755   9.315  0.4339  2.5094 -0.9008
  106OSM   C13F10876   1.720   0.632   9.283  0.1704 -0.2745 -0.2049
  106OSM   H13F10877   1.651   0.545   9.279 -1.5588  0.9290  1.9212
  106OSM   H13G10878   1.802   0.595   9.349  1.0568  1.8644 -0.0780
  106OSM   C14F10879   1.771   0.686   9.150  0.9259 -0.2367 -0.2038
  106OSM   H14F10880   1.845   0.767   9.168 -1.6426  2.4970 -1.4403
  106OSM   H14G10881   1.688   0.736   9.095 -0.3764 -1.2480  0.8140
  106OSM   C15F10882   1.826   0.568   9.059 -0.6141  0.4650  0.5392
  106OSM   H15F10883   1.745   0.492   9.059  0.7266 -0.9850  1.7571
  106OSM   H15G10884   1.919   0.531   9.107  0.1009  0.3614 -0.9110
  106OSM   C16F10885   1.851   0.630   8.928 -0.5733  1.1437 -0.5058
  106OSM   H16F10886   1.933   0.706   8.928 -1.1884  1.8180  0.8681
  106OSM   H16G10887   1.760   0.676   8.886 -1.2677  1.4751  1.3388
  106OSM   C17F10888   1.907   0.533   8.823  0.1121  0.1246 -0.6163
  106OSM   H17F10889   1.896   0.570   8.719  3.0995 -3.8206 -2.4782
  106OSM   H17G10890   1.844   0.441   8.828 -1.3332  1.1838  0.9393
  106OSM   C18F10891   2.048   0.485   8.853 -0.4231 -0.1361 -0.3470
  106OSM   H18F10892   2.047   0.439   8.955  0.5054  1.9846  0.6579
  106OSM   H18G10893   2.121   0.568   8.841 -0.7333  0.5174  1.9731
  106OSM   H18H10894   2.068   0.398   8.788 -0.7360 -0.0249 -0.5946
  107OSM      N10895   3.623   6.114  10.947 -0.0766 -0.1554 -0.1276
  107OSM    C1510896   3.661   6.020  11.060  0.5758 -0.0008  0.3163
  107OSM   H15A10897   3.681   6.068  11.155  0.5370 -1.2783  0.9825
  107OSM   H15B10898   3.748   5.965  11.025 -0.4656 -2.1697  1.0656
  107OSM   H15C10899   3.584   5.946  11.079 -0.1404  0.3186 -1.3145
  107OSM    C1410900   3.607   6.042  10.821 -0.1293 -0.7335  0.0785
  107OSM   H14A10901   3.701   6.004  10.784 -1.3782 -3.0814 -0.7586
  107OSM   H14B10902   3.568   6.112  10.748  1.2737 -0.7454 -0.6976
  107OSM   H14C10903   3.537   5.960  10.826 -1.0772  0.0209 -0.4255
  107OSM    C1310904   3.490   6.180  10.982  0.3374  0.0302 -0.1302
  107OSM   H13A10905   3.507   6.233  11.075  2.0413  0.4050 -0.6455
  107OSM   H13B10906   3.403   6.115  10.981 -0.2581  0.7740  1.1351
  107OSM   H13C10907   3.476   6.258  10.910 -1.3649  1.0732  1.2697
  107OSM    C1210908   3.719   6.238  10.937  0.0455 -0.0319 -0.1272
  107OSM   H12A10909   3.726   6.286  11.034 -0.7668 -0.6159  0.2215
  107OSM   H12B10910   3.679   6.315  10.874  0.7356  2.7901  2.7261
  107OSM    C1110911   3.857   6.202  10.888 -0.0196  0.5140 -0.2400
  107OSM   H11A10912   3.930   6.285  10.880  0.6541  0.0934  1.2431
  107OSM   H11B10913   3.843   6.166  10.784 -2.4215 -1.2204  0.6290
  107OSM      P10914   4.013   5.987  10.900 -0.2504 -0.7044 -0.1590
  107OSM    O1310915   4.152   6.021  10.917 -0.3005 -0.0568  0.1696
  107OSM    O1410916   3.979   5.856  10.959 -0.1769 -0.1421  0.3995
  107OSM    O1110917   3.974   5.990  10.746 -0.3308  0.3079 -0.4426
  107OSM    O1210918   3.923   6.099  10.967  0.1611  0.6610  0.2703
  107OSM    C1S10919   4.072   6.030  10.654 -0.4092 -0.0349  0.3195
  107OSM    H1S10920   4.169   5.979  10.674  0.2725  1.6376  1.3461
  107OSM    H1T10921   4.110   6.134  10.667  1.4263 -0.7150  0.5446
  107OSM     NF10922   4.163   5.993  10.420 -0.3656  0.3093  0.1912
  107OSM    HNF10923   4.175   6.072  10.361 -0.9199  1.4163  1.5306
  107OSM    C2S10924   4.044   5.984  10.505  0.8020  0.2803 -0.5516
  107OSM    H2S10925   4.034   5.874  10.518  0.8644  0.3524  0.1233
  107OSM    C3S10926   3.911   6.036  10.438 -0.6203  0.1984 -0.3906
  107OSM    H3S10927   3.923   6.141  10.404 -0.9703  0.3733  0.0137
  107OSM     O310928   3.799   6.055  10.524 -0.1822 -0.1943 -0.6655
  107OSM    HO310929   3.859   6.046  10.598  0.3341 -0.0920 -1.0707
  107OSM    C4S10930   3.896   5.960  10.306  0.8117 -0.3846 -0.7485
  107OSM    H4S10931   3.947   6.005  10.220  1.4059 -1.5916 -1.0423
  107OSM    C5S10932   3.820   5.844  10.279  0.4053  0.4676 -0.4778
  107OSM    H5S10933   3.760   5.796  10.358  0.4444 -3.3736 -2.6466
  107OSM    C6S10934   3.793   5.785  10.139 -0.5833 -0.0782  0.6216
  107OSM    H6S10935   3.683   5.770  10.130 -0.3690 -0.9915 -0.5702
  107OSM    H6T10936   3.831   5.681  10.150  1.5137  0.1862 -3.1570
  107OSM    C7S10937   3.853   5.855  10.022  0.0442  0.1368  0.0655
  107OSM    H7S10938   3.866   5.786   9.937 -0.9858 -0.8698  0.7071
  107OSM    H7T10939   3.953   5.896  10.046 -0.9931  2.2736  0.9424
  107OSM    C8S10940   3.755   5.964   9.971  0.5009  0.6549 -0.3386
  107OSM    H8S10941   3.714   6.034  10.046 -3.6761 -0.7747 -1.1617
  107OSM    H8T10942   3.660   5.921   9.932  0.6396 -1.3129  1.4096
  107OSM    C9S10943   3.820   6.045   9.859 -0.4177  0.3919  0.3401
  107OSM    H9S10944   3.925   6.074   9.882  0.9678  0.0936 -4.8462
  107OSM    H9T10945   3.764   6.137   9.833 -0.5125  0.3352  0.3459
  107OSM   C10S10946   3.802   5.974   9.727  0.5967 -0.2054  0.4211
  107OSM   H10S10947   3.694   5.950   9.717  0.0109  1.9799  1.2122
  107OSM   H10T10948   3.863   5.881   9.723  0.5327 -0.1916 -1.2290
  107OSM   C11S10949   3.838   6.051   9.603 -0.2132 -0.1471 -0.3736
  107OSM   H11S10950   3.941   6.092   9.612 -0.3977  0.0233  1.0473
  107OSM   H11T10951   3.780   6.145   9.608  0.8985  0.5607 -0.5146
  107OSM   C12S10952   3.822   5.979   9.471 -0.3009 -0.1385 -0.1120
  107OSM   H12S10953   3.714   5.968   9.448  0.1891 -0.6684 -2.2722
  107OSM   H12T10954   3.876   5.882   9.478 -0.9736 -0.3796  2.0121
  107OSM   C13S10955   3.883   6.060   9.361  0.6322  0.0438  0.2671
  107OSM   H13S10956   3.990   6.080   9.384  0.2123 -0.6038  3.0759
  107OSM   H13T10957   3.836   6.161   9.357  1.9137  0.6162 -0.3614
  107OSM   C14S10958   3.879   5.978   9.225 -0.0406  0.2736 -0.4416
  107OSM   H14S10959   3.771   5.964   9.203 -0.0380 -0.7462  0.1862
  107OSM   H14T10960   3.925   5.878   9.239 -1.5497 -0.5062 -0.9798
  107OSM   C15S10961   3.948   6.050   9.111 -0.2704  0.5036  0.1000
  107OSM   H15S10962   4.051   6.074   9.145 -1.0066  2.3026  1.0986
  107OSM   H15T10963   3.895   6.145   9.090 -0.1049  0.6641  0.4006
  107OSM   C16S10964   3.960   5.973   8.981  0.0412  0.0531  0.2370
  107OSM   H16S10965   3.858   5.949   8.945 -0.0895 -0.9013  1.2014
  107OSM   H16T10966   4.011   5.875   8.994 -2.1731 -0.9734  1.4940
  107OSM   C17S10967   4.045   6.049   8.890  0.0764  0.8679 -0.5582
  107OSM   H17S10968   4.152   6.050   8.920 -0.1397 -0.5837  0.3412
  107OSM   H17T10969   4.016   6.156   8.895 -2.0299  0.2603  0.6302
  107OSM   C18S10970   4.026   5.992   8.751 -0.7626 -0.1841 -0.2416
  107OSM   H18S10971   3.927   6.027   8.714 -1.2564  0.3698  1.5453
  107OSM   H18T10972   4.033   5.882   8.749  0.0994 -0.1219 -1.6964
  107OSM   H18U10973   4.102   6.026   8.677  2.5398 -0.8908  2.6993
  107OSM    C1F10974   4.274   5.917  10.435  0.2058  0.3307  0.0895
  107OSM     OF10975   4.270   5.825  10.517  0.1471  0.2018 -0.6338
  107OSM    C2F10976   4.399   5.960  10.353 -0.8105 -0.0937 -0.8558
  107OSM    H2F10977   4.485   5.997  10.413 -0.9108  0.7689 -1.2432
  107OSM    H2G10978   4.378   6.028  10.268  2.2109  0.3195 -1.3461
  107OSM    C3F10979   4.452   5.826  10.285  0.2169 -0.5619 -0.2020
  107OSM    H3F10980   4.458   5.753  10.368  1.9871  0.0527  0.2468
  107OSM    H3G10981   4.554   5.854  10.251  0.1858 -1.5607 -1.1641
  107OSM    C4F10982   4.380   5.767  10.161  0.1921  0.0263 -0.9198
  107OSM    H4F10983   4.356   5.848  10.088 -0.6791 -1.2401 -2.0470
  107OSM    H4G10984   4.282   5.729  10.196  0.5289  0.5892  0.6938
  107OSM    C5F10985   4.455   5.645  10.098  0.1274 -0.8005  0.0731
  107OSM    H5F10986   4.478   5.571  10.178  1.9661 -0.1298  0.1843
  107OSM    H5G10987   4.551   5.690  10.066  0.7260 -0.2750  2.4651
  107OSM    C6F10988   4.374   5.587   9.986  0.2394 -0.7697  0.5485
  107OSM    H6F10989   4.305   5.509  10.027  0.0111 -0.6111  0.4667
  107OSM    H6G10990   4.443   5.527   9.923  2.1904  0.7606  1.1720
  107OSM    C7F10991   4.296   5.688   9.897 -0.2441 -0.6344  0.9032
  107OSM    H7F10992   4.363   5.774   9.873 -0.6047 -1.1228 -2.1069
  107OSM    H7G10993   4.206   5.717   9.954 -1.6380 -2.5183 -0.2638
  107OSM    C8F10994   4.246   5.627   9.765  0.2053  0.9713  0.0335
  107OSM    H8F10995   4.193   5.530   9.780  1.0085  0.6104  0.5989
  107OSM    H8G10996   4.341   5.613   9.709 -0.5185  0.2660 -1.0381
  107OSM    C9F10997   4.153   5.736   9.713  0.4253  0.5824 -0.1368
  107OSM    H9F10998   4.086   5.775   9.791 -0.3406  0.6125 -0.8070
  107OSM   C10F10999   4.154   5.793   9.588 -0.0426 -0.4751  0.1720
  107OSM   H10F11000   4.077   5.869   9.565 -0.1343 -0.2032  1.3413
  107OSM   C11F11001   4.250   5.769   9.477  0.1875 -0.9242 -0.1082
  107OSM   H11F11002   4.310   5.677   9.496  0.4239 -0.7778 -0.1530
  107OSM   H11G11003   4.313   5.859   9.464  0.9116 -1.3758  0.2231
  107OSM   C12F11004   4.193   5.743   9.334  0.8850 -0.1435  0.2432
  107OSM   H12F11005   4.136   5.831   9.297 -1.6429 -2.6799 -2.1549
  107OSM   H12G11006   4.120   5.660   9.332 -1.1228  1.5743  0.5838
  107OSM   C13F11007   4.310   5.719   9.238 -0.3786  0.6751 -0.6065
  107OSM   H13F11008   4.370   5.632   9.270 -1.8938  0.2002  0.9712
  107OSM   H13G11009   4.371   5.812   9.240  0.8946 -0.1513 -0.7271
  107OSM   C14F11010   4.259   5.678   9.096 -0.2404  0.2791 -0.7631
  107OSM   H14F11011   4.219   5.766   9.042 -2.3999 -0.2960 -0.1849
  107OSM   H14G11012   4.174   5.606   9.092  0.2368 -0.2977 -0.7640
  107OSM   C15F11013   4.366   5.631   8.998 -0.3837 -0.5542 -0.0673
  107OSM   H15F11014   4.317   5.631   8.899  0.3999 -0.6041 -0.4635
  107OSM   H15G11015   4.394   5.526   9.022 -0.6602 -0.6442 -0.1484
  107OSM   C16F11016   4.495   5.711   8.985  0.0992 -0.0732 -0.0716
  107OSM   H16F11017   4.551   5.664   8.901  1.2450 -1.0609  1.2301
  107OSM   H16G11018   4.553   5.692   9.078  0.0582  2.7201  0.5506
  107OSM   C17F11019   4.481   5.863   8.960 -0.0511 -0.1558  0.4613
  107OSM   H17F11020   4.575   5.921   8.970  0.8320 -1.2836 -1.1095
  107OSM   H17G11021   4.426   5.898   9.050  2.4135 -0.9393  2.3261
  107OSM   C18F11022   4.414   5.884   8.829 -0.1115 -0.1753  0.2542
  107OSM   H18F11023   4.392   5.992   8.815  2.8664  0.3589 -0.7728
  107OSM   H18G11024   4.314   5.836   8.823 -0.1285  0.0260 -1.2607
  107OSM   H18H11025   4.471   5.854   8.738  0.4219  2.0726 -0.1878
  108OSM      N11026   1.310   0.220  10.501  1.0808 -0.6468  0.4170
  108OSM    C1511027   1.334   0.248  10.348 -0.3001  0.2159  0.5358
  108OSM   H15A11028   1.369   0.152  10.314  0.0780  0.3765  0.4709
  108OSM   H15B11029   1.395   0.337  10.337  0.0629 -0.2008 -0.8268
  108OSM   H15C11030   1.244   0.286  10.301 -0.0227  3.6895  2.5847
  108OSM    C1411031   1.433   0.162  10.561 -0.3155  0.7815 -0.4191
  108OSM   H14A11032   1.418   0.132  10.664  0.2164  2.2261  0.0767
  108OSM   H14B11033   1.519   0.228  10.563  1.0252 -0.9170 -0.7322
  108OSM   H14C11034   1.460   0.072  10.508 -0.7922 -0.1898  0.9440
  108OSM    C1311035   1.269   0.338  10.579  0.0214 -0.1288  0.1546
  108OSM   H13A11036   1.347   0.412  10.586 -0.4340  0.3324  0.3760
  108OSM   H13B11037   1.260   0.302  10.680 -0.9751 -0.2476  0.0250
  108OSM   H13C11038   1.183   0.391  10.542  0.1835  1.3052  1.7637
  108OSM    C1211039   1.197   0.113  10.506 -0.3686  0.3172 -0.0217
  108OSM   H12A11040   1.234   0.023  10.460  1.3031  0.2561  1.4062
  108OSM   H12B11041   1.118   0.145  10.440  0.2094 -0.3377 -1.0505
  108OSM    C1111042   1.130   0.084  10.639  0.0451 -0.4069  0.1177
  108OSM   H11A11043   1.204   0.079  10.722  0.1808  0.8579  0.0866
  108OSM   H11B11044   1.071  -0.009  10.627  2.2553 -1.6931 -0.9763
  108OSM      P11045   0.908   0.199  10.744  0.2002  0.1329 -0.3474
  108OSM    O1311046   0.931   0.162  10.884  0.9579  0.5269  0.5040
  108OSM    O1411047   0.854   0.334  10.719 -0.3869  0.7443  0.2223
  108OSM    O1111048   0.816   0.093  10.680  0.1852 -0.4768  0.6751
  108OSM    O1211049   1.045   0.195  10.677 -0.0713 -0.4304 -0.2303
  108OSM    C1S11050   0.712   0.138  10.589  0.6731  0.1383 -0.1315
  108OSM    H1S11051   0.669   0.240  10.598 -2.7216 -1.3054  1.1681
  108OSM    H1T11052   0.624   0.072  10.609  0.5377  0.6589  1.0115
  108OSM     NF11053   0.672   0.174  10.340  0.3960  0.1549  0.4684
  108OSM    HNF11054   0.584   0.133  10.319 -0.1414  1.1950  0.6620
  108OSM    C2S11055   0.756   0.104  10.442  0.2028 -0.4814  0.0438
  108OSM    H2S11056   0.860   0.141  10.432  0.0550 -0.0998 -0.0965
  108OSM    C3S11057   0.762  -0.046  10.430  0.1379  0.1774 -0.1147
  108OSM    H3S11058   0.658  -0.081  10.447  0.2447  1.1870  2.8581
  108OSM     O311059   0.845  -0.116  10.519  0.1673 -0.6881  0.2844
  108OSM    HO311060   0.858  -0.053  10.590  0.3977  2.6793 -2.5685
  108OSM    C4S11061   0.806  -0.094  10.296  0.5223 -0.5662 -0.6650
  108OSM    H4S11062   0.890  -0.036  10.255  0.6948  0.0052  0.4636
  108OSM    C5S11063   0.739  -0.188  10.225 -0.1077  0.0666  0.8627
  108OSM    H5S11064   0.648  -0.228  10.271  0.7364  0.2774  2.7702
  108OSM    C6S11065   0.779  -0.251  10.093  0.4667  0.2050  0.0406
  108OSM    H6S11066   0.748  -0.358  10.094 -0.5790  0.4314 -2.6106
  108OSM    H6T11067   0.888  -0.254  10.074  0.6285 -0.3511  1.0354
  108OSM    C7S11068   0.712  -0.180   9.973 -1.0800  0.0713  0.4803
  108OSM    H7S11069   0.761  -0.080   9.965 -1.3010  0.0548 -1.1005
  108OSM    H7T11070   0.602  -0.164   9.981 -1.1756 -0.3278 -0.0601
  108OSM    C8S11071   0.753  -0.259   9.850  0.0097  0.1661 -0.5902
  108OSM    H8S11072   0.698  -0.354   9.861 -2.5924  1.5238 -1.4106
  108OSM    H8T11073   0.861  -0.283   9.851  0.2949  1.3973 -0.4531
  108OSM    C9S11074   0.690  -0.206   9.717  0.4404  0.2723  0.2554
  108OSM    H9S11075   0.729  -0.103   9.701  0.3358  0.2643 -0.0465
  108OSM    H9T11076   0.583  -0.191   9.742  0.5139 -0.4508  1.0179
  108OSM   C10S11077   0.724  -0.298   9.599 -0.4496 -0.9487 -0.4340
  108OSM   H10S11078   0.666  -0.393   9.594 -1.7696 -0.0818 -1.9580
  108OSM   H10T11079   0.833  -0.322   9.597 -0.2351 -0.1075  0.6147
  108OSM   C11S11080   0.684  -0.227   9.467  0.1300  0.5698  1.2564
  108OSM   H11S11081   0.763  -0.151   9.448 -0.8472  1.5743  1.1446
  108OSM   H11T11082   0.592  -0.167   9.482 -1.2168 -0.7300 -1.5277
  108OSM   C12S11083   0.664  -0.317   9.349 -0.2758  0.3141  0.6836
  108OSM   H12S11084   0.582  -0.386   9.376 -0.5119 -0.0574 -0.8940
  108OSM   H12T11085   0.746  -0.388   9.327 -0.8144 -0.2627  0.4984
  108OSM   C13S11086   0.615  -0.238   9.225  0.7789 -0.3083  0.6281
  108OSM   H13S11087   0.535  -0.161   9.236 -0.7556 -1.8400  0.4743
  108OSM   H13T11088   0.569  -0.315   9.160  0.2792  2.3404 -2.2941
  108OSM   C14S11089   0.736  -0.177   9.146  0.0419 -0.0842  0.0107
  108OSM   H14S11090   0.823  -0.246   9.135  2.0421  2.4118 -0.5473
  108OSM   H14T11091   0.777  -0.094   9.208 -0.6003  1.0858 -1.1062
  108OSM   C15S11092   0.692  -0.122   9.014  0.4928  0.0568  0.6787
  108OSM   H15S11093   0.771  -0.056   8.972  0.0809 -1.3416 -2.4017
  108OSM   H15T11094   0.604  -0.055   9.028 -0.5057 -1.1092 -0.0123
  108OSM   C16S11095   0.648  -0.221   8.911 -0.1054 -0.2148  0.2335
  108OSM   H16S11096   0.551  -0.268   8.939  0.3520 -0.6729  1.0629
  108OSM   H16T11097   0.709  -0.314   8.901 -4.2246 -2.9921 -0.3498
  108OSM   C17S11098   0.633  -0.171   8.767  0.3943  0.1484 -0.1399
  108OSM   H17S11099   0.734  -0.144   8.729 -0.3709  1.0120 -1.6066
  108OSM   H17T11100   0.579  -0.074   8.768 -0.4569 -0.2690 -2.3575
  108OSM   C18S11101   0.574  -0.284   8.683  0.5873  0.3857  0.3035
  108OSM   H18S11102   0.492  -0.345   8.728  1.0912 -0.3887  0.1899
  108OSM   H18T11103   0.658  -0.355   8.670  0.5288  0.4704 -0.5558
  108OSM   H18U11104   0.548  -0.242   8.583 -0.0252 -1.9844 -0.5859
  108OSM    C1F11105   0.690   0.298  10.298 -0.8087 -0.7871 -0.1890
  108OSM     OF11106   0.788   0.366  10.342  0.4408  0.0760 -0.3813
  108OSM    C2F11107   0.581   0.355  10.212  0.1916  0.0429 -0.2361
  108OSM    H2F11108   0.577   0.465  10.227  0.1984  0.0870 -0.5443
  108OSM    H2G11109   0.486   0.329  10.262 -0.8273  0.1332 -2.0560
  108OSM    C3F11110   0.585   0.307  10.062  0.2567 -0.5418 -0.8353
  108OSM    H3F11111   0.570   0.197  10.068 -1.4519 -0.3588 -1.6362
  108OSM    H3G11112   0.683   0.323  10.012  1.3117  0.1831  1.4197
  108OSM    C4F11113   0.463   0.361   9.978 -0.2929 -0.8779 -0.4249
  108OSM    H4F11114   0.478   0.471   9.966  0.0393 -0.8636  0.0854
  108OSM    H4G11115   0.379   0.348  10.049  2.6724 -0.0732  3.4214
  108OSM    C5F11116   0.446   0.284   9.843  0.2625  0.0241  0.1273
  108OSM    H5F11117   0.350   0.318   9.798  0.5997  1.6967  0.6234
  108OSM    H5G11118   0.435   0.178   9.872  0.7374 -0.0696 -0.0324
  108OSM    C6F11119   0.569   0.303   9.745 -0.5428  0.0677 -0.4357
  108OSM    H6F11120   0.663   0.270   9.794 -1.1757 -1.7814 -0.4336
  108OSM    H6G11121   0.579   0.412   9.726  2.1572  0.0867  0.8246
  108OSM    C7F11122   0.547   0.225   9.611 -0.1707 -0.9743 -0.3739
  108OSM    H7F11123   0.456   0.271   9.565  0.0048 -0.1680  0.0741
  108OSM    H7G11124   0.527   0.118   9.631 -0.8951 -0.7004  0.3828
  108OSM    C8F11125   0.670   0.235   9.520  0.0725  0.1818  0.2761
  108OSM    H8F11126   0.757   0.195   9.575 -0.9971 -0.3751  1.5881
  108OSM    H8G11127   0.694   0.336   9.481  0.0881 -0.7164 -2.1156
  108OSM    C9F11128   0.653   0.147   9.397  0.5996  0.5004  0.1203
  108OSM    H9F11129   0.696   0.046   9.405 -0.1842  0.0515 -1.1040
  108OSM   C10F11130   0.601   0.184   9.279 -0.1160 -0.6152  0.5450
  108OSM   H10F11131   0.594   0.110   9.198 -1.1804 -1.0075  0.9850
  108OSM   C11F11132   0.547   0.311   9.235 -0.5014 -0.2117  0.3549
  108OSM   H11F11133   0.536   0.376   9.325  0.5537  1.1278 -0.4748
  108OSM   H11G11134   0.444   0.309   9.193  0.2786 -0.3517 -1.5757
  108OSM   C12F11135   0.639   0.379   9.141 -0.2709  0.7397  0.6297
  108OSM   H12F11136   0.746   0.361   9.165  0.3346  1.1834 -1.6471
  108OSM   H12G11137   0.623   0.489   9.144 -1.9396  0.7050 -3.3606
  108OSM   C13F11138   0.628   0.327   8.990 -0.0335  0.2564  0.4762
  108OSM   H13F11139   0.538   0.365   8.937 -0.5804 -0.6067  0.7753
  108OSM   H13G11140   0.630   0.218   9.007  1.1364  0.5183  2.1690
  108OSM   C14F11141   0.752   0.355   8.900  0.5236 -0.1375 -0.2600
  108OSM   H14F11142   0.828   0.396   8.970 -1.2629  1.3489  0.8290
  108OSM   H14G11143   0.737   0.431   8.819 -0.6097 -1.0345 -0.9041
  108OSM   C15F11144   0.803   0.223   8.833 -0.5960 -0.2873 -0.1654
  108OSM   H15F11145   0.720   0.177   8.775 -0.4977 -0.8136  0.1043
  108OSM   H15G11146   0.828   0.148   8.911  0.3576  0.2005  0.0075
  108OSM   C16F11147   0.921   0.242   8.742 -0.4244 -0.0027 -0.5030
  108OSM   H16F11148   1.004   0.271   8.810 -0.0552  0.1908 -1.0324
  108OSM   H16G11149   0.894   0.329   8.679 -0.9681 -0.6258 -1.1319
  108OSM   C17F11150   0.949   0.122   8.656  0.2955 -0.0069  0.0629
  108OSM   H17F11151   0.859   0.091   8.598 -1.1771  1.2028  1.6310
  108OSM   H17G11152   0.955   0.038   8.728  1.4153 -1.1738 -1.3404
  108OSM   C18F11153   1.064   0.137   8.560 -0.4095 -0.0940  0.4611
  108OSM   H18F11154   1.044   0.202   8.472 -3.3134 -2.5502 -0.7806
  108OSM   H18G11155   1.111   0.045   8.519  0.3825 -0.2922  1.7610
  108OSM   H18H11156   1.149   0.198   8.597 -0.3551 -0.3909  0.8299
  109OSM      N11157   6.608   5.145  11.420 -0.0907  0.2403  0.0834
  109OSM    C1511158   6.700   5.219  11.512  0.0038 -0.3948  0.3074
  109OSM   H15A11159   6.787   5.233  11.449 -2.4472  0.4954 -3.0388
  109OSM   H15B11160   6.725   5.160  11.599  2.3930  1.2505  0.7806
  109OSM   H15C11161   6.663   5.317  11.540  2.1019  0.6260 -0.3871
  109OSM    C1411162   6.676   5.033  11.352  0.3440  0.5005  0.5395
  109OSM   H14A11163   6.605   4.986  11.285  0.8251  0.9307 -0.2914
  109OSM   H14B11164   6.714   4.955  11.416  2.4265  1.6250  0.7297
  109OSM   H14C11165   6.759   5.069  11.292 -2.3354  1.1018 -2.9701
  109OSM    C1311166   6.518   5.079  11.523  0.6978  0.2342  1.3997
  109OSM   H13A11167   6.576   5.013  11.586 -0.1333 -1.8679  0.0169
  109OSM   H13B11168   6.437   5.020  11.484  1.6448 -0.2376  0.1190
  109OSM   H13C11169   6.477   5.159  11.583 -0.2355 -1.3832  2.9963
  109OSM    C1211170   6.535   5.236  11.319  0.5055  0.0512 -0.2018
  109OSM   H12A11171   6.604   5.287  11.253  1.9672 -1.5192  0.0772
  109OSM   H12B11172   6.489   5.312  11.381  1.2134 -0.5306  1.0635
  109OSM    C1111173   6.432   5.163  11.237  0.3619 -0.4729  0.1933
  109OSM   H11A11174   6.384   5.249  11.186  1.0121  0.6485  1.4422
  109OSM   H11B11175   6.352   5.115  11.296 -0.8823 -0.2781 -1.2933
  109OSM      P11176   6.551   5.109  11.006  0.1147 -0.2861  0.2487
  109OSM    O1311177   6.633   5.230  11.024 -0.6907  0.8891  0.0988
  109OSM    O1411178   6.626   4.994  10.957  0.3357  0.2212 -0.4021
  109OSM    O1111179   6.430   5.140  10.914  0.0925 -0.6044 -0.1385
  109OSM    O1211180   6.477   5.070  11.138 -0.2713 -0.7054  0.3434
  109OSM    C1S11181   6.428   5.237  10.806 -0.2787  0.3051  0.2944
  109OSM    H1S11182   6.487   5.325  10.837  1.1533 -0.7370  0.5985
  109OSM    H1T11183   6.321   5.263  10.789 -0.7912 -1.7559  0.2079
  109OSM     NF11184   6.499   5.280  10.577 -0.1142  0.3066 -0.1642
  109OSM    HNF11185   6.418   5.291  10.520 -0.7472 -0.9343  0.4650
  109OSM    C2S11186   6.482   5.172  10.676 -0.0515  0.2809  0.2729
  109OSM    H2S11187   6.585   5.138  10.702  0.3794  0.3378 -1.2606
  109OSM    C3S11188   6.406   5.050  10.626 -0.1473 -1.1707  0.2506
  109OSM    H3S11189   6.297   5.056  10.611  0.1371  1.8513 -0.8176
  109OSM     O311190   6.427   4.936  10.712  0.2107 -0.0932 -0.2534
  109OSM    HO311191   6.466   4.973  10.791  2.3254  0.3698 -1.4721
  109OSM    C4S11192   6.483   5.012  10.496  0.1253  0.5327 -0.1708
  109OSM    H4S11193   6.588   4.984  10.505 -0.0719  0.1494  1.0678
  109OSM    C5S11194   6.433   5.017  10.373 -0.4473  0.3741 -0.0040
  109OSM    H5S11195   6.328   5.041  10.354 -0.2178  1.0112 -0.5085
  109OSM    C6S11196   6.522   4.977  10.249  0.0559 -0.0490 -0.3115
  109OSM    H6S11197   6.586   5.064  10.223 -0.3765  0.3811  0.0389
  109OSM    H6T11198   6.452   4.966  10.163 -2.5343  0.5975  1.6228
  109OSM    C7S11199   6.602   4.852  10.258  0.2060  0.0558  0.8815
  109OSM    H7S11200   6.533   4.766  10.272  0.4515 -0.4652 -0.9992
  109OSM    H7T11201   6.664   4.856  10.350  2.8337  1.5967 -0.8814
  109OSM    C8S11202   6.693   4.826  10.133 -0.2835 -0.5890 -0.9327
  109OSM    H8S11203   6.779   4.764  10.164 -1.4997 -1.2895  1.1764
  109OSM    H8T11204   6.726   4.922  10.087  2.1766 -0.4567  1.0250
  109OSM    C9S11205   6.611   4.749  10.022 -0.2953  0.2422 -0.8961
  109OSM    H9S11206   6.524   4.811   9.992 -1.0589  0.4093  1.5347
  109OSM    H9T11207   6.565   4.658  10.065 -1.2458  1.2658  0.2963
  109OSM   C10S11208   6.693   4.730   9.897  0.5448  0.3609 -0.7637
  109OSM   H10S11209   6.756   4.639   9.911 -2.0333 -1.0939  1.8261
  109OSM   H10T11210   6.757   4.816   9.868 -0.9144  1.4652 -0.7529
  109OSM   C11S11211   6.597   4.708   9.777 -0.2607 -0.1995 -0.0154
  109OSM   H11S11212   6.538   4.799   9.753 -0.6735  0.1849  2.3477
  109OSM   H11T11213   6.526   4.626   9.800  1.1761 -1.2312  0.7676
  109OSM   C12S11214   6.663   4.667   9.650 -1.0101 -0.3978  0.0360
  109OSM   H12S11215   6.688   4.561   9.674 -1.1731 -0.3225  0.5400
  109OSM   H12T11216   6.747   4.737   9.631 -2.3083  0.6279 -2.1263
  109OSM   C13S11217   6.554   4.662   9.551 -0.0118 -0.1547 -0.5977
  109OSM   H13S11218   6.504   4.761   9.540  0.5153  0.2695  0.7205
  109OSM   H13T11219   6.473   4.589   9.571 -1.1566  1.4668  0.8506
  109OSM   C14S11220   6.613   4.619   9.414 -0.1139 -0.8777  0.1871
  109OSM   H14S11221   6.640   4.512   9.405  0.3736 -0.8556  1.3051
  109OSM   H14T11222   6.703   4.682   9.396  1.7254 -2.4898  3.4569
  109OSM   C15S11223   6.506   4.635   9.306  0.3447  0.1022 -0.2457
  109OSM   H15S11224   6.445   4.724   9.333 -1.3498 -0.5510 -1.7821
  109OSM   H15T11225   6.429   4.555   9.302 -0.7123  0.9567  2.1943
  109OSM   C16S11226   6.554   4.654   9.160  0.0712 -0.6595 -0.4780
  109OSM   H16S11227   6.656   4.697   9.162 -0.3534  0.2938  2.5025
  109OSM   H16T11228   6.492   4.736   9.117  1.8796  0.7410 -0.4696
  109OSM   C17S11229   6.527   4.533   9.067  0.2161  0.3040 -0.7016
  109OSM   H17S11230   6.416   4.527   9.063  0.0912  2.1551 -0.6154
  109OSM   H17T11231   6.571   4.440   9.107  0.8251  0.9175  0.0619
  109OSM   C18S11232   6.570   4.544   8.922 -0.5040  0.1865  0.4186
  109OSM   H18S11233   6.677   4.523   8.900 -0.3176  1.0849  0.4178
  109OSM   H18T11234   6.542   4.645   8.885  0.9543  0.8924  1.1875
  109OSM   H18U11235   6.514   4.473   8.858 -2.3608  1.3842  0.6634
  109OSM    C1F11236   6.586   5.382  10.610  0.1455 -0.2112  0.0124
  109OSM     OF11237   6.692   5.347  10.668  0.5747 -0.5097 -0.1952
  109OSM    C2F11238   6.560   5.519  10.564 -0.2729 -0.6215 -0.0923
  109OSM    H2F11239   6.645   5.567  10.617  0.4040 -0.9440 -0.8734
  109OSM    H2G11240   6.464   5.564  10.596  0.2524  0.8981 -0.6138
  109OSM    C3F11241   6.550   5.532  10.408  0.2260  0.0543  0.1248
  109OSM    H3F11242   6.554   5.639  10.377  1.8510  0.4911  1.7543
  109OSM    H3G11243   6.449   5.502  10.373 -0.4917  0.9626  1.4135
  109OSM    C4F11244   6.646   5.457  10.318  0.0767 -0.2838  0.6299
  109OSM    H4F11245   6.644   5.347  10.332  0.2002 -0.2698  0.7605
  109OSM    H4G11246   6.749   5.498  10.329 -0.0510 -0.0941  1.1155
  109OSM    C5F11247   6.623   5.471  10.164 -0.1695  1.0029 -0.0706
  109OSM    H5F11248   6.599   5.574  10.129  1.8979  1.3136 -0.6740
  109OSM    H5G11249   6.546   5.393  10.147  0.2065  0.8060 -0.9098
  109OSM    C6F11250   6.736   5.413  10.086 -0.4425  0.9514  0.6605
  109OSM    H6F11251   6.756   5.311  10.124 -0.0375  1.5974  2.2125
  109OSM    H6G11252   6.831   5.465  10.112 -0.5663  0.4784  2.0994
  109OSM    C7F11253   6.727   5.408   9.934  0.0659  0.5192  0.1177
  109OSM    H7F11254   6.758   5.504   9.889 -2.9584 -0.0187 -3.3752
  109OSM    H7G11255   6.621   5.397   9.900  0.3564 -0.9820 -0.3670
  109OSM    C8F11256   6.802   5.295   9.866  0.5889 -0.2918 -0.2685
  109OSM    H8F11257   6.901   5.279   9.912  1.7499 -0.4505 -2.7456
  109OSM    H8G11258   6.834   5.311   9.761  1.8880 -2.3597 -0.2000
  109OSM    C9F11259   6.730   5.165   9.883  0.0358  0.1189  0.8093
  109OSM    H9F11260   6.717   5.133   9.987 -1.8847 -1.1712  0.1884
  109OSM   C10F11261   6.688   5.084   9.787 -0.5184 -0.2982  0.1831
  109OSM   H10F11262   6.633   4.989   9.798 -1.3507  0.0605 -0.8298
  109OSM   C11F11263   6.707   5.111   9.639 -0.7088 -0.4297  0.2108
  109OSM   H11F11264   6.758   5.021   9.600 -1.1703 -0.8641  0.6027
  109OSM   H11G11265   6.765   5.203   9.615  0.3963 -0.1920  3.5481
  109OSM   C12F11266   6.567   5.135   9.574 -0.2815  0.7314 -0.1251
  109OSM   H12F11267   6.524   5.229   9.615 -0.3475  0.1478  1.1765
  109OSM   H12G11268   6.502   5.051   9.606  0.0156  0.2982 -0.6531
  109OSM   C13F11269   6.575   5.151   9.418  0.1467  0.5068  0.1020
  109OSM   H13F11270   6.637   5.240   9.394  0.4140  0.4908  0.7257
  109OSM   H13G11271   6.474   5.178   9.381 -0.2688 -2.7896 -1.3357
  109OSM   C14F11272   6.623   5.021   9.340 -0.2776  0.4332  0.5076
  109OSM   H14F11273   6.559   4.936   9.372 -0.7319  0.7651  0.4988
  109OSM   H14G11274   6.727   4.997   9.371 -0.4924 -1.4378 -0.1578
  109OSM   C15F11275   6.613   5.045   9.190  0.5503  0.1834 -0.0811
  109OSM   H15F11276   6.670   4.962   9.142  1.6691  0.6729  0.3892
  109OSM   H15G11277   6.662   5.144   9.177 -2.6148  1.7672 -0.3919
  109OSM   C16F11278   6.470   5.060   9.127  0.3036  0.7258  0.6443
  109OSM   H16F11279   6.418   5.152   9.162  0.0300  1.4661 -1.6271
  109OSM   H16G11280   6.393   4.988   9.161 -0.2728  1.5145  1.0007
  109OSM   C17F11281   6.488   5.051   8.978 -0.3310  0.2028 -0.3071
  109OSM   H17F11282   6.492   4.944   8.949  2.0027  0.5476 -1.4061
  109OSM   H17G11283   6.582   5.100   8.943 -1.4202  2.5790 -0.0097
  109OSM   C18F11284   6.380   5.117   8.895  0.0442  0.3183 -0.4773
  109OSM   H18F11285   6.372   5.218   8.940 -2.0049 -0.0611  0.0404
  109OSM   H18G11286   6.279   5.072   8.905  0.5964 -0.1560  4.3615
  109OSM   H18H11287   6.419   5.125   8.791  1.8416 -0.5300  0.1095
  110OSM      N11288   0.410   3.158  11.011  0.3169  0.4348  0.8447
  110OSM    C1511289   0.316   3.097  11.113 -0.4872  0.2481  0.6791
  110OSM   H15A11290   0.370   3.047  11.192 -0.9834 -0.2288  0.7215
  110OSM   H15B11291   0.266   3.015  11.063  1.2356 -1.4000  1.6168
  110OSM   H15C11292   0.241   3.162  11.155  0.3608  1.3468  0.4923
  110OSM    C1411293   0.471   3.039  10.946  0.5613 -1.0946 -0.0309
  110OSM   H14A11294   0.401   2.985  10.884 -0.4667 -0.3439  0.4625
  110OSM   H14B11295   0.518   2.974  11.018  1.1682 -1.0974 -0.4247
  110OSM   H14C11296   0.551   3.070  10.880  0.8417  2.3988  1.7882
  110OSM    C1311297   0.324   3.239  10.916  0.1748  0.1469  0.0326
  110OSM   H13A11298   0.273   3.320  10.966  0.9746 -0.8597  2.5722
  110OSM   H13B11299   0.242   3.179  10.877  1.1682 -1.4688  0.3711
  110OSM   H13C11300   0.381   3.279  10.834  0.7567 -0.3393  0.1984
  110OSM    C1211301   0.517   3.247  11.066 -0.6772  0.5530  0.4196
  110OSM   H12A11302   0.570   3.288  10.981 -2.0227 -1.2739 -1.3418
  110OSM   H12B11303   0.579   3.183  11.127 -2.9408 -1.4081  0.7472
  110OSM    C1111304   0.466   3.367  11.151  0.5529  0.5571 -0.2125
  110OSM   H11A11305   0.557   3.404  11.202  0.7349 -0.4341  0.1819
  110OSM   H11B11306   0.393   3.325  11.224 -0.7681 -2.5326 -3.1408
  110OSM      P11307   0.445   3.623  11.083  0.1024 -0.2543  0.1288
  110OSM    O1311308   0.372   3.703  10.983  0.0293  0.3371  0.0506
  110OSM    O1411309   0.421   3.665  11.222  0.1409  0.1915  0.3269
  110OSM    O1111310   0.601   3.627  11.053  0.2123  0.0389 -0.2052
  110OSM    O1211311   0.402   3.472  11.075  0.2432 -0.4381  0.1218
  110OSM    C1S11312   0.657   3.592  10.927 -0.1377 -0.2542  0.0516
  110OSM    H1S11313   0.582   3.561  10.852  0.9774 -1.9102 -0.3875
  110OSM    H1T11314   0.720   3.501  10.935  0.4587  0.3134  2.1670
  110OSM     NF11315   0.810   3.660  10.742  0.5159  0.2622 -0.5286
  110OSM    HNF11316   0.905   3.630  10.748  0.5396  0.1676 -1.3234
  110OSM    C2S11317   0.746   3.704  10.859 -0.1229  0.2893  0.1294
  110OSM    H2S11318   0.679   3.786  10.825 -1.8208 -1.9337 -2.0267
  110OSM    C3S11319   0.838   3.767  10.966 -0.4811  0.1967  0.4035
  110OSM    H3S11320   0.916   3.694  10.998 -0.6047 -0.3828 -0.6192
  110OSM     O311321   0.785   3.815  11.085  0.0926 -0.2171  0.4210
  110OSM    HO311322   0.693   3.789  11.080 -0.0831 -0.3253  3.3547
  110OSM    C4S11323   0.917   3.881  10.904  0.0390  0.2095 -0.0970
  110OSM    H4S11324   1.020   3.851  10.879  0.9944  2.5400  0.8951
  110OSM    C5S11325   0.878   4.002  10.873  0.3647  0.0148  0.5955
  110OSM    H5S11326   0.770   4.022  10.886  0.1428 -0.7771  0.0269
  110OSM    C6S11327   0.957   4.109  10.812  0.8563  0.0237 -0.3323
  110OSM    H6S11328   1.065   4.083  10.812  0.9088  0.1741  1.2923
  110OSM    H6T11329   0.952   4.185  10.893  1.0538 -1.7846  1.3889
  110OSM    C7S11330   0.913   4.170  10.676 -0.5296  0.2744 -0.3632
  110OSM    H7S11331   0.802   4.170  10.676 -0.5923 -0.2448  3.5221
  110OSM    H7T11332   0.938   4.095  10.598 -0.6651  0.9345 -1.0452
  110OSM    C8S11333   0.983   4.303  10.644 -0.2994  0.5459  0.0221
  110OSM    H8S11334   1.093   4.293  10.638 -0.1516  0.3064  2.5328
  110OSM    H8T11335   0.958   4.377  10.722  0.7578 -0.7852  1.6541
  110OSM    C9S11336   0.932   4.370  10.520  0.7037 -0.6825 -0.6185
  110OSM    H9S11337   0.975   4.473  10.522 -0.1885 -0.3197  0.8773
  110OSM    H9T11338   0.822   4.384  10.535  1.1973 -0.0518  2.9551
  110OSM   C10S11339   0.971   4.302  10.387 -0.3865  0.0468 -0.1711
  110OSM   H10S11340   0.925   4.200  10.388  0.1360 -0.2151 -1.2063
  110OSM   H10T11341   1.080   4.278  10.393 -0.3253  0.9311  2.8855
  110OSM   C11S11342   0.945   4.381  10.259  0.6054  0.1660 -0.2596
  110OSM   H11S11343   1.035   4.440  10.232 -0.1055  0.7927 -1.2793
  110OSM   H11T11344   0.859   4.447  10.282 -0.8403 -1.4874 -0.7724
  110OSM   C12S11345   0.924   4.307  10.125 -1.3198  0.4090  0.0622
  110OSM   H12S11346   0.875   4.208  10.136  1.6385 -0.9751  1.4040
  110OSM   H12T11347   1.028   4.284  10.093 -0.9929  2.6116 -0.5586
  110OSM   C13S11348   0.860   4.391  10.005  0.8888 -0.0498  0.9249
  110OSM   H13S11349   0.935   4.470   9.983 -1.4004  1.5372 -1.5888
  110OSM   H13T11350   0.758   4.434  10.022  0.9715 -0.0399  1.4012
  110OSM   C14S11351   0.844   4.303   9.879 -0.6920 -0.6146 -0.2277
  110OSM   H14S11352   0.777   4.223   9.918 -2.3910  1.0022  0.2696
  110OSM   H14T11353   0.942   4.256   9.855  1.0663  3.0335 -0.6412
  110OSM   C15S11354   0.765   4.367   9.759 -0.5807 -0.1646 -0.8089
  110OSM   H15S11355   0.811   4.467   9.741 -1.6526  1.0061  2.5660
  110OSM   H15T11356   0.661   4.390   9.789 -0.8697  1.4203 -2.8430
  110OSM   C16S11357   0.758   4.287   9.634 -0.2429  0.4032 -0.2302
  110OSM   H16S11358   0.757   4.181   9.666  2.6167  0.2126 -0.6723
  110OSM   H16T11359   0.847   4.287   9.568  0.6347 -2.4235  0.8927
  110OSM   C17S11360   0.641   4.312   9.536  0.0307 -0.3377  0.4326
  110OSM   H17S11361   0.654   4.415   9.497  0.6390 -1.0878 -1.4016
  110OSM   H17T11362   0.544   4.294   9.586  0.0031 -1.2357  0.0645
  110OSM   C18S11363   0.644   4.215   9.420 -0.0159 -0.4613 -0.8219
  110OSM   H18S11364   0.725   4.232   9.347  0.0894  1.5309 -0.2820
  110OSM   H18T11365   0.549   4.212   9.363 -0.2499  0.3984 -0.4902
  110OSM   H18U11366   0.668   4.112   9.455  0.0705 -0.1838 -0.0454
  110OSM    C1F11367   0.745   3.644  10.628 -0.4893 -0.3149  0.5170
  110OSM     OF11368   0.630   3.680  10.610  0.3585 -0.3325 -0.1486
  110OSM    C2F11369   0.818   3.581  10.513 -0.1350 -0.9669 -0.0549
  110OSM    H2F11370   0.820   3.470  10.521 -0.4165 -0.9140  0.7975
  110OSM    H2G11371   0.925   3.611  10.514 -0.5380  0.4962  0.3925
  110OSM    C3F11372   0.780   3.629  10.377  0.2613 -0.2531  0.0379
  110OSM    H3F11373   0.809   3.736  10.378  0.4811 -0.3027  2.9571
  110OSM    H3G11374   0.669   3.618  10.367  0.0630  0.5471  1.2053
  110OSM    C4F11375   0.848   3.552  10.256  0.0561 -1.2705 -0.5159
  110OSM    H4F11376   0.840   3.441  10.268 -0.1770 -1.0164  2.1036
  110OSM    H4G11377   0.951   3.594  10.256 -1.6132  3.1000 -0.0529
  110OSM    C5F11378   0.801   3.591  10.120  0.1406 -0.4312 -0.4992
  110OSM    H5F11379   0.808   3.702  10.117 -0.3366 -0.2265  3.1380
  110OSM    H5G11380   0.694   3.568  10.103  0.3760 -0.0591 -2.5972
  110OSM    C6F11381   0.886   3.538  10.000 -0.0370  0.1616 -0.6041
  110OSM    H6F11382   0.905   3.432  10.025  0.7765  0.3240 -0.5054
  110OSM    H6G11383   0.981   3.597  10.001 -0.6076  1.0848 -0.4851
  110OSM    C7F11384   0.815   3.562   9.866  0.5747 -0.6090  1.0455
  110OSM    H7F11385   0.881   3.565   9.777 -0.4875  1.6602  0.2945
  110OSM    H7G11386   0.769   3.663   9.871  2.4591  0.3827 -1.0442
  110OSM    C8F11387   0.692   3.465   9.836 -0.2727  0.0516 -0.2121
  110OSM    H8F11388   0.621   3.517   9.769  2.1452 -0.1661 -3.0140
  110OSM    H8G11389   0.634   3.455   9.931 -2.1920  0.4314 -1.3289
  110OSM    C9F11390   0.738   3.329   9.784 -0.0410  0.5443 -0.2585
  110OSM    H9F11391   0.758   3.247   9.855  0.4442 -1.2253 -2.3800
  110OSM   C10F11392   0.769   3.297   9.660  0.1751 -0.0901  0.4844
  110OSM   H10F11393   0.802   3.196   9.632  2.0471  0.5651  0.2607
  110OSM   C11F11394   0.775   3.392   9.541  0.2215  0.3216 -0.0143
  110OSM   H11F11395   0.848   3.473   9.564 -1.8517  1.8481  1.3857
  110OSM   H11G11396   0.674   3.437   9.528  0.2167  0.3893  0.2552
  110OSM   C12F11397   0.816   3.314   9.415 -0.5068  0.2210  0.0629
  110OSM   H12F11398   0.731   3.242   9.412 -1.0828  0.8700  0.6645
  110OSM   H12G11399   0.913   3.263   9.431 -0.9709 -0.6612  0.0960
  110OSM   C13F11400   0.824   3.393   9.284  0.0299 -0.0874  0.0847
  110OSM   H13F11401   0.908   3.462   9.305  1.7835 -1.5666 -1.8953
  110OSM   H13G11402   0.739   3.461   9.260  0.1722 -0.7607 -2.4143
  110OSM   C14F11403   0.875   3.315   9.160  0.3291  0.2293  0.1122
  110OSM   H14F11404   0.789   3.280   9.100 -0.6295  0.6036  1.2376
  110OSM   H14G11405   0.925   3.224   9.198 -0.7404 -0.6687 -0.6224
  110OSM   C15F11406   0.972   3.398   9.081  0.1731 -0.0166 -0.4539
  110OSM   H15F11407   1.019   3.334   9.003  1.4869  1.3223 -0.7825
  110OSM   H15G11408   1.056   3.431   9.146 -0.3329  0.5710 -0.0842
  110OSM   C16F11409   0.921   3.526   9.015  0.7555 -0.6099 -0.3788
  110OSM   H16F11410   0.895   3.589   9.102  1.5908 -0.7285 -0.0326
  110OSM   H16G11411   0.829   3.504   8.957  0.1755 -1.1924  0.7477
  110OSM   C17F11412   1.021   3.602   8.923 -0.7319  0.4366  0.1971
  110OSM   H17F11413   1.034   3.545   8.828 -1.2542 -0.1116  0.4560
  110OSM   H17G11414   1.120   3.615   8.971  0.7190 -1.2290 -2.2131
  110OSM   C18F11415   0.960   3.732   8.875 -0.7873 -0.8830 -0.1603
  110OSM   H18F11416   0.862   3.711   8.827 -2.2476  0.6539  2.0728
  110OSM   H18G11417   1.020   3.777   8.793 -3.1251  1.3595 -0.7122
  110OSM   H18H11418   0.957   3.807   8.957  1.1961 -0.1828 -0.7018
  111OSM      N11419   1.456   1.198  11.067 -0.1140  0.2970 -0.2630
  111OSM    C1511420   1.456   1.055  11.119  0.5177 -1.0034 -0.2872
  111OSM   H15A11421   1.554   1.010  11.119  0.2149 -1.7725  2.8402
  111OSM   H15B11422   1.403   1.001  11.041 -0.2475 -0.5682 -0.0738
  111OSM   H15C11423   1.413   1.035  11.216 -1.6031 -1.5271 -1.3002
  111OSM    C1411424   1.312   1.231  11.037  0.6950  0.0746 -0.0339
  111OSM   H14A11425   1.310   1.336  11.009  0.3786  0.1371  0.2167
  111OSM   H14B11426   1.250   1.224  11.126 -0.0702  2.0888 -0.3679
  111OSM   H14C11427   1.275   1.168  10.958 -2.5058  0.3026  1.2080
  111OSM    C1311428   1.511   1.293  11.167  0.7752  0.2325 -0.0737
  111OSM   H13A11429   1.606   1.265  11.210 -0.1002 -0.7027  1.2940
  111OSM   H13B11430   1.454   1.304  11.258 -0.4035 -3.3287 -0.3003
  111OSM   H13C11431   1.519   1.379  11.102  0.2973 -0.1356 -0.6181
  111OSM    C1211432   1.528   1.198  10.930  0.4682 -0.0171  0.0690
  111OSM   H12A11433   1.486   1.118  10.872 -1.3447  1.2676 -0.4367
  111OSM   H12B11434   1.635   1.180  10.936  0.4317 -0.6852 -1.0825
  111OSM    C1111435   1.525   1.330  10.840 -1.0697 -0.7161 -0.0155
  111OSM   H11A11436   1.420   1.359  10.816 -0.4209  2.5970  0.9587
  111OSM   H11B11437   1.573   1.302  10.743  0.4867 -0.5634  0.6948
  111OSM      P11438   1.734   1.468  10.887  0.2060  0.1521  0.0591
  111OSM    O1311439   1.777   1.588  10.964 -0.1594 -0.4421 -0.4057
  111OSM    O1411440   1.794   1.340  10.922  0.3823  0.4013 -0.2556
  111OSM    O1111441   1.763   1.492  10.733  0.2471  0.8140 -0.1764
  111OSM    O1211442   1.578   1.448  10.900 -0.3642  0.1246 -0.2884
  111OSM    C1S11443   1.674   1.568  10.651 -0.0244  0.2121  0.0114
  111OSM    H1S11444   1.673   1.677  10.674  0.4437  0.0961  0.6010
  111OSM    H1T11445   1.568   1.537  10.640 -0.5604  2.0458 -0.3206
  111OSM     NF11446   1.661   1.635  10.407 -0.2294 -0.3676  0.5976
  111OSM    HNF11447   1.603   1.598  10.335 -0.6855 -1.6133  1.5959
  111OSM    C2S11448   1.718   1.537  10.501  0.5074  0.1332 -0.2795
  111OSM    H2S11449   1.828   1.548  10.506  0.5793 -0.0340 -1.3220
  111OSM    C3S11450   1.692   1.392  10.451 -0.4056 -0.2548 -0.4303
  111OSM    H3S11451   1.582   1.389  10.439 -0.3923  1.9323 -1.3113
  111OSM     O311452   1.733   1.281  10.535 -0.7028 -0.0319 -0.5507
  111OSM    HO311453   1.772   1.313  10.617  1.6174 -2.6534 -0.5411
  111OSM    C4S11454   1.747   1.378  10.311  0.0795  0.5889  0.3832
  111OSM    H4S11455   1.682   1.428  10.238  1.5690  1.2199 -0.5262
  111OSM    C5S11456   1.852   1.307  10.271 -0.1584 -0.1630  0.3320
  111OSM    H5S11457   1.911   1.247  10.343  1.4621 -0.3758 -1.1481
  111OSM    C6S11458   1.897   1.300  10.135 -0.1901  0.0498  0.9070
  111OSM    H6S11459   1.921   1.196  10.104  0.1894  0.3073  0.3210
  111OSM    H6T11460   1.988   1.362  10.123  1.0088 -1.5953  1.3755
  111OSM    C7S11461   1.812   1.360  10.017 -0.4018  0.3214  0.4980
  111OSM    H7S11462   1.785   1.464  10.043 -0.5369  0.5021 -0.3498
  111OSM    H7T11463   1.717   1.301  10.021 -0.9133  1.1832  1.1075
  111OSM    C8S11464   1.888   1.353   9.885  0.0451  0.0868 -0.0303
  111OSM    H8S11465   1.934   1.253   9.868  0.0031 -0.2371  1.7229
  111OSM    H8T11466   1.967   1.430   9.889 -1.1559  1.2463  2.8740
  111OSM    C9S11467   1.793   1.395   9.770 -0.5487 -0.0415  0.4962
  111OSM    H9S11468   1.730   1.486   9.784 -0.6084 -0.0272  0.1358
  111OSM    H9T11469   1.719   1.313   9.760 -0.1393 -0.4054  0.4299
  111OSM   C10S11470   1.868   1.387   9.631 -0.5770  0.5979 -0.5579
  111OSM   H10S11471   1.952   1.314   9.635 -0.5047  0.7477  1.0374
  111OSM   H10T11472   1.908   1.489   9.608  0.0561  0.3360 -0.6227
  111OSM   C11S11473   1.779   1.370   9.505  0.4832 -0.4711  0.4998
  111OSM   H11S11474   1.705   1.453   9.512  0.9893 -0.0734  1.1721
  111OSM   H11T11475   1.720   1.275   9.507  0.6905 -0.5838  2.3136
  111OSM   C12S11476   1.863   1.387   9.376  0.2053  0.2150  0.7280
  111OSM   H12S11477   1.947   1.459   9.382 -1.3574  2.0911  0.4941
  111OSM   H12T11478   1.799   1.422   9.292  2.3866  0.8120 -0.7138
  111OSM   C13S11479   1.925   1.250   9.332  0.4583  0.4308  0.5382
  111OSM   H13S11480   1.847   1.173   9.315  0.4563  0.7327 -0.9085
  111OSM   H13T11481   1.992   1.205   9.408 -1.5588 -2.7559  0.5225
  111OSM   C14S11482   1.994   1.261   9.198 -0.4134  0.2172 -0.2437
  111OSM   H14S11483   2.084   1.326   9.196  0.2830 -0.7660 -1.7019
  111OSM   H14T11484   1.924   1.323   9.138  0.1651  1.2345  0.1303
  111OSM   C15S11485   2.020   1.131   9.127 -0.6766  0.5363 -0.1915
  111OSM   H15S11486   1.935   1.066   9.155  1.1647 -1.6092  0.5752
  111OSM   H15T11487   2.114   1.086   9.167 -0.7407  1.6491  1.2672
  111OSM   C16S11488   2.028   1.141   8.968  0.1519 -1.2582 -0.3940
  111OSM   H16S11489   2.051   1.038   8.934 -3.9284 -1.6712 -2.1930
  111OSM   H16T11490   2.115   1.208   8.949  1.1490 -2.2073  0.7532
  111OSM   C17S11491   1.907   1.205   8.895 -0.1502 -0.2988  0.1959
  111OSM   H17S11492   1.887   1.305   8.939 -1.6009  1.0265 -3.3202
  111OSM   H17T11493   1.817   1.141   8.907  0.7871 -1.7844 -0.4707
  111OSM   C18S11494   1.923   1.229   8.744 -0.2498 -0.0506 -0.2650
  111OSM   H18S11495   2.010   1.291   8.715 -0.1663  0.3263  0.7574
  111OSM   H18T11496   1.841   1.290   8.700  0.9758  0.7904 -1.4125
  111OSM   H18U11497   1.927   1.132   8.690  2.2441  1.1256 -2.2926
  111OSM    C1F11498   1.681   1.773  10.420  0.4354 -0.3473  0.1990
  111OSM     OF11499   1.748   1.823  10.509  0.0071  0.0356  0.0395
  111OSM    C2F11500   1.603   1.858  10.326 -0.5654  0.1910 -0.0541
  111OSM    H2F11501   1.534   1.922  10.385  0.0646 -1.5665  2.7172
  111OSM    H2G11502   1.539   1.785  10.271 -1.5025  1.6876 -0.9814
  111OSM    C3F11503   1.691   1.947  10.237 -1.1057  0.4388 -0.3853
  111OSM    H3F11504   1.781   1.900  10.191 -0.6895  1.7653 -0.9290
  111OSM    H3G11505   1.718   2.032  10.302 -1.1806  1.8943 -2.2199
  111OSM    C4F11506   1.628   2.002  10.113  0.5716 -0.2908 -0.3648
  111OSM    H4F11507   1.549   2.076  10.140  0.5121 -0.0721 -1.1111
  111OSM    H4G11508   1.576   1.919  10.061 -0.3621  0.7552 -1.1434
  111OSM    C5F11509   1.727   2.068  10.023  0.3115 -0.9039 -0.0388
  111OSM    H5F11510   1.821   2.012  10.006  2.6284  3.0533 -0.7821
  111OSM    H5G11511   1.755   2.163  10.073  1.0939  0.1800 -2.5139
  111OSM    C6F11512   1.671   2.094   9.890 -0.2004  0.0647 -0.0810
  111OSM    H6F11513   1.658   1.998   9.836 -0.8399  0.9332 -1.4912
  111OSM    H6G11514   1.741   2.164   9.840  1.2438 -1.1713  0.1708
  111OSM    C7F11515   1.531   2.160   9.879 -0.3313  0.4408 -0.3236
  111OSM    H7F11516   1.532   2.253   9.941  2.2229 -2.0310  3.5819
  111OSM    H7G11517   1.460   2.087   9.924  1.2943 -0.6231  0.5801
  111OSM    C8F11518   1.498   2.197   9.736 -0.1199  0.2898 -0.2191
  111OSM    H8F11519   1.570   2.269   9.691 -0.3561  0.5555 -0.1734
  111OSM    H8G11520   1.407   2.260   9.737  1.3813  2.5014 -0.4440
  111OSM    C9F11521   1.478   2.076   9.648  0.2410 -0.1998  0.1483
  111OSM    H9F11522   1.392   2.016   9.681  0.8938 -2.1485 -1.5859
  111OSM   C10F11523   1.559   2.029   9.551  0.0228  0.2713  0.2450
  111OSM   H10F11524   1.528   1.940   9.494  0.2695  0.6481 -0.4830
  111OSM   C11F11525   1.686   2.085   9.511 -0.4923  0.0368  0.2634
  111OSM   H11F11526   1.757   2.001   9.492  1.5793  1.9094 -0.5404
  111OSM   H11G11527   1.728   2.126   9.606  0.0204 -2.1745  1.0224
  111OSM   C12F11528   1.681   2.202   9.401  0.1623  0.2079  0.4931
  111OSM   H12F11529   1.785   2.230   9.373 -0.4811  1.0082 -1.1830
  111OSM   H12G11530   1.643   2.296   9.447  1.6088  2.4009 -2.6165
  111OSM   C13F11531   1.605   2.176   9.273 -0.4598  0.5039 -0.0895
  111OSM   H13F11532   1.497   2.165   9.295 -0.4250  0.8129  0.2384
  111OSM   H13G11533   1.636   2.077   9.232  0.0994  0.1844  1.0747
  111OSM   C14F11534   1.628   2.273   9.160 -0.1801  0.4773 -0.1473
  111OSM   H14F11535   1.732   2.255   9.128 -0.1797 -3.2085  1.6097
  111OSM   H14G11536   1.615   2.376   9.199  0.5187  0.6437 -0.3567
  111OSM   C15F11537   1.531   2.234   9.047 -0.0105 -0.3879 -0.4793
  111OSM   H15F11538   1.557   2.306   8.966  0.0205  0.2496  0.0964
  111OSM   H15G11539   1.431   2.264   9.085  0.2701  1.0029 -0.8209
  111OSM   C16F11540   1.531   2.087   8.998 -0.4559  0.4096 -0.7400
  111OSM   H16F11541   1.477   2.027   9.075  1.7615  2.5259  2.5748
  111OSM   H16G11542   1.633   2.043   8.991  0.4866  2.5722 -0.8406
  111OSM   C17F11543   1.451   2.064   8.866 -0.9584  0.3189  0.2200
  111OSM   H17F11544   1.348   2.105   8.866 -0.2929  2.0412  0.4952
  111OSM   H17G11545   1.453   1.956   8.837  0.6447 -0.1177  1.8428
  111OSM   C18F11546   1.522   2.127   8.747  0.1705  0.5511  0.2589
  111OSM   H18F11547   1.466   2.110   8.652 -2.4485  2.0490  1.4900
  111OSM   H18G11548   1.618   2.074   8.729  0.6586  0.6344  2.4900
  111OSM   H18H11549   1.541   2.233   8.772 -0.1310  0.9445 -1.1047
  112OSM      N11550   0.615   6.634  10.836  0.2701 -0.1798  0.4350
  112OSM    C1511551   0.549   6.771  10.827  0.0686  0.0333  0.5851
  112OSM   H15A11552   0.604   6.844  10.769 -0.6615 -0.5048 -0.8309
  112OSM   H15B11553   0.519   6.803  10.925  1.7529 -1.4158  1.6163
  112OSM   H15C11554   0.460   6.764  10.766  0.1764  3.0568  0.0335
  112OSM    C1411555   0.751   6.654  10.890 -0.5132 -0.0053  0.3460
  112OSM   H14A11556   0.818   6.721  10.837  1.2424 -3.0325 -1.3692
  112OSM   H14B11557   0.793   6.556  10.903 -0.8156  0.1078  2.4278
  112OSM   H14C11558   0.738   6.683  10.994 -0.6774 -0.9478  0.5885
  112OSM    C1311559   0.535   6.553  10.937  0.2668  0.2858 -0.2002
  112OSM   H13A11560   0.597   6.469  10.967 -0.4401 -0.2604 -0.2487
  112OSM   H13B11561   0.437   6.526  10.901 -0.5101  2.2128  0.4009
  112OSM   H13C11562   0.521   6.610  11.028  0.5492  0.7719 -0.4582
  112OSM    C1211563   0.624   6.550  10.709  0.1350 -0.1293  0.2681
  112OSM   H12A11564   0.666   6.455  10.740 -1.2853 -0.4340  1.3673
  112OSM   H12B11565   0.693   6.605  10.647  1.0172 -0.9633  0.4981
  112OSM    C1111566   0.503   6.517  10.619  0.1557  0.3934 -0.5775
  112OSM   H11A11567   0.538   6.461  10.529 -4.3291 -1.0723 -1.5471
  112OSM   H11B11568   0.457   6.607  10.574  0.9493  1.3896  0.5755
  112OSM      P11569   0.431   6.294  10.741  0.0791 -0.3987 -0.3264
  112OSM    O1311570   0.573   6.257  10.730  0.0080 -0.0061  0.0158
  112OSM    O1411571   0.359   6.263  10.872  0.1675  0.5457 -0.2619
  112OSM    O1111572   0.361   6.206  10.634  0.2463  0.5242  0.2158
  112OSM    O1211573   0.406   6.444  10.696  0.4475 -0.4256 -0.0602
  112OSM    C1S11574   0.262   6.263  10.551  0.1587 -0.6225  0.0026
  112OSM    H1S11575   0.204   6.349  10.592  0.9696  0.9307 -2.0225
  112OSM    H1T11576   0.182   6.187  10.536 -2.3854  1.6913  1.3286
  112OSM     NF11577   0.218   6.361  10.335 -0.4073 -0.3001  0.8855
  112OSM    HNF11578   0.191   6.317  10.249 -0.0684 -0.9635  1.1119
  112OSM    C2S11579   0.319   6.294  10.411  0.1179 -0.0945  0.0734
  112OSM    H2S11580   0.403   6.365  10.430  0.8570 -0.4854 -1.7424
  112OSM    C3S11581   0.381   6.166  10.347  0.8273  0.0280  0.6173
  112OSM    H3S11582   0.305   6.086  10.347  1.8523 -0.9776  2.5699
  112OSM     O311583   0.491   6.123  10.419 -0.0987 -0.0527 -0.3665
  112OSM    HO311584   0.459   6.133  10.509 -0.4183 -0.0829 -0.4780
  112OSM    C4S11585   0.427   6.196  10.208  0.4038 -0.6125 -0.2024
  112OSM    H4S11586   0.350   6.175  10.131 -1.6384  1.5697  1.1779
  112OSM    C5S11587   0.542   6.251  10.165  0.3539  0.7385 -0.2468
  112OSM    H5S11588   0.620   6.274  10.239 -1.8928  2.2712  1.7141
  112OSM    C6S11589   0.576   6.258  10.017 -0.4065 -0.5589  0.6235
  112OSM    H6S11590   0.683   6.230  10.025  0.5754  2.6242 -0.3836
  112OSM    H6T11591   0.585   6.366   9.993  1.9296 -0.7120  0.6940
  112OSM    C7S11592   0.491   6.184   9.918  0.2024  0.0533 -0.4923
  112OSM    H7S11593   0.388   6.226   9.917 -0.0112 -0.4853 -1.5637
  112OSM    H7T11594   0.472   6.085   9.963  0.4304  0.3464  0.2596
  112OSM    C8S11595   0.555   6.184   9.780  0.0498  0.4139  0.5468
  112OSM    H8S11596   0.663   6.159   9.784 -0.0449 -0.0291  0.4015
  112OSM    H8T11597   0.552   6.291   9.751  0.4170 -0.4801 -3.0138
  112OSM    C9S11598   0.488   6.101   9.671  0.0684 -1.6748  0.0315
  112OSM    H9S11599   0.381   6.129   9.661  0.2877 -0.5570  0.7343
  112OSM    H9T11600   0.486   5.991   9.685 -1.4968 -1.9525 -2.1398
  112OSM   C10S11601   0.567   6.125   9.543  0.3219 -0.3814  0.2877
  112OSM   H10S11602   0.664   6.075   9.562  1.1999  0.5842 -1.5400
  112OSM   H10T11603   0.585   6.233   9.529 -1.3951 -0.3817 -2.2623
  112OSM   C11S11604   0.491   6.072   9.417 -0.4810 -0.7529 -0.1829
  112OSM   H11S11605   0.396   6.129   9.424 -0.0954  0.1625 -1.9084
  112OSM   H11T11606   0.466   5.964   9.423  0.4031 -0.8919  1.1038
  112OSM   C12S11607   0.569   6.107   9.292  0.5305  0.3312  0.3333
  112OSM   H12S11608   0.669   6.062   9.309 -0.7261 -1.9372  1.8718
  112OSM   H12T11609   0.576   6.218   9.293 -1.9903  0.5277 -0.6803
  112OSM   C13S11610   0.503   6.069   9.154  0.0469 -0.2577 -0.3593
  112OSM   H13S11611   0.421   6.138   9.124 -0.3230  1.2613  3.8623
  112OSM   H13T11612   0.477   5.961   9.154 -0.5467 -0.1297 -1.8417
  112OSM   C14S11613   0.602   6.079   9.034 -0.0138 -0.1466 -0.2892
  112OSM   H14S11614   0.694   6.027   9.068 -0.1009  0.4563  0.9090
  112OSM   H14T11615   0.633   6.185   9.017 -1.8957  0.2161 -1.6297
  112OSM   C15S11616   0.536   6.023   8.912 -0.3528  0.4820 -0.7070
  112OSM   H15S11617   0.457   6.091   8.875  2.4176  2.2129 -3.7315
  112OSM   H15T11618   0.500   5.923   8.944  0.7260  1.2119  3.0237
  112OSM   C16S11619   0.632   5.991   8.796  0.2265  0.1677 -0.7322
  112OSM   H16S11620   0.728   5.942   8.824  1.7423  1.9025 -2.7654
  112OSM   H16T11621   0.666   6.089   8.757 -0.0047  1.2333  1.6618
  112OSM   C17S11622   0.577   5.893   8.690 -0.9022 -0.2803 -0.3246
  112OSM   H17S11623   0.484   5.930   8.641 -0.7931  0.3538 -0.0604
  112OSM   H17T11624   0.544   5.801   8.742 -0.3483 -0.7660 -0.8259
  112OSM   C18S11625   0.677   5.868   8.580  0.1120 -0.5887 -0.2856
  112OSM   H18S11626   0.753   5.797   8.618  2.3464  2.1102  0.4795
  112OSM   H18T11627   0.724   5.967   8.563 -0.6862 -0.2349 -0.4625
  112OSM   H18U11628   0.634   5.824   8.487 -1.7930 -1.3528  0.9284
  112OSM    C1F11629   0.178   6.486  10.360 -0.9028 -0.1514  1.0337
  112OSM     OF11630   0.222   6.555  10.451 -0.4707 -0.5514  0.1182
  112OSM    C2F11631   0.066   6.531  10.268 -0.1160  0.0193 -0.4173
  112OSM    H2F11632  -0.026   6.554  10.326  0.3792  0.7745  0.0878
  112OSM    H2G11633   0.058   6.448  10.195 -0.5292 -0.2407 -0.0755
  112OSM    C3F11634   0.101   6.654  10.171 -0.5458 -0.0342  0.8251
  112OSM    H3F11635   0.137   6.743  10.227 -2.9196  1.7500 -0.4078
  112OSM    H3G11636   0.002   6.686  10.132 -0.9299 -1.3570  0.6799
  112OSM    C4F11637   0.201   6.631  10.062 -0.1548  0.5498 -0.1976
  112OSM    H4F11638   0.307   6.629  10.094 -0.6375 -1.0088  1.3805
  112OSM    H4G11639   0.198   6.727  10.006  1.6627  0.9862  0.4318
  112OSM    C5F11640   0.179   6.520   9.954  0.3704 -1.0680 -0.5500
  112OSM    H5F11641   0.071   6.518   9.929  0.2259 -0.7271  0.0270
  112OSM    H5G11642   0.216   6.424   9.996  0.2419 -1.5417 -1.5121
  112OSM    C6F11643   0.263   6.548   9.833 -0.2458 -0.4338 -0.3593
  112OSM    H6F11644   0.366   6.549   9.874 -0.0370 -1.1970 -0.8542
  112OSM    H6G11645   0.239   6.648   9.792  1.3563  0.7232  1.4495
  112OSM    C7F11646   0.262   6.440   9.720  0.3910  0.5884 -0.5825
  112OSM    H7F11647   0.155   6.432   9.688  0.4732 -0.9794 -0.4992
  112OSM    H7G11648   0.302   6.346   9.762  0.6663  0.3892 -1.2898
  112OSM    C8F11649   0.356   6.473   9.606 -0.3818  0.5943  0.0086
  112OSM    H8F11650   0.355   6.385   9.538 -1.6242 -0.5237  1.4349
  112OSM    H8G11651   0.458   6.471   9.650 -0.4700 -0.0389  0.1893
  112OSM    C9F11652   0.333   6.587   9.525 -0.8245  0.0142  0.0972
  112OSM    H9F11653   0.365   6.678   9.577  0.3322 -0.5685  0.4317
  112OSM   C10F11654   0.268   6.590   9.409 -0.3198 -0.4985  0.1582
  112OSM   H10F11655   0.258   6.686   9.355  0.5398 -0.6144 -0.2113
  112OSM   C11F11656   0.203   6.471   9.337  0.0704 -0.0007 -0.4610
  112OSM   H11F11657   0.093   6.477   9.353  0.3290 -0.6868  1.7921
  112OSM   H11G11658   0.219   6.373   9.387 -1.1902 -0.2772 -0.5815
  112OSM   C12F11659   0.238   6.462   9.186  0.6856  0.0289  0.4611
  112OSM   H12F11660   0.348   6.449   9.171  0.5947  1.5310 -1.8322
  112OSM   H12G11661   0.207   6.556   9.136 -3.0625 -1.6434 -0.5501
  112OSM   C13F11662   0.159   6.347   9.121 -0.3325  0.1502  0.2440
  112OSM   H13F11663   0.051   6.375   9.125 -0.4685 -0.5869  2.3750
  112OSM   H13G11664   0.166   6.247   9.170 -0.2370 -2.0522 -4.0635
  112OSM   C14F11665   0.173   6.336   8.967  0.8989 -0.4051 -1.1319
  112OSM   H14F11666   0.260   6.273   8.938  1.2094 -0.3075 -0.4115
  112OSM   H14G11667   0.187   6.438   8.924 -0.1311 -0.0504 -0.6567
  112OSM   C15F11668   0.054   6.277   8.896  0.0824 -1.0416  0.1855
  112OSM   H15F11669   0.080   6.288   8.788 -0.6704 -2.3040 -0.1299
  112OSM   H15G11670  -0.044   6.324   8.917  0.2414 -0.9704  0.7850
  112OSM   C16F11671   0.038   6.123   8.917  0.1009 -0.1919 -0.4292
  112OSM   H16F11672  -0.070   6.100   8.925 -0.4442  1.7030 -1.8681
  112OSM   H16G11673   0.085   6.100   9.015  2.6866  1.8121 -1.1415
  112OSM   C17F11674   0.113   6.044   8.813  1.0431  1.0128  0.3559
  112OSM   H17F11675   0.219   6.077   8.805  1.4490 -0.4018 -0.1945
  112OSM   H17G11676   0.072   6.061   8.711  1.0933 -1.6085 -0.1224
  112OSM   C18F11677   0.111   5.896   8.830 -0.0006 -0.6357 -0.3507
  112OSM   H18F11678   0.013   5.847   8.844 -1.0329  1.5842  0.3872
  112OSM   H18G11679   0.169   5.865   8.919  0.6432  0.8147 -0.2460
  112OSM   H18H11680   0.153   5.844   8.741 -1.7359 -0.5994 -1.2139
  113OSM      N11681   0.702   5.438  11.002  0.7440 -0.0369 -0.1922
  113OSM    C1511682   0.657   5.321  10.916 -0.3443  0.0918 -0.4621
  113OSM   H15A11683   0.729   5.259  10.863  1.3485  0.6972  1.0964
  113OSM   H15B11684   0.590   5.346  10.835 -1.1427  1.0581  0.4936
  113OSM   H15C11685   0.594   5.258  10.977  0.4819 -2.1853 -1.8653
  113OSM    C1411686   0.573   5.468  11.075 -0.0324 -0.7946  0.2979
  113OSM   H14A11687   0.543   5.391  11.144  0.5664  0.6678  2.2283
  113OSM   H14B11688   0.498   5.496  11.002  0.1478  0.3980  0.5486
  113OSM   H14C11689   0.593   5.557  11.133  0.0081  1.3582 -2.8762
  113OSM    C1311690   0.803   5.394  11.101 -0.4668 -0.5934 -0.1337
  113OSM   H13A11691   0.763   5.310  11.156 -0.1378 -0.4513  0.3298
  113OSM   H13B11692   0.829   5.474  11.169 -2.9091  0.8433 -0.8217
  113OSM   H13C11693   0.896   5.362  11.057  0.3245  0.6086  0.6358
  113OSM    C1211694   0.737   5.560  10.921  0.6514 -0.1919  0.0906
  113OSM   H12A11695   0.781   5.632  10.989 -0.6619  1.4397 -0.7522
  113OSM   H12B11696   0.648   5.611  10.887  0.8998 -0.2842 -0.7059
  113OSM    C1111697   0.834   5.540  10.805  0.2995  0.2342 -0.3461
  113OSM   H11A11698   0.830   5.626  10.734  2.1575 -1.8050 -3.0530
  113OSM   H11B11699   0.805   5.459  10.734 -0.0659 -1.6009  1.8248
  113OSM      P11700   1.058   5.634  10.888  0.4085 -0.0930 -0.0310
  113OSM    O1311701   0.970   5.741  10.946 -0.0247 -0.3774  0.1851
  113OSM    O1411702   1.176   5.590  10.961 -0.5957 -0.5900  0.2812
  113OSM    O1111703   1.094   5.678  10.740 -0.1438 -0.5043 -0.4120
  113OSM    O1211704   0.970   5.512  10.846  0.2236 -0.1719 -0.2765
  113OSM    C1S11705   1.120   5.591  10.631  0.7394  0.0209  0.1473
  113OSM    H1S11706   1.104   5.489  10.671  0.8418 -0.3835 -0.8330
  113OSM    H1T11707   1.227   5.601  10.604  0.3322 -0.7310 -1.8933
  113OSM     NF11708   1.058   5.517  10.404 -0.2547 -0.3983 -0.4415
  113OSM    HNF11709   1.115   5.537  10.324  2.5338  2.3174  2.0520
  113OSM    C2S11710   1.031   5.625  10.505  0.4328  0.4697  0.5976
  113OSM    H2S11711   0.923   5.633  10.529 -0.4139 -1.6999 -2.2300
  113OSM    C3S11712   1.069   5.765  10.456  0.0852 -0.1583 -0.7312
  113OSM    H3S11713   1.176   5.759  10.425  0.2782 -0.6972  0.0413
  113OSM     O311714   1.058   5.866  10.553 -0.0439  0.3938  0.2074
  113OSM    HO311715   1.089   5.813  10.627 -1.1663 -0.5016  0.0565
  113OSM    C4S11716   0.998   5.802  10.329 -0.2983  0.0705  0.3910
  113OSM    H4S11717   1.047   5.771  10.235  0.2025 -0.2786  0.7631
  113OSM    C5S11718   0.875   5.849  10.322 -0.0632  0.5412 -0.4506
  113OSM    H5S11719   0.823   5.883  10.413  2.0988  0.7171  0.7662
  113OSM    C6S11720   0.807   5.888  10.195  0.1057  0.1305 -0.4687
  113OSM    H6S11721   0.808   5.999  10.190 -1.3009  0.1618 -0.2519
  113OSM    H6T11722   0.702   5.854  10.205 -0.8273  2.6885 -1.0830
  113OSM    C7S11723   0.865   5.832  10.055 -0.4781 -0.4612 -0.0791
  113OSM    H7S11724   0.873   5.721  10.066 -1.9473 -0.4388  1.3840
  113OSM    H7T11725   0.971   5.863  10.047  0.0169 -1.5533  1.8743
  113OSM    C8S11726   0.795   5.865   9.923 -0.1749 -0.6954 -0.2137
  113OSM    H8S11727   0.847   5.958   9.893 -0.4936 -0.6000 -0.4758
  113OSM    H8T11728   0.685   5.878   9.924  0.0758  1.4788  0.6042
  113OSM    C9S11729   0.824   5.757   9.816 -0.4439  0.1980  0.0251
  113OSM    H9S11730   0.763   5.667   9.840  2.4249 -1.8146 -0.0251
  113OSM    H9T11731   0.930   5.728   9.825 -0.9915 -1.4250  1.5210
  113OSM   C10S11732   0.787   5.811   9.686  0.2456  0.0696  0.9483
  113OSM   H10S11733   0.835   5.908   9.664 -0.5289 -0.0599 -1.4149
  113OSM   H10T11734   0.678   5.828   9.676  0.8820  3.6204 -0.5082
  113OSM   C11S11735   0.815   5.702   9.578 -0.1935 -0.4580 -0.3869
  113OSM   H11S11736   0.750   5.615   9.601  1.9512 -1.2885  2.9683
  113OSM   H11T11737   0.922   5.671   9.584  0.0694  0.2630 -1.2729
  113OSM   C12S11738   0.774   5.754   9.435  0.0166  0.2116 -0.0258
  113OSM   H12S11739   0.796   5.863   9.435  0.9254  0.0321  0.2593
  113OSM   H12T11740   0.665   5.734   9.427  0.1995 -0.7819 -0.1060
  113OSM   C13S11741   0.850   5.682   9.327 -0.2009 -0.1550  0.6832
  113OSM   H13S11742   0.811   5.579   9.339 -1.8271  0.3095 -0.4248
  113OSM   H13T11743   0.959   5.687   9.344 -0.0629 -0.9978  0.0981
  113OSM   C14S11744   0.816   5.738   9.191  0.6332  0.4268 -0.5103
  113OSM   H14S11745   0.804   5.849   9.191  3.0054  0.7217 -1.7187
  113OSM   H14T11746   0.718   5.692   9.166  0.4394  0.9216 -0.6799
  113OSM   C15S11747   0.911   5.696   9.086 -0.8872  0.3647 -0.0292
  113OSM   H15S11748   0.931   5.587   9.095  0.3972  0.2538 -3.6218
  113OSM   H15T11749   1.012   5.742   9.091 -1.7927  2.5597 -1.2540
  113OSM   C16S11750   0.848   5.721   8.947  0.2455  0.3330 -0.7760
  113OSM   H16S11751   0.910   5.803   8.904  0.7719  0.0839 -0.5013
  113OSM   H16T11752   0.743   5.756   8.961  0.3732  1.3565 -2.2172
  113OSM   C17S11753   0.836   5.595   8.856 -0.8289 -0.3972  0.3661
  113OSM   H17S11754   0.776   5.610   8.764 -1.1858 -0.7769  0.5350
  113OSM   H17T11755   0.764   5.536   8.918 -1.4707  2.1809  2.1356
  113OSM   C18S11756   0.961   5.509   8.832  0.3730  0.4692 -0.5218
  113OSM   H18S11757   1.026   5.491   8.920  0.2858 -0.2170 -0.5930
  113OSM   H18T11758   1.033   5.565   8.768  1.0715  1.7384  1.3179
  113OSM   H18U11759   0.938   5.418   8.773  0.6105 -0.7808  1.3001
  113OSM    C1F11760   0.999   5.393  10.414 -0.8830 -0.4492  0.8641
  113OSM     OF11761   0.902   5.373  10.484  0.0254 -0.0806 -0.7271
  113OSM    C2F11762   1.060   5.287  10.332  0.0112 -0.0277 -0.5026
  113OSM    H2F11763   1.065   5.200  10.402 -0.2485 -0.1228 -0.6030
  113OSM    H2G11764   1.158   5.316  10.289  1.0148 -0.7668  1.2242
  113OSM    C3F11765   0.962   5.247  10.221  0.3373  0.3288  0.4207
  113OSM    H3F11766   0.931   5.335  10.161  1.4514 -0.0759 -0.7750
  113OSM    H3G11767   0.874   5.211  10.280  0.2545 -0.8990 -0.4321
  113OSM    C4F11768   1.002   5.139  10.120 -0.4210 -0.2299 -0.9498
  113OSM    H4F11769   0.909   5.097  10.077 -0.1087 -1.4218 -0.4820
  113OSM    H4G11770   1.053   5.065  10.185 -0.7801  1.1910  0.9889
  113OSM    C5F11771   1.104   5.177  10.007  0.5886  0.3053 -0.4686
  113OSM    H5F11772   1.203   5.181  10.057  0.8792 -1.5248 -0.8686
  113OSM    H5G11773   1.068   5.274   9.967 -2.5920 -0.3129  0.7611
  113OSM    C6F11774   1.122   5.073   9.898  0.6619  0.3301 -0.4919
  113OSM    H6F11775   1.022   5.056   9.852  0.2868  2.3905 -0.5202
  113OSM    H6G11776   1.157   4.975   9.935 -1.0514 -0.6781 -1.4683
  113OSM    C7F11777   1.209   5.125   9.785 -0.0396  0.6519 -0.8247
  113OSM    H7F11778   1.305   5.143   9.838 -1.0284  1.5979  0.6820
  113OSM    H7G11779   1.178   5.224   9.745 -1.0384  0.4064 -0.6609
  113OSM    C8F11780   1.245   5.028   9.680 -0.4841 -0.6359  0.0704
  113OSM    H8F11781   1.148   5.006   9.631  0.7549 -2.4007 -1.6630
  113OSM    H8G11782   1.291   4.938   9.728 -1.5908 -1.0547  0.3563
  113OSM    C9F11783   1.333   5.082   9.570  0.7704 -0.2350  0.0784
  113OSM    H9F11784   1.343   5.191   9.572 -1.3249 -0.0368  1.9286
  113OSM   C10F11785   1.383   5.015   9.468 -0.3468 -0.4992 -0.6762
  113OSM   H10F11786   1.441   5.063   9.388 -1.1514 -0.1601 -1.0515
  113OSM   C11F11787   1.359   4.868   9.445 -0.3993  0.1168  0.4979
  113OSM   H11F11788   1.314   4.816   9.532 -0.0009 -1.6584 -0.3274
  113OSM   H11G11789   1.459   4.823   9.429  0.7337  3.0589 -0.9457
  113OSM   C12F11790   1.268   4.840   9.321 -0.6324 -1.0866  0.3736
  113OSM   H12F11791   1.207   4.929   9.293  1.6449  0.5127  0.3391
  113OSM   H12G11792   1.200   4.758   9.352  0.2229 -2.4163 -1.1912
  113OSM   C13F11793   1.337   4.781   9.193  0.3235 -0.2667  0.4498
  113OSM   H13F11794   1.411   4.848   9.143 -2.0630  1.6547 -0.6048
  113OSM   H13G11795   1.256   4.771   9.117  0.0430  0.4962  0.6463
  113OSM   C14F11796   1.398   4.644   9.220 -0.4755  0.4326  0.3354
  113OSM   H14F11797   1.331   4.598   9.295 -0.0007  0.3127  0.6915
  113OSM   H14G11798   1.498   4.671   9.261 -0.2529  1.0294 -0.5798
  113OSM   C15F11799   1.429   4.545   9.100 -0.4322 -0.3403  0.5013
  113OSM   H15F11800   1.330   4.520   9.055 -0.4273 -0.8328  0.7555
  113OSM   H15G11801   1.472   4.454   9.147 -2.0927 -1.5681 -0.2876
  113OSM   C16F11802   1.531   4.610   8.997 -0.3826 -0.5198 -0.3595
  113OSM   H16F11803   1.625   4.619   9.056  0.8057 -1.8845 -1.9690
  113OSM   H16G11804   1.501   4.702   8.943  0.9175  0.5241  0.6546
  113OSM   C17F11805   1.570   4.518   8.876  0.1856 -0.2153  0.2131
  113OSM   H17F11806   1.476   4.502   8.819 -0.4376 -1.7289  1.6183
  113OSM   H17G11807   1.598   4.419   8.918 -0.3117 -0.0793  0.8747
  113OSM   C18F11808   1.684   4.580   8.783  0.5983 -0.3362  0.2048
  113OSM   H18F11809   1.653   4.670   8.726 -1.6847 -0.5971  0.9548
  113OSM   H18G11810   1.725   4.501   8.717  0.6571  0.4284 -0.6885
  113OSM   H18H11811   1.764   4.617   8.851  0.2139  0.3032  0.3249
  114OSM      N11812   1.047   3.982  11.493 -0.8401 -0.3737  0.8337
  114OSM    C1511813   1.154   3.882  11.493 -1.1628  0.2173 -0.2347
  114OSM   H15A11814   1.213   3.907  11.580  0.4694  0.0032 -1.2512
  114OSM   H15B11815   1.209   3.887  11.400 -0.3077  1.1081  0.3088
  114OSM   H15C11816   1.119   3.780  11.500 -2.3468  0.6983  1.1824
  114OSM    C1411817   0.938   3.938  11.396 -0.4861 -0.0224 -0.3198
  114OSM   H14A11818   0.867   4.019  11.388 -0.1543  0.4129  1.0451
  114OSM   H14B11819   0.878   3.850  11.419 -2.0727  0.7779 -1.3066
  114OSM   H14C11820   0.980   3.919  11.299  0.2773 -2.7641  0.4976
  114OSM    C1311821   0.988   3.998  11.628 -0.5898 -0.1265 -0.3582
  114OSM   H13A11822   1.058   4.047  11.693 -0.7272 -1.5511  0.9134
  114OSM   H13B11823   0.964   3.903  11.675  1.1971 -0.0541  0.7349
  114OSM   H13C11824   0.888   4.040  11.626 -1.4788 -1.9168  2.7266
  114OSM    C1211825   1.102   4.116  11.449 -0.4036  0.0459  0.1713
  114OSM   H12A11826   1.171   4.163  11.517 -2.2176  1.9393  0.7400
  114OSM   H12B11827   1.020   4.185  11.440  0.8426  1.5417  0.0841
  114OSM    C1111828   1.188   4.115  11.320  0.5081  0.6075  0.5382
  114OSM   H11A11829   1.184   4.220  11.285 -2.0379 -0.2604 -2.0066
  114OSM   H11B11830   1.140   4.049  11.244  1.1294 -0.0571  0.7141
  114OSM      P11831   1.438   4.143  11.387 -0.2200 -0.2673 -0.4860
  114OSM    O1311832   1.425   4.152  11.535 -0.0331 -0.1278  0.0566
  114OSM    O1411833   1.562   4.081  11.340  0.1163 -0.4138 -0.3399
  114OSM    O1111834   1.414   4.283  11.310 -0.5833 -0.0574 -0.2342
  114OSM    O1211835   1.321   4.064  11.329 -0.2082 -0.4007 -0.2714
  114OSM    C1S11836   1.527   4.335  11.226 -0.5312 -0.6446 -0.2554
  114OSM    H1S11837   1.626   4.315  11.273 -1.2314 -0.2561  1.4020
  114OSM    H1T11838   1.515   4.446  11.224 -1.1661 -0.7319 -2.4963
  114OSM     NF11839   1.643   4.354  11.012  0.6388  0.0717 -0.1633
  114OSM    HNF11840   1.623   4.427  10.947 -0.0445  0.4395  0.4492
  114OSM    C2S11841   1.533   4.287  11.076  0.7711  0.1386  0.0523
  114OSM    H2S11842   1.560   4.180  11.075  0.5489  0.0825 -0.0938
  114OSM    C3S11843   1.398   4.315  11.011 -0.0933  0.4958  0.2853
  114OSM    H3S11844   1.362   4.417  11.033 -0.9880  0.2705 -0.1009
  114OSM     O311845   1.299   4.222  11.050  0.3234 -0.5892  0.2215
  114OSM    HO311846   1.301   4.233  11.145  0.2575  0.5766  0.1042
  114OSM    C4S11847   1.399   4.296  10.860  0.3282  0.4982 -0.7580
  114OSM    H4S11848   1.406   4.194  10.820 -0.6768 -0.4618  1.3929
  114OSM    C5S11849   1.407   4.396  10.777  0.4188  0.0535 -0.1545
  114OSM    H5S11850   1.391   4.499  10.811  2.0551  0.9671 -2.0528
  114OSM    C6S11851   1.407   4.387  10.625 -0.0894  1.0137  0.9201
  114OSM    H6S11852   1.503   4.427  10.588 -0.4446  0.5457 -0.5247
  114OSM    H6T11853   1.329   4.454  10.585 -0.0765 -0.8698 -2.3848
  114OSM    C7S11854   1.390   4.248  10.552  0.4775 -0.6823 -0.5821
  114OSM    H7S11855   1.301   4.191  10.588 -0.2340  1.0845  0.4959
  114OSM    H7T11856   1.481   4.192  10.585 -1.7043 -2.0614  3.5580
  114OSM    C8S11857   1.379   4.270  10.401  0.0013  0.4335  0.6461
  114OSM    H8S11858   1.447   4.354  10.376  1.3055 -1.2359 -1.5890
  114OSM    H8T11859   1.279   4.300  10.364  0.9709  1.5754 -1.1051
  114OSM    C9S11860   1.416   4.139  10.325  0.3621 -0.2649  0.5090
  114OSM    H9S11861   1.348   4.057  10.358 -0.5636 -0.2925 -1.4433
  114OSM    H9T11862   1.521   4.105  10.344 -0.5178 -3.0257  0.6277
  114OSM   C10S11863   1.393   4.161  10.175 -0.0456 -0.7296  0.4964
  114OSM   H10S11864   1.296   4.207  10.146  0.7372  1.4567  1.2400
  114OSM   H10T11865   1.388   4.063  10.123 -0.9713  0.5242 -1.8715
  114OSM   C11S11866   1.498   4.242  10.090 -0.1697  1.0671  0.6296
  114OSM   H11S11867   1.599   4.209  10.122 -1.0996 -1.5322  0.9481
  114OSM   H11T11868   1.496   4.352  10.107  1.8330  1.1911  0.2027
  114OSM   C12S11869   1.500   4.213   9.940  0.6745  0.1686 -0.4139
  114OSM   H12S11870   1.398   4.229   9.898 -0.0067 -0.4234  0.9777
  114OSM   H12T11871   1.526   4.105   9.946 -0.6262 -0.1839 -0.9286
  114OSM   C13S11872   1.604   4.296   9.870  0.4368 -0.0053 -0.0249
  114OSM   H13S11873   1.708   4.284   9.909  0.5397 -0.4714 -0.4320
  114OSM   H13T11874   1.573   4.401   9.888  1.3260  0.5754 -1.7756
  114OSM   C14S11875   1.615   4.263   9.719 -0.2899  0.3047 -0.1994
  114OSM   H14S11876   1.515   4.287   9.677  0.3196  1.2465 -1.1447
  114OSM   H14T11877   1.631   4.158   9.687 -0.6927  0.0457  0.4307
  114OSM   C15S11878   1.721   4.355   9.654 -0.2299  0.2382  0.2898
  114OSM   H15S11879   1.822   4.316   9.679 -0.2444 -0.1797 -0.3024
  114OSM   H15T11880   1.706   4.458   9.694  1.0234  0.6181 -0.1682
  114OSM   C16S11881   1.697   4.354   9.500 -0.1547  0.3633 -0.1733
  114OSM   H16S11882   1.589   4.371   9.477 -1.3579 -2.7699  2.7011
  114OSM   H16T11883   1.719   4.254   9.457  0.1515  1.0589 -1.6691
  114OSM   C17S11884   1.785   4.451   9.426  0.0694 -0.3514 -0.2901
  114OSM   H17S11885   1.891   4.421   9.436  0.2171 -0.0734 -0.9700
  114OSM   H17T11886   1.771   4.553   9.468 -2.0749 -1.0126  0.6673
  114OSM   C18S11887   1.738   4.455   9.278  0.1723 -0.6770 -0.5216
  114OSM   H18S11888   1.805   4.526   9.224  2.8351 -2.0006  0.9240
  114OSM   H18T11889   1.631   4.482   9.274  0.4267  0.4672  0.1953
  114OSM   H18U11890   1.743   4.350   9.243  0.0772 -0.6733 -0.5460
  114OSM    C1F11891   1.775   4.338  11.045  0.8372 -0.2335 -0.3693
  114OSM     OF11892   1.812   4.258  11.131  0.0947  0.1094 -0.0705
  114OSM    C2F11893   1.877   4.422  10.965  0.7231  0.0447  0.3861
  114OSM    H2F11894   1.959   4.459  11.031  0.6527  1.2702 -0.2034
  114OSM    H2G11895   1.834   4.513  10.917  1.6310 -0.0176 -0.5730
  114OSM    C3F11896   1.947   4.329  10.870 -0.0446 -0.6063  0.6658
  114OSM    H3F11897   1.978   4.236  10.923 -0.8871 -0.5467  1.2828
  114OSM    H3G11898   2.040   4.371  10.827 -1.0092  0.9450  0.0643
  114OSM    C4F11899   1.856   4.308  10.743  0.2371  0.2821 -0.8926
  114OSM    H4F11900   1.858   4.403  10.686 -1.0876  0.7491 -0.1744
  114OSM    H4G11901   1.750   4.291  10.769 -0.0724  0.3486 -2.0693
  114OSM    C5F11902   1.894   4.182  10.656 -0.5559 -0.6932  0.8008
  114OSM    H5F11903   1.888   4.083  10.706  1.4880 -0.7680  0.9191
  114OSM    H5G11904   1.991   4.186  10.603 -1.0520 -1.7232 -0.2419
  114OSM    C6F11905   1.794   4.186  10.531 -0.1713 -0.1738 -0.2556
  114OSM    H6F11906   1.804   4.275  10.467 -1.2264 -0.2312 -0.5029
  114OSM    H6G11907   1.688   4.179  10.563  0.4616  1.4133  2.3347
  114OSM    C7F11908   1.820   4.067  10.441 -0.2643  0.6446 -0.8921
  114OSM    H7F11909   1.737   4.061  10.368 -2.0744 -0.6832  1.2281
  114OSM    H7G11910   1.814   3.967  10.490 -1.0852  1.0636 -0.1256
  114OSM    C8F11911   1.950   4.076  10.361  0.7037 -0.3028 -0.6114
  114OSM    H8F11912   1.982   3.973  10.337  1.1353 -0.2963 -0.0760
  114OSM    H8G11913   2.028   4.106  10.434 -1.2496 -1.7909  2.2130
  114OSM    C9F11914   1.931   4.175  10.246 -0.4289  0.1138  0.5229
  114OSM    H9F11915   1.907   4.279  10.275  1.8443  0.8660 -0.1751
  114OSM   C10F11916   1.924   4.136  10.117  0.7250  0.0890 -0.9394
  114OSM   H10F11917   1.924   4.218  10.043  0.6347  1.9747  1.0963
  114OSM   C11F11918   1.944   3.996  10.066  0.1087  0.1377 -0.5763
  114OSM   H11F11919   1.894   3.922  10.132  2.6710 -0.8085  0.3265
  114OSM   H11G11920   2.053   3.976  10.057  0.8498  2.7791  1.5650
  114OSM   C12F11921   1.877   3.972   9.932 -0.9049  0.0114  0.0364
  114OSM   H12F11922   1.772   4.008   9.939 -1.0589 -0.7864  2.0618
  114OSM   H12G11923   1.877   3.862   9.917 -1.9693  0.1192 -0.8068
  114OSM   C13F11924   1.955   4.041   9.817  0.1445  0.7567 -0.7304
  114OSM   H13F11925   2.061   4.009   9.819 -0.6826 -2.1017 -1.1621
  114OSM   H13G11926   1.961   4.150   9.838  1.5738  0.4055  0.7878
  114OSM   C14F11927   1.904   4.009   9.680 -1.4745  0.1934  0.3479
  114OSM   H14F11928   1.796   4.032   9.675 -1.7157 -0.9600  0.0633
  114OSM   H14G11929   1.908   3.899   9.667  2.2327 -0.0876  3.0773
  114OSM   C15F11930   1.970   4.088   9.561 -0.2019 -0.0348 -0.3722
  114OSM   H15F11931   2.079   4.075   9.576 -0.1057 -1.1847 -1.9905
  114OSM   H15G11932   1.932   4.193   9.569 -0.9794 -0.4650  2.1176
  114OSM   C16F11933   1.938   4.039   9.420 -0.4219 -0.3797  0.3321
  114OSM   H16F11934   1.830   4.045   9.394  0.0978  1.4730 -1.5127
  114OSM   H16G11935   1.965   3.933   9.398 -1.7806  0.2074 -4.9293
  114OSM   C17F11936   2.008   4.115   9.305 -0.0459 -0.1503 -0.6846
  114OSM   H17F11937   2.101   4.160   9.346 -0.5458  0.7906 -0.5675
  114OSM   H17G11938   1.949   4.207   9.285 -0.2225  0.0308  0.6186
  114OSM   C18F11939   1.994   4.054   9.166 -0.4528 -0.5428  0.8979
  114OSM   H18F11940   1.897   3.999   9.170 -0.3735 -0.8358 -1.0553
  114OSM   H18G11941   2.074   3.978   9.155  0.3487  0.4646 -0.3428
  114OSM   H18H11942   1.989   4.127   9.083  1.1593 -0.7333  0.6234
  115OSM      N11943   2.733   1.590   6.273  0.8149  0.7056  0.0165
  115OSM    C1511944   2.678   1.465   6.209  0.0509 -0.3205 -0.1397
  115OSM   H15A11945   2.744   1.389   6.247  0.4151 -0.2915 -0.7202
  115OSM   H15B11946   2.692   1.468   6.102 -1.3886 -1.3145 -0.3746
  115OSM   H15C11947   2.576   1.438   6.232  0.0487  1.0362  1.5682
  115OSM    C1411948   2.692   1.601   6.412  0.1016 -0.3064  0.1136
  115OSM   H14A11949   2.586   1.590   6.423  0.0120  1.1419  0.8589
  115OSM   H14B11950   2.707   1.697   6.460 -1.5783  0.5861 -1.0795
  115OSM   H14C11951   2.734   1.532   6.483  1.4122 -0.8332 -1.1350
  115OSM    C1311952   2.879   1.578   6.289  0.0815  0.8115 -0.2315
  115OSM   H13A11953   2.909   1.509   6.366  0.3380  0.2224 -0.8663
  115OSM   H13B11954   2.918   1.672   6.326 -1.8419  0.9475  1.5464
  115OSM   H13C11955   2.909   1.558   6.188  0.2157  0.9725 -0.2254
  115OSM    C1211956   2.669   1.705   6.194 -0.1085 -0.1632  0.2042
  115OSM   H12A11957   2.562   1.706   6.207 -0.1925 -1.2085 -0.3343
  115OSM   H12B11958   2.679   1.674   6.091  2.4017  0.7925  0.1302
  115OSM    C1111959   2.728   1.853   6.204  0.4198  0.5618 -0.0697
  115OSM   H11A11960   2.716   1.866   6.313  0.5785  1.8378 -0.1998
  115OSM   H11B11961   2.645   1.918   6.169 -0.0918 -0.4257 -0.7031
  115OSM      P11962   2.939   2.012   6.176  0.0756 -0.2448 -0.0085
  115OSM    O1311963   3.059   2.013   6.098  0.1809 -0.0093  0.0381
  115OSM    O1411964   2.845   2.121   6.161 -0.1874  0.2091 -0.1096
  115OSM    O1111965   2.986   2.016   6.329  0.6439  0.4185  0.5016
  115OSM    O1211966   2.863   1.877   6.155 -0.3030  0.7769 -0.3531
  115OSM    C1S11967   3.074   1.913   6.368  0.1920  0.0102  0.0180
  115OSM    H1S11968   3.172   1.941   6.324 -0.3629 -0.8024 -1.7952
  115OSM    H1T11969   3.044   1.811   6.335 -2.8024  1.3753 -1.6649
  115OSM     NF11970   3.182   1.790   6.553  0.5164 -0.2000  0.4181
  115OSM    HNF11971   3.147   1.699   6.571 -0.6518 -0.5507 -3.2139
  115OSM    C2S11972   3.079   1.890   6.522 -0.6403  0.3316 -0.3646
  115OSM    H2S11973   3.120   1.980   6.573  0.8068 -0.9755  0.8361
  115OSM    C3S11974   2.937   1.855   6.587  0.5704  0.3357  0.5264
  115OSM    H3S11975   2.899   1.767   6.532  1.1435  0.7846 -0.5956
  115OSM     O311976   2.841   1.955   6.556 -0.4133  0.0658  0.1980
  115OSM    HO311977   2.866   1.981   6.467  2.3419  1.6584  1.3627
  115OSM    C4S11978   2.960   1.841   6.732 -0.0488  0.0522  0.6926
  115OSM    H4S11979   2.969   1.736   6.763  0.0948  0.4473  2.0050
  115OSM    C5S11980   2.981   1.937   6.818  0.1075 -0.4963 -0.4613
  115OSM    H5S11981   2.978   2.041   6.781  1.0180 -0.3019  0.0001
  115OSM    C6S11982   3.006   1.924   6.964 -0.3467 -0.0352  0.0062
  115OSM    H6S11983   3.003   1.818   6.998 -2.1790 -0.0771 -0.2386
  115OSM    H6T11984   2.935   1.986   7.024 -1.2726 -2.4137  1.4336
  115OSM    C7S11985   3.145   1.980   7.011 -0.3168  0.0621 -0.6870
  115OSM    H7S11986   3.165   2.076   6.957  0.6191 -0.6067 -1.5535
  115OSM    H7T11987   3.225   1.913   6.973 -0.3208 -1.0144  1.1730
  115OSM    C8S11988   3.163   2.005   7.160 -0.2230 -0.2147  0.3751
  115OSM    H8S11989   3.126   2.109   7.172 -0.4950  0.0485 -2.3403
  115OSM    H8T11990   3.272   2.023   7.157 -0.1952 -0.5532 -1.0376
  115OSM    C9S11991   3.112   1.901   7.254 -0.1469  0.3420  0.5046
  115OSM    H9S11992   3.178   1.813   7.244  0.7859  1.1629 -0.8153
  115OSM    H9T11993   3.007   1.875   7.227 -1.0441  3.9671  0.1520
  115OSM   C10S11994   3.134   1.938   7.403  0.0016  0.5032 -0.1208
  115OSM   H10S11995   3.073   2.025   7.434 -1.9623 -1.5424  1.9374
  115OSM   H10T11996   3.239   1.943   7.440 -0.2892  1.6210  0.5980
  115OSM   C11S11997   3.085   1.823   7.496 -0.0303 -0.2679 -0.4094
  115OSM   H11S11998   2.981   1.801   7.463 -0.5538 -0.9889  1.6281
  115OSM   H11T11999   3.067   1.858   7.600  1.0094  2.4380 -1.0863
  115OSM   C12S12000   3.173   1.700   7.486  0.1991  0.4640 -0.4029
  115OSM   H12S12001   3.280   1.714   7.512  0.1387  1.1271 -0.4959
  115OSM   H12T12002   3.170   1.654   7.385  1.8691 -3.3928  1.2237
  115OSM   C13S12003   3.119   1.583   7.570 -0.1685 -0.3949 -0.0424
  115OSM   H13S12004   3.165   1.485   7.545 -1.6218 -0.6077 -1.9883
  115OSM   H13T12005   3.011   1.571   7.549 -0.4121 -0.6655  1.3240
  115OSM   C14S12006   3.133   1.606   7.724 -0.1571  0.3635  0.0812
  115OSM   H14S12007   3.081   1.517   7.766  1.4201 -0.1939  0.9165
  115OSM   H14T12008   3.084   1.703   7.745 -0.0293  0.3517  0.4438
  115OSM   C15S12009   3.275   1.598   7.784 -0.5816  0.1119 -0.0935
  115OSM   H15S12010   3.330   1.682   7.736  2.3090 -0.1788  2.5227
  115OSM   H15T12011   3.325   1.504   7.754  0.9382  1.2915 -1.3090
  115OSM   C16S12012   3.273   1.588   7.933  0.2564  0.1188  0.2902
  115OSM   H16S12013   3.377   1.584   7.971 -0.0749 -0.1961  1.1772
  115OSM   H16T12014   3.221   1.494   7.961  4.8620 -1.3902  4.5785
  115OSM   C17S12015   3.190   1.703   8.001  0.3039 -0.3914 -0.5409
  115OSM   H17S12016   3.085   1.683   7.970  0.2164 -0.9881  0.1244
  115OSM   H17T12017   3.233   1.795   7.956  1.4983 -1.0910 -0.8483
  115OSM   C18S12018   3.210   1.694   8.156  0.3987  0.0407 -0.2537
  115OSM   H18S12019   3.316   1.725   8.172 -0.2087  2.7382 -1.1996
  115OSM   H18T12020   3.182   1.595   8.198  0.6440  0.6370  1.3219
  115OSM   H18U12021   3.147   1.768   8.209 -0.2422  0.5149 -1.6355
  115OSM    C1F12022   3.310   1.818   6.536 -0.6975  0.3909  0.0711
  115OSM     OF12023   3.342   1.922   6.492  0.0167  0.1792  0.4605
  115OSM    C2F12024   3.410   1.716   6.568  0.2075  0.7645 -0.5462
  115OSM    H2F12025   3.421   1.654   6.476  2.4760  2.3839 -1.4045
  115OSM    H2G12026   3.367   1.657   6.652 -0.2191  0.7382 -0.7792
  115OSM    C3F12027   3.559   1.773   6.594 -0.3678 -0.2188 -0.0981
  115OSM    H3F12028   3.551   1.855   6.669  2.3683  1.6018 -1.6869
  115OSM    H3G12029   3.586   1.819   6.496  0.5316  0.2400  0.3595
  115OSM    C4F12030   3.653   1.664   6.635  0.2805  0.0173  0.0800
  115OSM    H4F12031   3.695   1.608   6.549 -0.1408 -1.0371  0.5547
  115OSM    H4G12032   3.596   1.590   6.695 -1.3715 -0.3495 -1.9049
  115OSM    C5F12033   3.775   1.717   6.707  0.2382 -0.2432  0.7951
  115OSM    H5F12034   3.857   1.644   6.723  0.4279 -0.4061 -0.8185
  115OSM    H5G12035   3.756   1.747   6.812  4.7740 -1.6303  2.1460
  115OSM    C6F12036   3.840   1.841   6.637 -0.2449 -0.2665 -0.0754
  115OSM    H6F12037   3.770   1.927   6.650 -1.9082 -1.9958  3.2639
  115OSM    H6G12038   3.857   1.830   6.528  0.2388  2.6791 -0.3336
  115OSM    C7F12039   3.984   1.866   6.696 -0.5165 -0.2976 -0.0144
  115OSM    H7F12040   4.040   1.771   6.684  1.3327  0.9485 -1.4742
  115OSM    H7G12041   3.968   1.876   6.805  0.2164  2.5373 -0.1353
  115OSM    C8F12042   4.043   1.996   6.636 -0.9659  0.6771  0.4339
  115OSM    H8F12043   4.002   1.997   6.532  0.8508 -2.0456 -0.3557
  115OSM    H8G12044   4.153   1.993   6.624 -0.8186  3.7018  0.5516
  115OSM    C9F12045   4.003   2.123   6.696  0.4127  1.0551  0.2989
  115OSM    H9F12046   3.971   2.197   6.622  1.6638 -0.1164 -1.4638
  115OSM   C10F12047   4.029   2.158   6.824  0.0246 -0.2507 -0.5022
  115OSM   H10F12048   3.988   2.256   6.852 -3.0218 -1.4243 -0.6324
  115OSM   C11F12049   4.086   2.079   6.934 -0.2125 -0.5428  0.1018
  115OSM   H11F12050   4.173   2.132   6.979  0.7429 -1.5270 -0.5928
  115OSM   H11G12051   4.119   1.983   6.891 -2.3186 -2.1353  1.8960
  115OSM   C12F12052   3.987   2.043   7.042 -0.3712 -0.7180 -0.4790
  115OSM   H12F12053   3.905   1.974   7.014 -0.2080 -1.6298  1.2050
  115OSM   H12G12054   3.954   2.134   7.096 -1.0339 -1.9859  1.3210
  115OSM   C13F12055   4.059   1.954   7.144 -0.3280  0.4735  0.6279
  115OSM   H13F12056   4.150   2.009   7.176 -1.0424  0.9274  1.9238
  115OSM   H13G12057   4.081   1.852   7.106 -0.3867  0.5571  0.3702
  115OSM   C14F12058   3.988   1.934   7.273 -0.0443  0.0443  0.0282
  115OSM   H14F12059   4.042   1.862   7.339  0.3009 -0.1464 -0.4604
  115OSM   H14G12060   3.886   1.891   7.260 -0.7324  1.6002  0.2604
  115OSM   C15F12061   3.970   2.068   7.351  0.2082 -0.3186  0.2040
  115OSM   H15F12062   3.871   2.112   7.325  1.0691  2.6222  1.6675
  115OSM   H15G12063   4.052   2.141   7.329 -0.5710  0.4504 -0.1794
  115OSM   C16F12064   3.970   2.035   7.501  0.8412 -0.3445  0.5728
  115OSM   H16F12065   3.917   1.941   7.526  1.4119 -0.4013  1.6212
  115OSM   H16G12066   3.917   2.120   7.550  0.3816 -1.2020  1.5924
  115OSM   C17F12067   4.110   2.025   7.559 -0.0962  0.2792 -0.0090
  115OSM   H17F12068   4.154   2.124   7.532 -1.7658  0.6133 -1.6389
  115OSM   H17G12069   4.173   1.943   7.519  0.3287  0.0678  1.0826
  115OSM   C18F12070   4.097   2.016   7.711 -0.1098 -0.4532 -0.0430
  115OSM   H18F12071   4.053   1.920   7.745 -1.9056  0.2931 -0.2134
  115OSM   H18G12072   4.030   2.098   7.745  1.0902 -0.2697  1.9542
  115OSM   H18H12073   4.189   2.025   7.773  0.5352  0.5364 -1.1224
  116OSM      N12074   2.991   5.545   5.997 -0.1607  0.2560  0.6856
  116OSM    C1512075   3.117   5.627   5.996 -0.3235 -0.4894  0.0060
  116OSM   H15A12076   3.210   5.577   6.018  1.0131  2.0288  0.1737
  116OSM   H15B12077   3.102   5.707   6.067 -0.7873 -0.1612 -0.4542
  116OSM   H15C12078   3.144   5.663   5.898  0.4211  1.1458  0.7981
  116OSM    C1412079   2.886   5.625   5.935  0.8363 -0.2835  0.1933
  116OSM   H14A12080   2.912   5.677   5.844 -1.8640  0.3222 -0.2887
  116OSM   H14B12081   2.847   5.708   5.993  1.7360  0.4110 -0.1828
  116OSM   H14C12082   2.798   5.564   5.927 -0.4178  1.3620  1.0764
  116OSM    C1312083   3.021   5.431   5.907 -0.9386  0.5318  0.3302
  116OSM   H13A12084   2.944   5.361   5.879 -1.6364  0.9224  1.2383
  116OSM   H13B12085   3.099   5.367   5.946 -2.3092 -1.5101 -0.1968
  116OSM   H13C12086   3.061   5.447   5.808 -2.4348 -1.0233 -0.5441
  116OSM    C1212087   2.951   5.485   6.135  0.1545 -0.0085 -0.1008
  116OSM   H12A12088   3.038   5.425   6.156 -0.4721 -0.2284  1.9438
  116OSM   H12B12089   2.875   5.410   6.121 -0.7510  0.7227  0.8727
  116OSM    C1112090   2.918   5.584   6.245  0.0381 -0.0727 -0.8007
  116OSM   H11A12091   3.006   5.649   6.265 -0.1766  0.2274 -0.8361
  116OSM   H11B12092   2.901   5.522   6.335 -0.1665  0.1993 -0.6503
  116OSM      P12093   2.778   5.805   6.231 -0.1926  0.2190  0.0950
  116OSM    O1312094   2.907   5.879   6.254 -0.1400 -0.1942  0.0360
  116OSM    O1412095   2.691   5.844   6.121 -0.7712 -0.3155 -0.1795
  116OSM    O1112096   2.686   5.808   6.360  0.0666 -0.0151  0.3194
  116OSM    O1212097   2.794   5.648   6.213 -0.0817 -0.1709 -0.2193
  116OSM    C1S12098   2.711   5.716   6.469  0.4042  0.2029 -0.5764
  116OSM    H1S12099   2.815   5.715   6.508  1.1523 -1.9605 -2.5061
  116OSM    H1T12100   2.684   5.610   6.451 -1.7935  1.0002 -2.3657
  116OSM     NF12101   2.668   5.697   6.712 -0.1989 -0.0577 -0.1051
  116OSM    HNF12102   2.595   5.652   6.762 -1.8201  0.9974 -1.4778
  116OSM    C2S12103   2.617   5.754   6.586  0.4982  0.0446 -0.6003
  116OSM    H2S12104   2.620   5.865   6.589  0.2522  0.0301  0.8804
  116OSM    C3S12105   2.471   5.731   6.546 -0.0933  0.1440 -0.1197
  116OSM    H3S12106   2.457   5.622   6.531 -2.7242  0.2456  1.2880
  116OSM     O312107   2.427   5.800   6.425 -0.5905  0.6504 -0.3971
  116OSM    HO312108   2.505   5.844   6.389  0.5961 -0.8795  0.2199
  116OSM    C4S12109   2.387   5.774   6.658  0.1624 -0.0486 -0.1937
  116OSM    H4S12110   2.364   5.686   6.720  0.1972 -1.5407 -2.2185
  116OSM    C5S12111   2.326   5.895   6.681  0.4482 -0.9382  0.1270
  116OSM    H5S12112   2.325   5.975   6.605 -0.8387  0.1696  1.2932
  116OSM    C6S12113   2.237   5.940   6.791 -0.3157 -0.2024  0.9043
  116OSM    H6S12114   2.136   5.912   6.756 -0.9472  1.3752  1.4517
  116OSM    H6T12115   2.238   6.049   6.810 -1.0627  0.1887 -1.1853
  116OSM    C7S12116   2.273   5.859   6.921 -0.6038  0.4606  0.6028
  116OSM    H7S12117   2.377   5.878   6.954  0.1255  0.4705 -1.6587
  116OSM    H7T12118   2.260   5.750   6.904  0.7390  0.1132  1.7181
  116OSM    C8S12119   2.178   5.894   7.032 -0.9509  0.1329  0.5937
  116OSM    H8S12120   2.084   5.838   7.014 -0.3323 -1.4748  2.3273
  116OSM    H8T12121   2.163   6.004   7.037 -0.2791  0.4235 -2.4995
  116OSM    C9S12122   2.236   5.848   7.168 -0.0299  0.0080 -0.5429
  116OSM    H9S12123   2.337   5.893   7.172 -0.5648  1.1833 -0.2090
  116OSM    H9T12124   2.239   5.737   7.162 -0.4198 -0.1441  1.8618
  116OSM   C10S12125   2.176   5.907   7.298  0.3462  0.2385  0.0181
  116OSM   H10S12126   2.071   5.872   7.287  1.1146 -2.1538 -0.0994
  116OSM   H10T12127   2.176   6.018   7.291 -1.5212  0.3373  1.1623
  116OSM   C11S12128   2.227   5.838   7.423 -0.0933 -0.7726  0.1602
  116OSM   H11S12129   2.334   5.861   7.442 -0.3544 -0.4425  1.2669
  116OSM   H11T12130   2.239   5.729   7.404  3.0541 -0.4024 -0.2882
  116OSM   C12S12131   2.148   5.859   7.546 -0.5698 -0.5498  0.3784
  116OSM   H12S12132   2.039   5.850   7.527 -0.6541 -0.9047  1.0249
  116OSM   H12T12133   2.162   5.962   7.583 -1.1610 -0.3665  0.0989
  116OSM   C13S12134   2.170   5.755   7.659 -0.0024  0.4919 -0.7371
  116OSM   H13S12135   2.275   5.759   7.693 -0.9600 -0.3824  2.5366
  116OSM   H13T12136   2.152   5.656   7.611 -1.4294  0.7066 -0.6891
  116OSM   C14S12137   2.083   5.773   7.787 -0.0503 -0.4953  0.0074
  116OSM   H14S12138   1.982   5.811   7.762  0.3904  1.2184  0.8097
  116OSM   H14T12139   2.130   5.852   7.850 -0.6020 -0.0029 -0.2023
  116OSM   C15S12140   2.073   5.634   7.866  0.5418  0.3056 -0.2988
  116OSM   H15S12141   2.181   5.608   7.867  0.6913  0.8764  1.9389
  116OSM   H15T12142   2.015   5.554   7.816  0.8741 -0.3904  0.4197
  116OSM   C16S12143   2.022   5.647   8.003 -0.8777  0.0778 -0.4101
  116OSM   H16S12144   2.015   5.546   8.049  0.8168  1.5953  3.4165
  116OSM   H16T12145   1.923   5.698   8.007 -0.9110 -0.0716  1.5408
  116OSM   C17S12146   2.108   5.721   8.111  0.2459 -0.4425 -0.0616
  116OSM   H17S12147   2.110   5.827   8.079  0.1943 -0.3524  0.2305
  116OSM   H17T12148   2.207   5.671   8.105 -0.8935 -2.6201 -1.6921
  116OSM   C18S12149   2.036   5.713   8.247  0.4187 -0.4803  0.0143
  116OSM   H18S12150   2.031   5.607   8.281 -0.8491 -0.5026 -0.2141
  116OSM   H18T12151   1.927   5.733   8.235  0.1560 -2.4953 -1.1389
  116OSM   H18U12152   2.090   5.780   8.317 -0.5303  0.1014  0.1973
  116OSM    C1F12153   2.783   5.729   6.779 -0.4537  0.4160 -0.4369
  116OSM     OF12154   2.867   5.804   6.732 -0.2547  0.9817  0.2662
  116OSM    C2F12155   2.781   5.686   6.921  0.0485 -0.4595  0.1456
  116OSM    H2F12156   2.772   5.576   6.932  0.8612 -0.6297 -0.7754
  116OSM    H2G12157   2.690   5.727   6.970 -0.7249 -1.0765 -0.7409
  116OSM    C3F12158   2.912   5.726   6.991  0.2225  0.3151  0.8752
  116OSM    H3F12159   2.936   5.829   6.959 -1.6234  0.8575  1.2024
  116OSM    H3G12160   2.995   5.658   6.960  0.5021  1.0824 -0.0647
  116OSM    C4F12161   2.907   5.718   7.146 -0.0820  0.0384 -0.2767
  116OSM    H4F12162   2.901   5.614   7.184  0.8541  0.7961  2.0020
  116OSM    H4G12163   2.818   5.777   7.179 -1.2439 -1.6297 -0.3573
  116OSM    C5F12164   3.035   5.777   7.202  0.3696 -0.0652  0.1865
  116OSM    H5F12165   3.048   5.879   7.161 -0.2112 -1.3234 -3.2776
  116OSM    H5G12166   3.119   5.712   7.169 -2.0291 -3.1343 -0.0681
  116OSM    C6F12167   3.041   5.786   7.359  0.4767 -0.9119  0.1880
  116OSM    H6F12168   2.965   5.859   7.392 -0.3082 -1.6868  0.1316
  116OSM    H6G12169   3.142   5.829   7.377 -0.0019 -0.1392  1.0236
  116OSM    C7F12170   3.013   5.663   7.444  0.7521  0.3715 -0.2556
  116OSM    H7F12171   3.084   5.587   7.405  1.1325  0.6398 -0.0925
  116OSM    H7G12172   2.907   5.636   7.425  0.3231  0.1678  2.2434
  116OSM    C8F12173   3.041   5.673   7.599  0.4679  0.0304  0.2325
  116OSM    H8F12174   3.150   5.691   7.615  1.2931 -3.3902 -0.9818
  116OSM    H8G12175   3.031   5.575   7.649 -1.3671 -0.1408 -0.4578
  116OSM    C9F12176   2.963   5.782   7.669  0.5008  0.3032  0.7961
  116OSM    H9F12177   2.948   5.876   7.616  0.1612  1.0691  2.2283
  116OSM   C10F12178   2.906   5.766   7.787  0.2579  0.3173 -0.1078
  116OSM   H10F12179   2.843   5.849   7.824  0.0575 -0.1201  0.5567
  116OSM   C11F12180   2.917   5.649   7.876 -0.0378 -0.7712 -0.3616
  116OSM   H11F12181   2.998   5.579   7.847  0.8938  0.4644 -0.7770
  116OSM   H11G12182   2.815   5.604   7.877 -0.9654  1.2572  0.9345
  116OSM   C12F12183   2.932   5.713   8.015  0.1631  0.0394  0.0889
  116OSM   H12F12184   2.846   5.762   8.065  0.6396 -1.1209  2.1535
  116OSM   H12G12185   3.021   5.780   8.017 -1.9107  2.8250  0.5691
  116OSM   C13F12186   2.969   5.605   8.110 -0.4405 -0.3580 -0.2942
  116OSM   H13F12187   3.057   5.557   8.062  0.5935  1.5629 -0.3748
  116OSM   H13G12188   2.884   5.534   8.118 -1.7009  1.3899  2.4331
  116OSM   C14F12189   3.011   5.659   8.245  0.2423 -0.2191  1.2360
  116OSM   H14F12190   2.917   5.702   8.286  0.0751  3.9457 -3.1562
  116OSM   H14G12191   3.078   5.744   8.221 -1.1955  1.5932  3.4390
  116OSM   C15F12192   3.055   5.546   8.333  0.1218 -0.2129 -0.5981
  116OSM   H15F12193   3.136   5.489   8.282  0.5510 -2.2910  2.2874
  116OSM   H15G12194   2.977   5.470   8.354  0.1784  0.0123  0.4056
  116OSM   C16F12195   3.123   5.588   8.463  0.2239  0.1749  0.1351
  116OSM   H16F12196   3.056   5.627   8.543  0.5520 -0.6037  0.7975
  116OSM   H16G12197   3.186   5.676   8.440 -1.0162  1.2385  0.7753
  116OSM   C17F12198   3.218   5.481   8.520  0.2066 -0.6158 -0.2382
  116OSM   H17F12199   3.300   5.463   8.447 -0.7344  2.1691 -2.0759
  116OSM   H17G12200   3.169   5.382   8.521 -0.0706 -0.4829 -0.5427
  116OSM   C18F12201   3.278   5.509   8.655  0.2130 -0.7987  0.4042
  116OSM   H18F12202   3.339   5.422   8.689  0.5476 -0.6684  0.1341
  116OSM   H18G12203   3.207   5.529   8.738 -2.4622  1.6290 -2.3619
  116OSM   H18H12204   3.349   5.594   8.651  0.9576 -1.2397  2.9631
  117OSM      N12205   1.470   0.533   6.207 -0.0313 -0.8678 -0.4398
  117OSM    C1512206   1.382   0.424   6.143  0.2007  0.4929  0.6695
  117OSM   H15A12207   1.422   0.401   6.045 -1.1072 -2.0438  0.6814
  117OSM   H15B12208   1.278   0.449   6.131 -0.3575 -2.2902 -0.5653
  117OSM   H15C12209   1.389   0.339   6.210  0.1797 -0.0614 -0.0300
  117OSM    C1412210   1.612   0.488   6.206  0.5262  0.3407  0.0878
  117OSM   H14A12211   1.685   0.544   6.261 -0.6126  1.0008  0.9608
  117OSM   H14B12212   1.646   0.477   6.104 -1.0579 -2.1629 -0.2283
  117OSM   H14C12213   1.619   0.387   6.244  1.5446  1.3052  2.4983
  117OSM    C1312214   1.459   0.658   6.129  0.2483 -0.5195 -0.5316
  117OSM   H13A12215   1.497   0.645   6.029  0.5213  0.9152 -0.6235
  117OSM   H13B12216   1.505   0.741   6.180 -0.7173 -1.3035  1.6872
  117OSM   H13C12217   1.359   0.679   6.093 -0.6563  0.2272  2.2319
  117OSM    C1212218   1.421   0.555   6.349  0.5466  0.5938  0.2205
  117OSM   H12A12219   1.499   0.619   6.388  1.8874 -0.0825 -1.2651
  117OSM   H12B12220   1.419   0.464   6.407  1.3314  1.0447  0.9675
  117OSM    C1112221   1.280   0.607   6.373 -0.2785 -0.4945  0.4380
  117OSM   H11A12222   1.267   0.699   6.312 -0.7163  1.4016  3.2745
  117OSM   H11B12223   1.280   0.637   6.480  0.7377  2.9256 -0.4403
  117OSM      P12224   1.046   0.489   6.388  0.1833 -0.0654 -0.2932
  117OSM    O1312225   0.995   0.627   6.384 -0.1394 -0.6141 -0.1426
  117OSM    O1412226   0.978   0.383   6.307  0.2883 -0.0479  0.5467
  117OSM    O1112227   1.055   0.431   6.538  0.2365 -0.0175 -0.2031
  117OSM    O1212228   1.192   0.490   6.336 -0.3666 -0.4943  0.3531
  117OSM    C1S12229   1.130   0.322   6.581  0.0213  0.0018  0.3554
  117OSM    H1S12230   1.235   0.351   6.600  0.4651 -1.6689  0.5060
  117OSM    H1T12231   1.135   0.239   6.508 -2.7368  0.5134 -0.4963
  117OSM     NF12232   1.157   0.152   6.748 -0.5867  0.3954  0.3887
  117OSM    HNF12233   1.134   0.063   6.709 -0.2161  0.0650  0.9114
  117OSM    C2S12234   1.082   0.268   6.712  0.0952  0.3178  0.1855
  117OSM    H2S12235   1.078   0.346   6.791 -0.3589 -0.3546  0.8449
  117OSM    C3S12236   0.932   0.219   6.701 -0.6301 -0.5040  0.6690
  117OSM    H3S12237   0.935   0.138   6.625 -0.3254  0.5588 -0.4663
  117OSM     O312238   0.841   0.310   6.642  0.7588  0.2993  0.4869
  117OSM    HO312239   0.899   0.371   6.596 -0.9375  2.2906  0.9237
  117OSM    C4S12240   0.886   0.171   6.830  0.6327  0.4341  0.1405
  117OSM    H4S12241   0.901   0.063   6.849 -0.4128  0.2653  0.0204
  117OSM    C5S12242   0.834   0.238   6.936  0.6075 -0.3244  0.0692
  117OSM    H5S12243   0.830   0.348   6.938 -0.5211 -0.3188 -1.9786
  117OSM    C6S12244   0.796   0.168   7.063 -0.6157  0.3227 -0.0202
  117OSM    H6S12245   0.732   0.079   7.042  1.5783 -0.7236 -2.5377
  117OSM    H6T12246   0.741   0.238   7.129  3.2963  3.9942 -0.4273
  117OSM    C7S12247   0.927   0.138   7.141  0.2852  0.0711 -1.0687
  117OSM    H7S12248   1.009   0.211   7.153 -0.2383  0.9036 -2.4030
  117OSM    H7T12249   0.978   0.052   7.092  1.0968 -0.9864  1.5532
  117OSM    C8S12250   0.888   0.093   7.285  0.7454 -0.0429  0.0517
  117OSM    H8S12251   0.830  -0.002   7.278  0.2548  0.3131 -0.8325
  117OSM    H8T12252   0.826   0.173   7.331  0.5472  0.2377 -0.6997
  117OSM    C9S12253   1.005   0.077   7.375  0.4631 -0.2727  0.1256
  117OSM    H9S12254   1.064   0.171   7.383  1.1026 -0.5733 -1.0489
  117OSM    H9T12255   1.078  -0.001   7.343  0.4217 -0.4861  0.5426
  117OSM   C10S12256   0.950   0.037   7.515 -0.4134 -1.1411 -0.0454
  117OSM   H10S12257   0.844   0.008   7.498 -1.3868  1.4815  1.1627
  117OSM   H10T12258   0.943   0.120   7.589 -1.2731  1.1163 -2.5760
  117OSM   C11S12259   1.018  -0.084   7.567 -0.2365 -0.4120  0.6860
  117OSM   H11S12260   1.024  -0.163   7.489  0.6219  0.0143  0.3061
  117OSM   H11T12261   0.957  -0.123   7.651 -3.0853  1.1797 -0.5888
  117OSM   C12S12262   1.158  -0.056   7.619  0.4385  0.6408  0.1592
  117OSM   H12S12263   1.159   0.026   7.694 -0.2603 -0.8651  1.8184
  117OSM   H12T12264   1.218  -0.018   7.533 -2.3995  1.7641 -1.4044
  117OSM   C13S12265   1.222  -0.184   7.679 -0.6627  0.1120  0.0489
  117OSM   H13S12266   1.328  -0.164   7.706 -0.4157  0.3120 -1.0171
  117OSM   H13T12267   1.228  -0.258   7.597  1.7788 -0.5245  0.7581
  117OSM   C14S12268   1.154  -0.242   7.807 -0.4389 -0.3474  0.0596
  117OSM   H14S12269   1.057  -0.280   7.767 -0.4242  0.1410 -0.4452
  117OSM   H14T12270   1.150  -0.160   7.882 -0.0951 -0.1248 -0.1660
  117OSM   C15S12271   1.235  -0.350   7.880  0.3347  0.5796  0.4014
  117OSM   H15S12272   1.328  -0.297   7.909  0.2551  2.0199 -1.9018
  117OSM   H15T12273   1.259  -0.439   7.819  0.4844 -0.0945  1.4232
  117OSM   C16S12274   1.166  -0.397   8.009  0.2298 -0.4947 -0.1567
  117OSM   H16S12275   1.075  -0.450   7.976 -0.6549 -1.6096  3.8768
  117OSM   H16T12276   1.139  -0.309   8.070  1.2054  0.1043 -0.5736
  117OSM   C17S12277   1.240  -0.503   8.083 -0.1335  0.3620  0.0711
  117OSM   H17S12278   1.342  -0.468   8.109 -0.3188  1.5966 -0.8326
  117OSM   H17T12279   1.254  -0.589   8.014  0.3956  0.9566 -0.5729
  117OSM   C18S12280   1.159  -0.571   8.195  0.3128  0.1489  0.1425
  117OSM   H18S12281   1.069  -0.619   8.151  1.0543  0.8000 -2.1511
  117OSM   H18T12282   1.131  -0.500   8.275 -1.7274 -1.5059  0.9624
  117OSM   H18U12283   1.214  -0.653   8.245 -0.0240 -1.3181 -1.8164
  117OSM    C1F12284   1.277   0.170   6.795 -0.8338  0.0156  0.0921
  117OSM     OF12285   1.328   0.277   6.804 -0.0001 -0.3332 -0.2169
  117OSM    C2F12286   1.348   0.035   6.824  0.4091 -0.1756  0.5184
  117OSM    H2F12287   1.415   0.008   6.740 -2.6059  2.5125 -2.9078
  117OSM    H2G12288   1.271  -0.045   6.828  1.0708 -0.8866 -0.6006
  117OSM    C3F12289   1.434   0.048   6.953 -0.7650  0.0720  0.2358
  117OSM    H3F12290   1.484   0.147   6.944 -0.0582 -0.0525  2.6269
  117OSM    H3G12291   1.517  -0.026   6.962 -1.0750 -0.2713  0.2760
  117OSM    C4F12292   1.347   0.050   7.077 -0.2171 -0.3495 -0.2404
  117OSM    H4F12293   1.281  -0.036   7.053  0.9323 -2.3279  3.3642
  117OSM    H4G12294   1.288   0.142   7.095  1.5629  0.6505  0.5779
  117OSM    C5F12295   1.414   0.035   7.213  0.4567  0.4351  0.3120
  117OSM    H5F12296   1.479  -0.054   7.192  0.6998  0.5476  0.5813
  117OSM    H5G12297   1.342   0.008   7.292  0.9319 -0.8197  0.3439
  117OSM    C6F12298   1.497   0.160   7.258 -0.0917  0.8375 -0.4508
  117OSM    H6F12299   1.429   0.242   7.288 -0.9090 -0.5391  1.5857
  117OSM    H6G12300   1.568   0.187   7.176 -0.3061  2.1762 -0.2045
  117OSM    C7F12301   1.583   0.124   7.388  0.0128  0.2121 -0.2961
  117OSM    H7F12302   1.653   0.206   7.415  1.2587 -0.3234 -1.8597
  117OSM    H7G12303   1.653   0.043   7.359 -1.7741 -2.0134  1.3999
  117OSM    C8F12304   1.504   0.090   7.511  0.4298 -0.7545 -0.1333
  117OSM    H8F12305   1.494  -0.021   7.513  0.3661 -0.7435  0.3178
  117OSM    H8G12306   1.409   0.145   7.500  1.1567  1.1831  2.7353
  117OSM    C9F12307   1.565   0.132   7.644  0.0240 -0.7766 -0.3115
  117OSM    H9F12308   1.675   0.134   7.650 -0.0088 -3.0523  2.3590
  117OSM   C10F12309   1.501   0.193   7.743  0.7593  0.8723  0.2627
  117OSM   H10F12310   1.556   0.224   7.833 -4.5692  1.5732  3.5479
  117OSM   C11F12311   1.356   0.232   7.748  0.5713  0.3850 -0.0114
  117OSM   H11F12312   1.302   0.218   7.844 -0.6404  0.1610 -0.7056
  117OSM   H11G12313   1.290   0.177   7.677 -0.1948  0.7015  0.4536
  117OSM   C12F12314   1.333   0.384   7.716  0.4177 -0.4247  0.5050
  117OSM   H12F12315   1.430   0.429   7.688 -0.1412  0.6407  0.2282
  117OSM   H12G12316   1.296   0.431   7.810 -1.5352  0.6168 -0.7285
  117OSM   C13F12317   1.222   0.397   7.606  1.1662  0.7081 -0.1827
  117OSM   H13F12318   1.124   0.360   7.642  1.4239  1.2917  1.1354
  117OSM   H13G12319   1.263   0.328   7.529  2.2318 -0.8962  1.7817
  117OSM   C14F12320   1.218   0.534   7.545  0.1318  0.5611  0.3768
  117OSM   H14F12321   1.315   0.585   7.536 -0.2408  1.4519  1.3157
  117OSM   H14G12322   1.152   0.589   7.615 -0.3561 -0.6204  0.8617
  117OSM   C15F12323   1.164   0.522   7.400 -0.2633  0.5194 -1.1476
  117OSM   H15F12324   1.054   0.513   7.414 -0.4288  0.8906 -2.1855
  117OSM   H15G12325   1.207   0.431   7.354  1.1634  0.3237  0.5258
  117OSM   C16F12326   1.193   0.641   7.316  0.5800 -0.6237 -0.4404
  117OSM   H16F12327   1.299   0.675   7.321 -0.5833  3.0908  0.9238
  117OSM   H16G12328   1.128   0.720   7.360 -1.3476 -2.4038 -0.0017
  117OSM   C17F12329   1.144   0.621   7.176 -0.0457 -0.6755  0.5303
  117OSM   H17F12330   1.209   0.544   7.129  1.5108  1.0836 -0.2626
  117OSM   H17G12331   1.040   0.582   7.166  0.4544 -1.7668 -0.5759
  117OSM   C18F12332   1.138   0.745   7.088  0.4072 -0.0895 -0.0583
  117OSM   H18F12333   1.104   0.708   6.988  1.1015 -0.8645 -0.0089
  117OSM   H18G12334   1.240   0.787   7.077 -0.0409  0.4596 -2.4683
  117OSM   H18H12335   1.070   0.813   7.143 -0.0726 -2.4486  2.3818
  118OSM      N12336   4.055   2.959   6.116 -0.5304  0.4138  0.0010
  118OSM    C1512337   4.042   2.811   6.125 -0.2552  0.1698  0.2958
  118OSM   H15A12338   3.953   2.782   6.072  0.1437 -0.8558  0.1737
  118OSM   H15B12339   4.018   2.783   6.226  1.1225 -0.0932  0.5662
  118OSM   H15C12340   4.125   2.750   6.093 -1.5922 -0.6930 -1.5950
  118OSM    C1412341   4.167   3.007   6.198  0.2071 -0.6198 -0.0761
  118OSM   H14A12342   4.180   3.114   6.186  0.7580 -0.7558 -0.7959
  118OSM   H14B12343   4.257   2.960   6.160 -0.9804 -2.5064 -0.6079
  118OSM   H14C12344   4.161   2.989   6.304  0.0654  2.8032  0.5785
  118OSM    C1312345   4.073   2.992   5.975 -0.4503 -0.3387 -0.5332
  118OSM   H13A12346   4.112   3.092   5.963 -0.9832 -0.0263  0.3218
  118OSM   H13B12347   3.979   3.001   5.924 -1.2686  1.4396  1.2154
  118OSM   H13C12348   4.143   2.934   5.916  0.1880 -0.4147  0.2879
  118OSM    C1212349   3.932   3.027   6.167 -0.2590 -0.2653 -0.3373
  118OSM   H12A12350   3.947   3.134   6.169  1.9178 -0.5539  1.4889
  118OSM   H12B12351   3.916   3.007   6.271 -1.5139  0.6930 -0.3365
  118OSM    C1112352   3.798   2.996   6.105 -0.0532 -0.0998  0.4911
  118OSM   H11A12353   3.754   2.896   6.120 -1.0753  0.3146  0.3296
  118OSM   H11B12354   3.798   3.025   5.997 -1.1173 -1.9217 -0.0290
  118OSM      P12355   3.685   3.225   6.185 -0.0333 -0.2858 -0.1132
  118OSM    O1312356   3.822   3.280   6.213  0.5064  0.5202  0.2103
  118OSM    O1412357   3.600   3.270   6.072  0.4902  0.2856  0.4031
  118OSM    O1112358   3.610   3.217   6.325 -0.1872  0.5840 -0.1159
  118OSM    O1212359   3.706   3.074   6.172  0.4939 -0.1797  0.2630
  118OSM    C1S12360   3.655   3.130   6.433 -0.3232  0.6062  0.1959
  118OSM    H1S12361   3.755   3.087   6.408  0.0737  1.5347  0.1491
  118OSM    H1T12362   3.593   3.038   6.436  0.4577  0.1120  1.9555
  118OSM     NF12363   3.688   3.100   6.667 -0.3334 -0.1682 -0.0366
  118OSM    HNF12364   3.619   3.046   6.714 -0.2038  1.6580  2.2950
  118OSM    C2S12365   3.648   3.198   6.573 -0.0932 -0.4209  0.1382
  118OSM    H2S12366   3.721   3.283   6.574 -0.3608 -0.1905  0.0271
  118OSM    C3S12367   3.499   3.254   6.595 -0.3802  0.5400  0.0612
  118OSM    H3S12368   3.426   3.171   6.597  0.0842  0.1195 -0.5730
  118OSM     O312369   3.446   3.332   6.482 -0.2822  0.5281  0.3879
  118OSM    HO312370   3.503   3.307   6.409  0.7576  1.7706  0.7650
  118OSM    C4S12371   3.508   3.325   6.730  0.3937  0.3896  0.8711
  118OSM    H4S12372   3.558   3.422   6.731 -1.2798  1.2751  0.7540
  118OSM    C5S12373   3.455   3.268   6.845  0.2702 -0.4865  0.3013
  118OSM    H5S12374   3.399   3.173   6.842 -1.7557  0.6475  1.0138
  118OSM    C6S12375   3.446   3.325   6.982  0.2628  0.5188 -0.0192
  118OSM    H6S12376   3.354   3.287   7.031  1.4271  0.7831  2.4227
  118OSM    H6T12377   3.442   3.436   6.985  1.2071  0.5654 -0.3248
  118OSM    C7S12378   3.558   3.285   7.080  0.1703 -0.3025 -0.4574
  118OSM    H7S12379   3.657   3.285   7.030 -0.2969  0.8817 -1.3967
  118OSM    H7T12380   3.544   3.180   7.114 -3.4709  0.6493  1.2910
  118OSM    C8S12381   3.568   3.359   7.216  0.2322  0.1920  0.3790
  118OSM    H8S12382   3.461   3.381   7.241  0.7692  0.8920  2.1708
  118OSM    H8T12383   3.633   3.449   7.217 -0.0956  0.4678  3.7073
  118OSM    C9S12384   3.635   3.273   7.321  0.7616 -0.2197 -0.2356
  118OSM    H9S12385   3.739   3.241   7.300  1.1112  0.0428  1.0733
  118OSM    H9T12386   3.573   3.181   7.334 -1.3292  1.2352  0.3138
  118OSM   C10S12387   3.643   3.349   7.453 -0.2845 -0.3749 -0.0159
  118OSM   H10S12388   3.543   3.398   7.463 -0.8249 -0.9369 -2.4419
  118OSM   H10T12389   3.709   3.434   7.426  0.5550 -1.1390 -0.4019
  118OSM   C11S12390   3.674   3.274   7.587  0.0473  0.3040  0.5221
  118OSM   H11S12391   3.777   3.235   7.596 -0.0641  0.3455  2.1107
  118OSM   H11T12392   3.604   3.188   7.582  0.8335 -0.2897 -0.6134
  118OSM   C12S12393   3.647   3.355   7.711 -0.2580 -0.0878 -0.7296
  118OSM   H12S12394   3.540   3.381   7.724  0.1335  1.5740 -0.7378
  118OSM   H12T12395   3.700   3.453   7.708  0.0344 -0.1478  1.4431
  118OSM   C13S12396   3.691   3.275   7.840  0.3760 -0.3857  0.5380
  118OSM   H13S12397   3.714   3.351   7.918 -0.1315 -0.0989  0.4078
  118OSM   H13T12398   3.790   3.228   7.820 -0.3097 -0.8215 -1.9075
  118OSM   C14S12399   3.593   3.166   7.883  0.2038 -0.1696  0.3720
  118OSM   H14S12400   3.573   3.102   7.795  0.0554  0.4468 -0.0502
  118OSM   H14T12401   3.503   3.213   7.927 -0.1598 -1.9586  1.5868
  118OSM   C15S12402   3.648   3.057   7.977  0.2867 -0.3684  0.6456
  118OSM   H15S12403   3.667   3.095   8.080  1.2940  0.7220  0.0779
  118OSM   H15T12404   3.754   3.035   7.951  0.8548  1.6714  1.1699
  118OSM   C16S12405   3.583   2.915   7.982  0.0977 -0.9506  0.0231
  118OSM   H16S12406   3.589   2.879   7.877 -0.5757  1.3407 -0.8153
  118OSM   H16T12407   3.477   2.925   8.014  0.7306 -0.8253  2.1015
  118OSM   C17S12408   3.652   2.820   8.087 -1.0257 -0.4294 -0.2833
  118OSM   H17S12409   3.644   2.872   8.185  1.2534  1.0885 -0.8466
  118OSM   H17T12410   3.760   2.819   8.060 -0.5246 -0.1744  1.6508
  118OSM   C18S12411   3.584   2.682   8.106 -0.3004 -0.4318 -0.3709
  118OSM   H18S12412   3.570   2.631   8.008 -0.6833  2.1988 -1.7242
  118OSM   H18T12413   3.482   2.699   8.149  0.0714  0.9835 -0.0373
  118OSM   H18U12414   3.640   2.617   8.177  2.9125  0.1419 -2.2860
  118OSM    C1F12415   3.821   3.076   6.693  0.0943 -0.7961 -1.3360
  118OSM     OF12416   3.904   3.150   6.642  0.0396 -0.0595 -0.0356
  118OSM    C2F12417   3.854   2.961   6.781 -0.2401  0.3270 -0.2210
  118OSM    H2F12418   3.752   2.926   6.805 -1.0603  1.9313 -1.2422
  118OSM    H2G12419   3.887   3.016   6.873  0.4462  0.0046 -0.2670
  118OSM    C3F12420   3.968   2.866   6.738 -0.6815 -0.2628 -0.5920
  118OSM    H3F12421   4.061   2.927   6.744 -0.5469 -0.5113 -0.1203
  118OSM    H3G12422   3.948   2.831   6.635 -0.8798 -1.0476 -0.2906
  118OSM    C4F12423   3.987   2.737   6.814  0.1780  0.0271 -0.5601
  118OSM    H4F12424   4.073   2.675   6.781  0.3095 -0.5390  0.8247
  118OSM    H4G12425   3.896   2.676   6.798  2.0597 -2.4683 -2.1981
  118OSM    C5F12426   4.013   2.770   6.963  0.4051  0.1259 -0.5216
  118OSM    H5F12427   3.916   2.782   7.016  0.7885 -0.8475  0.4119
  118OSM    H5G12428   4.070   2.865   6.973  0.8940 -0.1393 -0.7478
  118OSM    C6F12429   4.092   2.660   7.034 -0.4049 -1.0046 -0.1078
  118OSM    H6F12430   4.194   2.668   6.991 -0.9495 -1.5980 -1.5340
  118OSM    H6G12431   4.055   2.559   7.006 -1.2869 -1.7776  3.4862
  118OSM    C7F12432   4.101   2.671   7.193 -1.1183 -0.0503 -0.1187
  118OSM    H7F12433   3.994   2.666   7.224 -1.0852 -1.3420 -0.2014
  118OSM    H7G12434   4.144   2.769   7.223 -1.5708  0.3231 -0.6678
  118OSM    C8F12435   4.167   2.548   7.263  0.2608 -0.9539 -0.0813
  118OSM    H8F12436   4.274   2.552   7.233 -0.0242 -1.4793 -1.1807
  118OSM    H8G12437   4.143   2.456   7.205 -0.0512  1.7400 -4.4517
  118OSM    C9F12438   4.145   2.558   7.411 -0.2720  0.0409 -0.2382
  118OSM    H9F12439   4.218   2.616   7.469  1.2409 -1.4928 -0.5863
  118OSM   C10F12440   4.054   2.502   7.485 -0.3486  0.3433  0.4239
  118OSM   H10F12441   4.077   2.500   7.593  0.1350 -2.2687  0.2874
  118OSM   C11F12442   3.943   2.417   7.430 -0.1456  0.4196  0.3848
  118OSM   H11F12443   3.968   2.326   7.372 -1.1648  0.1384  0.3810
  118OSM   H11G12444   3.889   2.472   7.350 -2.5870 -2.2788  0.1204
  118OSM   C12F12445   3.828   2.383   7.529 -0.0489  0.0497  0.0987
  118OSM   H12F12446   3.859   2.310   7.607 -1.1574 -1.2676 -0.6904
  118OSM   H12G12447   3.746   2.338   7.471 -1.2970 -0.0562  1.9018
  118OSM   C13F12448   3.772   2.511   7.594 -1.1164 -1.0951  0.1420
  118OSM   H13F12449   3.737   2.575   7.511 -0.4685 -0.4586  0.3534
  118OSM   H13G12450   3.854   2.561   7.651 -0.0589 -1.2984 -1.1625
  118OSM   C14F12451   3.661   2.481   7.692 -0.3228 -0.0997 -0.0390
  118OSM   H14F12452   3.565   2.451   7.645 -0.5831 -0.1676  0.5331
  118OSM   H14G12453   3.641   2.570   7.756  0.4667  0.4212 -0.5037
  118OSM   C15F12454   3.686   2.364   7.793  0.2479  0.0346 -0.4848
  118OSM   H15F12455   3.705   2.273   7.732  2.8409 -2.1857  3.4104
  118OSM   H15G12456   3.599   2.338   7.856 -1.0122 -0.1161 -2.2337
  118OSM   C16F12457   3.797   2.388   7.895  0.3087  0.3152 -0.2063
  118OSM   H16F12458   3.764   2.468   7.964  2.5345  0.0140  1.2390
  118OSM   H16G12459   3.883   2.413   7.829 -1.8554 -3.9372 -4.9384
  118OSM   C17F12460   3.833   2.254   7.967  0.3412  0.1704  0.0945
  118OSM   H17F12461   3.845   2.176   7.888  2.2662  0.8761 -0.3467
  118OSM   H17G12462   3.742   2.223   8.021  0.2934  0.8074  0.3798
  118OSM   C18F12463   3.953   2.260   8.058 -0.1150  0.6570 -0.4462
  118OSM   H18F12464   3.979   2.157   8.090 -0.0248  0.2023 -1.9227
  118OSM   H18G12465   3.933   2.315   8.152 -0.0689 -0.8551  0.4639
  118OSM   H18H12466   4.040   2.305   8.005 -0.2482  2.1569  0.5697
  119OSM      N12467   5.655   1.609   5.714 -0.9042  0.6743 -0.1179
  119OSM    C1512468   5.738   1.727   5.752 -0.5162 -0.1213 -0.0236
  119OSM   H15A12469   5.725   1.815   5.691  0.8849  1.1146  1.4120
  119OSM   H15B12470   5.843   1.711   5.730 -1.1243 -1.8719 -1.7936
  119OSM   H15C12471   5.722   1.751   5.856 -0.1588  0.7934 -0.1785
  119OSM    C1412472   5.675   1.568   5.574 -0.4072 -0.4183  0.0721
  119OSM   H14A12473   5.776   1.535   5.557 -0.6521 -0.8426 -0.6084
  119OSM   H14B12474   5.664   1.653   5.509 -0.0027 -0.1014  0.4171
  119OSM   H14C12475   5.612   1.484   5.546 -1.1565  0.0398  0.3728
  119OSM    C1312476   5.725   1.504   5.796 -0.2687 -0.4564 -0.3111
  119OSM   H13A12477   5.660   1.418   5.794 -1.5513  0.4758  0.1969
  119OSM   H13B12478   5.725   1.543   5.896  0.2136  0.6474 -0.7330
  119OSM   H13C12479   5.827   1.488   5.767 -0.7744 -0.7424 -1.9799
  119OSM    C1212480   5.509   1.628   5.737  0.6093 -0.1411 -0.6505
  119OSM   H12A12481   5.448   1.542   5.718  0.3163 -0.2685  0.8405
  119OSM   H12B12482   5.469   1.709   5.677 -3.9192 -2.1230 -0.4890
  119OSM    C1112483   5.469   1.672   5.875 -0.5194 -0.0622 -0.0985
  119OSM   H11A12484   5.501   1.601   5.954  0.8354  0.5271 -0.0910
  119OSM   H11B12485   5.360   1.660   5.862 -0.8869  0.9635  1.8711
  119OSM      P12486   5.445   1.930   5.845 -0.2681  0.1625 -0.2751
  119OSM    O1312487   5.545   2.042   5.839  0.4038  0.3277 -0.6649
  119OSM    O1412488   5.380   1.896   5.717  0.2694  0.0042 -0.5923
  119OSM    O1112489   5.344   1.966   5.954  0.1423 -0.2318 -0.1490
  119OSM    O1212490   5.527   1.806   5.908  0.5174  0.1292 -0.1225
  119OSM    C1S12491   5.265   1.887   6.039 -0.2414 -0.3020  1.2184
  119OSM    H1S12492   5.320   1.792   6.055  2.0993  0.4982 -1.6862
  119OSM    H1T12493   5.174   1.870   5.978 -0.7804  1.6776  1.4310
  119OSM     NF12494   5.193   1.829   6.272  1.0096  0.5079 -0.8203
  119OSM    HNF12495   5.103   1.839   6.313  1.2806 -0.3572  0.0149
  119OSM    C2S12496   5.242   1.942   6.187 -0.8787  0.1964 -0.1868
  119OSM    H2S12497   5.339   1.977   6.227 -1.1452 -1.5832  2.1027
  119OSM    C3S12498   5.160   2.069   6.178  0.1085  0.5624  0.6526
  119OSM    H3S12499   5.063   2.029   6.140  1.5525 -4.1801  1.6801
  119OSM     O312500   5.208   2.169   6.093 -0.3092 -0.3600 -0.1151
  119OSM    HO312501   5.280   2.118   6.054  1.6018  1.2610  1.2189
  119OSM    C4S12502   5.131   2.129   6.309 -0.5537 -0.1218  0.0068
  119OSM    H4S12503   5.218   2.163   6.368 -0.1217  0.2969 -0.8674
  119OSM    C5S12504   5.008   2.145   6.366  0.2326 -0.2946  0.0632
  119OSM    H5S12505   4.921   2.105   6.312  0.9127  0.0330 -1.2839
  119OSM    C6S12506   4.969   2.193   6.504 -0.3816 -0.0999 -0.0485
  119OSM    H6S12507   4.891   2.120   6.536 -0.9464 -0.3047 -1.8449
  119OSM    H6T12508   4.927   2.294   6.491 -1.4075 -0.7597 -2.0665
  119OSM    C7S12509   5.081   2.222   6.603  0.0660  0.0641  0.4545
  119OSM    H7S12510   5.150   2.299   6.561  1.5692 -1.0725  0.7976
  119OSM    H7T12511   5.133   2.127   6.630 -0.8192  0.0338  2.0937
  119OSM    C8S12512   5.016   2.289   6.726  0.1905 -0.0492 -0.1767
  119OSM    H8S12513   4.957   2.378   6.694 -1.2804 -0.7403  0.5853
  119OSM    H8T12514   5.092   2.332   6.794 -1.1264  0.7421  0.8295
  119OSM    C9S12515   4.939   2.192   6.816 -0.0905  0.4803 -1.0923
  119OSM    H9S12516   5.006   2.104   6.827 -1.7974 -0.5932  1.3005
  119OSM    H9T12517   4.843   2.170   6.764 -1.3563  0.8167  1.0273
  119OSM   C10S12518   4.899   2.242   6.954 -0.4431 -0.1241 -0.2570
  119OSM   H10S12519   4.805   2.299   6.960  0.7784  1.8230  1.1981
  119OSM   H10T12520   4.980   2.314   6.980 -0.2654 -0.7103  0.8764
  119OSM   C11S12521   4.905   2.151   7.077 -0.2772 -1.0204 -0.1872
  119OSM   H11S12522   5.001   2.097   7.061  0.6020  0.0613  1.3036
  119OSM   H11T12523   4.821   2.079   7.088  0.0616 -1.1215  2.0433
  119OSM   C12S12524   4.896   2.222   7.208 -0.3702  0.2792 -0.1656
  119OSM   H12S12525   4.794   2.219   7.253  1.0718 -1.0766  3.1978
  119OSM   H12T12526   4.915   2.330   7.195 -1.4272  0.1079 -3.6116
  119OSM   C13S12527   5.000   2.166   7.299  0.1878  0.4482 -0.3947
  119OSM   H13S12528   5.099   2.179   7.250 -0.6513 -4.0788 -3.6875
  119OSM   H13T12529   4.985   2.057   7.316  4.2604 -0.0565  0.3485
  119OSM   C14S12530   4.982   2.229   7.439 -0.7188 -0.0486 -0.1326
  119OSM   H14S12531   4.893   2.185   7.488  0.6795 -1.4442  1.2322
  119OSM   H14T12532   4.970   2.339   7.439  0.3641  0.0792  0.5422
  119OSM   C15S12533   5.109   2.188   7.526  0.1033 -0.6818 -1.1084
  119OSM   H15S12534   5.200   2.244   7.499  0.0264 -0.4297 -0.8438
  119OSM   H15T12535   5.117   2.077   7.517 -0.3748 -0.9084  0.9466
  119OSM   C16S12536   5.083   2.201   7.678 -0.4075  0.3283 -0.2467
  119OSM   H16S12537   5.029   2.113   7.720 -2.4774  0.0687 -3.2538
  119OSM   H16T12538   5.029   2.294   7.705  1.0791  2.2566 -3.6565
  119OSM   C17S12539   5.215   2.223   7.755  0.2125  0.0006  0.3943
  119OSM   H17S12540   5.288   2.283   7.696  1.4484 -4.1490 -2.4773
  119OSM   H17T12541   5.258   2.121   7.748  0.7987  0.3391 -0.9647
  119OSM   C18S12542   5.191   2.285   7.893 -0.4373 -0.4819  0.0927
  119OSM   H18S12543   5.158   2.388   7.866  0.0086 -1.3540 -4.1059
  119OSM   H18T12544   5.279   2.283   7.959  0.5195  1.4337 -1.0645
  119OSM   H18U12545   5.116   2.240   7.961 -0.0107 -0.4179  0.6036
  119OSM    C1F12546   5.269   1.716   6.306 -0.2091 -0.5544 -0.4811
  119OSM     OF12547   5.390   1.721   6.298  0.2205 -0.7780 -0.3154
  119OSM    C2F12548   5.188   1.605   6.364 -0.2263 -0.1108  0.2590
  119OSM    H2F12549   5.126   1.562   6.283  0.6699 -1.4267  0.2565
  119OSM    H2G12550   5.110   1.654   6.426 -0.6347  0.9652 -1.0913
  119OSM    C3F12551   5.266   1.489   6.435 -0.4868 -0.5775  0.5538
  119OSM    H3F12552   5.306   1.534   6.528 -4.0070  0.6741  1.5145
  119OSM    H3G12553   5.354   1.458   6.374  0.9261  1.9825  1.2217
  119OSM    C4F12554   5.168   1.382   6.473 -0.0006  0.0461 -0.1869
  119OSM    H4F12555   5.134   1.322   6.386 -1.6752  0.8656 -0.1173
  119OSM    H4G12556   5.079   1.424   6.525 -1.7219 -0.5757 -2.5351
  119OSM    C5F12557   5.232   1.276   6.560 -0.4070  0.2640 -0.2634
  119OSM    H5F12558   5.333   1.245   6.528 -1.0810 -0.6758 -1.5335
  119OSM    H5G12559   5.173   1.181   6.558  1.2340 -0.7696 -0.8838
  119OSM    C6F12560   5.236   1.324   6.707  0.4031  0.7407 -0.8462
  119OSM    H6F12561   5.137   1.357   6.746  0.6679 -0.0438  0.5280
  119OSM    H6G12562   5.294   1.417   6.722  1.5046 -0.2527  1.3587
  119OSM    C7F12563   5.293   1.216   6.798 -0.1453 -0.3759  0.0358
  119OSM    H7F12564   5.385   1.185   6.744 -0.3603 -1.3582  0.2073
  119OSM    H7G12565   5.224   1.130   6.818 -1.0377  0.1301 -0.8582
  119OSM    C8F12566   5.344   1.288   6.930 -0.3648  0.1510 -0.3985
  119OSM    H8F12567   5.437   1.347   6.916 -0.5956  0.3136 -1.3536
  119OSM    H8G12568   5.373   1.209   7.002 -0.0825  2.2871  1.8706
  119OSM    C9F12569   5.229   1.361   6.994  0.8662  0.4102  0.4719
  119OSM    H9F12570   5.197   1.456   6.948 -0.3640 -0.4002 -0.3916
  119OSM   C10F12571   5.153   1.312   7.097 -0.3637  0.1507  0.3365
  119OSM   H10F12572   5.063   1.366   7.131 -0.2781  0.0286  0.7530
  119OSM   C11F12573   5.179   1.176   7.168 -0.3743  0.1103  0.3964
  119OSM   H11F12574   5.284   1.142   7.168 -1.1361 -2.4159 -3.3855
  119OSM   H11G12575   5.128   1.088   7.124 -1.6408  0.8493  0.3322
  119OSM   C12F12576   5.139   1.185   7.312  0.5583  0.7814 -0.2300
  119OSM   H12F12577   5.200   1.257   7.371 -2.3120  1.6746  1.7182
  119OSM   H12G12578   5.162   1.081   7.344  0.2773  0.1614 -1.9641
  119OSM   C13F12579   4.990   1.211   7.343 -0.9844 -0.3796  0.4948
  119OSM   H13F12580   4.922   1.133   7.304 -0.4656  0.5960 -2.4476
  119OSM   H13G12581   4.966   1.311   7.300 -0.0057 -0.4649 -0.2566
  119OSM   C14F12582   4.944   1.212   7.493 -0.4057  0.0278 -0.2223
  119OSM   H14F12583   4.944   1.107   7.530 -0.5735 -0.3418 -1.2446
  119OSM   H14G12584   4.842   1.256   7.491 -0.7906 -0.6653  2.8083
  119OSM   C15F12585   5.027   1.301   7.584 -0.3980  0.4112 -0.5481
  119OSM   H15F12586   5.008   1.408   7.560  0.9207  0.8904  0.4575
  119OSM   H15G12587   5.135   1.279   7.575 -0.2000  0.2536  1.9792
  119OSM   C16F12588   4.996   1.280   7.738  0.1824 -0.1068  0.3199
  119OSM   H16F12589   4.991   1.170   7.751 -1.2140  0.3317  4.0638
  119OSM   H16G12590   4.898   1.317   7.776 -0.7979 -1.6527 -0.6599
  119OSM   C17F12591   5.112   1.341   7.826  0.1990  0.0203 -0.9398
  119OSM   H17F12592   5.151   1.435   7.780  0.1084  0.1341 -0.7832
  119OSM   H17G12593   5.193   1.264   7.826  2.1682  2.0021  1.2179
  119OSM   C18F12594   5.083   1.370   7.972  0.1944 -0.4902  0.4991
  119OSM   H18F12595   5.172   1.382   8.038  1.0315 -0.8585 -0.5449
  119OSM   H18G12596   5.013   1.291   8.008 -1.1658  2.3860  4.5951
  119OSM   H18H12597   5.029   1.467   7.975  1.1343  0.0479  0.2996
  120OSM      N12598   2.185   6.746   6.336  0.1790  0.0504 -0.1502
  120OSM    C1512599   2.062   6.821   6.347  0.8850  0.2095  0.1374
  120OSM   H15A12600   1.975   6.758   6.347  1.6840 -0.9167 -1.3584
  120OSM   H15B12601   2.064   6.896   6.269  1.6508  0.0537  0.0047
  120OSM   H15C12602   2.068   6.879   6.438 -0.0777  2.5968 -1.2727
  120OSM    C1412603   2.194   6.676   6.206 -0.3631 -0.0503 -0.0600
  120OSM   H14A12604   2.274   6.604   6.200 -0.6744 -0.2247 -3.1301
  120OSM   H14B12605   2.218   6.748   6.129 -0.7978 -0.3888 -0.5157
  120OSM   H14C12606   2.102   6.632   6.170 -1.3725  1.6338  0.3819
  120OSM    C1312607   2.299   6.844   6.347 -0.2051 -0.8194  0.3198
  120OSM   H13A12608   2.391   6.794   6.319  0.3888  0.6000 -0.2799
  120OSM   H13B12609   2.311   6.875   6.450 -1.1685 -0.4972  0.3441
  120OSM   H13C12610   2.278   6.927   6.282  0.5958  0.3733  1.5603
  120OSM    C1212611   2.188   6.654   6.458  0.5089 -0.6062 -0.1421
  120OSM   H12A12612   2.106   6.586   6.441 -0.7824  0.6940  0.8439
  120OSM   H12B12613   2.183   6.710   6.550  2.7182 -1.6520  0.6559
  120OSM    C1112614   2.316   6.569   6.482 -0.4690  0.0540  0.4010
  120OSM   H11A12615   2.306   6.501   6.569 -0.4950 -0.0727  0.2997
  120OSM   H11B12616   2.384   6.653   6.506  0.0182  0.3940 -2.0864
  120OSM      P12617   2.509   6.448   6.364  0.1209  0.0359 -0.1267
  120OSM    O1312618   2.482   6.330   6.273 -0.0654  0.2995  0.8721
  120OSM    O1412619   2.616   6.535   6.315  0.0951 -0.2421 -0.6180
  120OSM    O1112620   2.536   6.398   6.511 -0.3565 -0.0844 -0.1420
  120OSM    O1212621   2.366   6.508   6.372  0.0221 -0.0342  0.1564
  120OSM    C1S12622   2.655   6.435   6.584  0.3968 -0.1810 -0.1672
  120OSM    H1S12623   2.655   6.544   6.607  0.4964 -0.2201  0.0190
  120OSM    H1T12624   2.747   6.404   6.531 -0.1769 -3.5225  0.7076
  120OSM     NF12625   2.768   6.390   6.798  0.1970 -0.6592  0.2690
  120OSM    HNF12626   2.843   6.326   6.788  1.2135  0.0594  2.9237
  120OSM    C2S12627   2.651   6.366   6.721 -0.2284  0.4747 -0.5423
  120OSM    H2S12628   2.564   6.405   6.780 -1.7914 -0.3487 -2.2561
  120OSM    C3S12629   2.625   6.208   6.706  0.0662 -0.8795 -0.2208
  120OSM    H3S12630   2.727   6.167   6.689  0.8727 -0.3639  2.9928
  120OSM     O312631   2.541   6.160   6.607 -0.4672  0.7388  0.5335
  120OSM    HO312632   2.517   6.239   6.558 -1.3655 -0.1161 -0.4339
  120OSM    C4S12633   2.573   6.155   6.841 -0.1733  0.5371 -0.6354
  120OSM    H4S12634   2.484   6.207   6.880 -1.6039 -2.4287  0.2202
  120OSM    C5S12635   2.640   6.067   6.920 -0.2227  0.7275 -0.0183
  120OSM    H5S12636   2.741   6.039   6.885  0.0225  1.3181  0.2132
  120OSM    C6S12637   2.589   6.006   7.047  0.0819  0.0409  0.8158
  120OSM    H6S12638   2.580   5.896   7.041 -0.8488  0.1226  0.5741
  120OSM    H6T12639   2.482   6.029   7.066 -0.0205 -0.0948  0.4184
  120OSM    C7S12640   2.656   6.046   7.180 -0.3188  0.0690  0.7682
  120OSM    H7S12641   2.658   6.156   7.194  1.0645  0.2824 -0.9106
  120OSM    H7T12642   2.763   6.016   7.184 -0.0655  0.7454 -0.6745
  120OSM    C8S12643   2.580   5.987   7.304  0.1272 -0.0084 -0.1658
  120OSM    H8S12644   2.578   5.878   7.279  0.6799  0.5671 -2.7530
  120OSM    H8T12645   2.473   6.018   7.312  0.3246  0.4000  1.0545
  120OSM    C9S12646   2.638   6.038   7.435 -0.4605 -0.0247  0.4274
  120OSM    H9S12647   2.620   6.147   7.429 -1.2976 -0.1524  0.4665
  120OSM    H9T12648   2.745   6.015   7.450 -0.4680  0.4279  1.1638
  120OSM   C10S12649   2.564   5.981   7.558 -1.0612  0.4616  0.6899
  120OSM   H10S12650   2.572   5.871   7.547  0.7252  0.6440 -0.1364
  120OSM   H10T12651   2.458   6.012   7.562 -1.1462  0.1533  0.8306
  120OSM   C11S12652   2.633   6.038   7.686  0.3600  0.0239 -0.3371
  120OSM   H11S12653   2.609   6.146   7.689  0.5442  0.0996 -1.4344
  120OSM   H11T12654   2.744   6.031   7.681  0.3383 -2.1933  1.5796
  120OSM   C12S12655   2.571   5.978   7.813 -0.1998 -0.2884 -0.4331
  120OSM   H12S12656   2.606   5.873   7.812  2.9811  0.7174 -0.8946
  120OSM   H12T12657   2.460   5.987   7.809 -0.2071 -0.9479 -1.8612
  120OSM   C13S12658   2.636   6.053   7.931 -0.0714 -0.4590 -0.4098
  120OSM   H13S12659   2.594   6.156   7.933  0.2634 -0.3006 -1.4752
  120OSM   H13T12660   2.747   6.064   7.942 -0.0122 -1.9739  0.8424
  120OSM   C14S12661   2.581   5.980   8.053 -0.6121 -0.7508 -0.0834
  120OSM   H14S12662   2.582   5.871   8.033  1.4781 -0.9418  0.8974
  120OSM   H14T12663   2.477   6.011   8.077  0.0899  1.4602  0.2917
  120OSM   C15S12664   2.655   5.988   8.195  0.2497  0.4659  0.2139
  120OSM   H15S12665   2.751   5.946   8.160  1.4838  3.2684  0.0902
  120OSM   H15T12666   2.595   5.934   8.271 -0.9593  3.8423  1.7800
  120OSM   C16S12667   2.670   6.130   8.257  0.0688  0.4649  0.3187
  120OSM   H16S12668   2.716   6.197   8.181  3.1732 -1.3184  0.5341
  120OSM   H16T12669   2.740   6.129   8.343  0.2250  1.6816  0.2140
  120OSM   C17S12670   2.533   6.198   8.279 -0.5535  0.2145 -0.1951
  120OSM   H17S12671   2.469   6.135   8.344  1.6579 -0.3593  1.4843
  120OSM   H17T12672   2.488   6.225   8.181  0.2234 -1.2326 -0.9589
  120OSM   C18S12673   2.545   6.325   8.368  0.9761 -0.8304 -0.0338
  120OSM   H18S12674   2.577   6.298   8.470  3.1364 -1.9583 -0.9858
  120OSM   H18T12675   2.455   6.391   8.374  2.9192  1.8524  0.5019
  120OSM   H18U12676   2.624   6.398   8.340  1.4405 -1.0057  0.8051
  120OSM    C1F12677   2.804   6.500   6.856  0.3004 -0.3413 -0.5663
  120OSM     OF12678   2.747   6.609   6.833 -0.2330 -0.0392  0.5154
  120OSM    C2F12679   2.917   6.497   6.944 -0.1289 -0.2523 -0.2060
  120OSM    H2F12680   3.012   6.505   6.886 -0.2923 -1.6866 -0.6882
  120OSM    H2G12681   2.919   6.406   7.007 -1.9204 -2.7010 -3.5272
  120OSM    C3F12682   2.918   6.603   7.054  0.4692  0.5461 -0.5631
  120OSM    H3F12683   2.940   6.700   7.002  1.9401  0.8212  0.5562
  120OSM    H3G12684   3.010   6.592   7.115 -1.0472 -1.4423  1.4193
  120OSM    C4F12685   2.799   6.609   7.159 -0.7414  0.0457  0.3400
  120OSM    H4F12686   2.706   6.618   7.100 -1.1358 -1.3355  0.7155
  120OSM    H4G12687   2.823   6.703   7.212 -0.2919  0.0378  0.1574
  120OSM    C5F12688   2.800   6.493   7.255  0.7746  1.0596 -0.3434
  120OSM    H5F12689   2.900   6.477   7.300 -0.4749  0.7505  2.4596
  120OSM    H5G12690   2.775   6.400   7.200  0.4207  1.0777 -0.2154
  120OSM    C6F12691   2.693   6.505   7.371 -0.1200 -0.8231 -0.4606
  120OSM    H6F12692   2.672   6.408   7.421  2.1480 -0.0161  2.1554
  120OSM    H6G12693   2.599   6.540   7.323 -0.6219 -0.0707  1.0335
  120OSM    C7F12694   2.732   6.614   7.469 -0.4644  0.5422 -0.4704
  120OSM    H7F12695   2.748   6.708   7.413  0.9095 -0.6714 -2.1739
  120OSM    H7G12696   2.832   6.593   7.513  0.1087 -0.2741 -2.1433
  120OSM    C8F12697   2.636   6.641   7.582  0.3596 -0.6366  1.1587
  120OSM    H8F12698   2.543   6.677   7.535  0.6624 -1.3297  0.0032
  120OSM    H8G12699   2.676   6.730   7.635  0.8418  0.6390 -1.2866
  120OSM    C9F12700   2.616   6.529   7.675  0.1352 -0.3261 -0.5924
  120OSM    H9F12701   2.627   6.427   7.637  0.6314  0.5478 -2.9022
  120OSM   C10F12702   2.602   6.547   7.807  0.2371  0.3436 -0.1083
  120OSM   H10F12703   2.581   6.453   7.860  0.8400  0.5853  0.5571
  120OSM   C11F12704   2.592   6.684   7.884  0.1073 -0.0846 -0.5831
  120OSM   H11F12705   2.565   6.759   7.806 -1.1159 -3.0753 -3.1878
  120OSM   H11G12706   2.686   6.720   7.931 -1.0839  3.1465 -0.5864
  120OSM   C12F12707   2.481   6.680   7.991  0.1391 -0.1618 -0.1261
  120OSM   H12F12708   2.534   6.642   8.081 -1.6780 -1.6019  0.3724
  120OSM   H12G12709   2.404   6.604   7.965 -0.3839  0.2550  0.1889
  120OSM   C13F12710   2.427   6.822   8.016 -0.0805 -0.2549 -1.0734
  120OSM   H13F12711   2.371   6.863   7.930 -0.1662  1.5184 -0.2040
  120OSM   H13G12712   2.506   6.898   8.037 -0.8282  0.2900 -0.1581
  120OSM   C14F12713   2.328   6.838   8.131  0.4672 -0.0752  0.3793
  120OSM   H14F12714   2.345   6.759   8.207 -0.0450 -1.1170 -0.5688
  120OSM   H14G12715   2.225   6.824   8.091  0.8866  0.8237 -1.0380
  120OSM   C15F12716   2.336   6.979   8.196  0.5385  0.2702 -0.1111
  120OSM   H15F12717   2.342   7.059   8.119  2.9486 -0.1556 -0.4080
  120OSM   H15G12718   2.433   7.003   8.244  0.3897 -0.6810  0.6666
  120OSM   C16F12719   2.233   7.014   8.304 -0.0408  0.5256 -0.2517
  120OSM   H16F12720   2.205   6.924   8.363  0.3142  1.2392  1.0137
  120OSM   H16G12721   2.134   7.032   8.256 -0.9272  0.0869  1.3948
  120OSM   C17F12722   2.277   7.126   8.403  0.4107  0.2909  0.4314
  120OSM   H17F12723   2.311   7.217   8.349  0.8167 -0.4041 -0.5012
  120OSM   H17G12724   2.357   7.096   8.474  2.3021  3.3538 -0.2934
  120OSM   C18F12725   2.164   7.177   8.486 -0.8832 -0.3796 -0.2843
  120OSM   H18F12726   2.104   7.257   8.438  1.0172  0.7759 -0.8101
  120OSM   H18G12727   2.207   7.216   8.580  0.1919 -2.2507  0.0317
  120OSM   H18H12728   2.095   7.092   8.502 -3.6815  1.6909 -1.0767
  121OSM      N12729   4.197   1.782   5.959  0.2330 -0.3917  0.3927
  121OSM    C1512730   4.261   1.900   6.019 -0.4642 -0.1862  0.2950
  121OSM   H15A12731   4.366   1.893   6.040 -0.5502 -1.6394  0.2665
  121OSM   H15B12732   4.223   1.910   6.120 -1.2792  0.0442 -0.0294
  121OSM   H15C12733   4.237   1.996   5.974  1.4702  0.0623 -0.2602
  121OSM    C1412734   4.058   1.812   5.895 -0.3631  0.9268  1.0384
  121OSM   H14A12735   4.022   1.723   5.845 -0.7204  1.8859 -0.4331
  121OSM   H14B12736   4.062   1.890   5.820 -1.6484 -0.4494 -0.5071
  121OSM   H14C12737   3.982   1.845   5.964 -0.3308  2.0151  0.5612
  121OSM    C1312738   4.284   1.722   5.851 -0.1827 -0.5983 -0.0293
  121OSM   H13A12739   4.377   1.678   5.883  0.9061  1.4876 -0.2250
  121OSM   H13B12740   4.312   1.802   5.784 -2.4141  1.0384  0.9304
  121OSM   H13C12741   4.238   1.647   5.790 -2.1514  0.4814  0.0861
  121OSM    C1212742   4.172   1.678   6.075  0.3894 -0.0606  0.3998
  121OSM   H12A12743   4.109   1.605   6.026 -0.3876  1.4455 -0.9028
  121OSM   H12B12744   4.112   1.728   6.150  1.3406  0.7310  0.6398
  121OSM    C1112745   4.297   1.623   6.143 -0.2007 -0.3556  0.0173
  121OSM   H11A12746   4.271   1.582   6.243 -1.3987  2.2250  0.8040
  121OSM   H11B12747   4.375   1.698   6.167  1.7398 -1.3526 -2.9765
  121OSM      P12748   4.387   1.379   6.103 -0.1134  0.1284  0.1787
  121OSM    O1312749   4.259   1.307   6.101 -0.1862 -0.0926  0.2008
  121OSM    O1412750   4.501   1.318   6.025 -0.5974 -0.1857  0.1334
  121OSM    O1112751   4.433   1.402   6.251 -0.4206  0.0702  0.2766
  121OSM    O1212752   4.355   1.530   6.049  0.4961  0.2312  0.2822
  121OSM    C1S12753   4.498   1.298   6.318 -0.8441  0.1944 -0.3982
  121OSM    H1S12754   4.605   1.308   6.286 -0.7895 -2.7610 -1.3035
  121OSM    H1T12755   4.463   1.198   6.287  0.0015 -0.5875  1.1326
  121OSM     NF12756   4.609   1.205   6.535 -0.4342 -0.3739 -0.1621
  121OSM    HNF12757   4.580   1.122   6.582 -0.0006 -1.2972 -1.4791
  121OSM    C2S12758   4.499   1.300   6.472 -1.0271  0.0270  0.0984
  121OSM    H2S12759   4.539   1.401   6.498  0.6682 -0.8048  0.8262
  121OSM    C3S12760   4.361   1.272   6.533  0.7767  0.2566 -0.5843
  121OSM    H3S12761   4.341   1.164   6.518 -3.8182  1.1314 -1.5165
  121OSM     O312762   4.253   1.325   6.460 -0.3891  0.1875  0.3816
  121OSM    HO312763   4.297   1.389   6.404  0.9310 -1.7300 -0.8328
  121OSM    C4S12764   4.363   1.301   6.684  0.8841  0.2140 -0.7628
  121OSM    H4S12765   4.408   1.219   6.743  2.2931  1.4084 -0.1460
  121OSM    C5S12766   4.310   1.408   6.745  0.1267  0.1623  0.0685
  121OSM    H5S12767   4.268   1.497   6.696  0.2386 -0.2994 -0.8745
  121OSM    C6S12768   4.309   1.425   6.892 -0.7328  0.4355  0.5960
  121OSM    H6S12769   4.375   1.508   6.926 -2.0937  0.4161  3.3958
  121OSM    H6T12770   4.355   1.335   6.938 -1.2259 -0.8373 -1.3471
  121OSM    C7S12771   4.169   1.436   6.954 -0.0732 -0.7705 -0.3118
  121OSM    H7S12772   4.106   1.344   6.947  0.1788 -1.2481  2.7629
  121OSM    H7T12773   4.114   1.516   6.900  1.9281  1.0612  0.2723
  121OSM    C8S12774   4.178   1.485   7.102 -1.3363 -0.3697  0.1726
  121OSM    H8S12775   4.213   1.591   7.108 -1.9168 -0.1642 -0.0712
  121OSM    H8T12776   4.249   1.418   7.155  1.0689  0.9121 -1.3484
  121OSM    C9S12777   4.041   1.487   7.167 -0.0199  0.1990  0.1189
  121OSM    H9S12778   3.996   1.386   7.164  0.7007 -0.2681  3.8071
  121OSM    H9T12779   3.969   1.552   7.113  2.2563  0.9533 -2.1589
  121OSM   C10S12780   4.046   1.535   7.320 -0.5348  0.1442  0.5954
  121OSM   H10S12781   3.940   1.535   7.351 -1.3743 -0.2916 -2.1453
  121OSM   H10T12782   4.085   1.639   7.320  0.1602 -0.1058  1.2205
  121OSM   C11S12783   4.148   1.456   7.398 -0.2314 -0.5328 -0.1791
  121OSM   H11S12784   4.246   1.506   7.383  0.2491  0.0853  4.3597
  121OSM   H11T12785   4.147   1.352   7.358  1.3972 -0.1415 -1.2944
  121OSM   C12S12786   4.101   1.451   7.550  1.1331  0.3733  0.5089
  121OSM   H12S12787   4.162   1.386   7.616 -0.4815 -1.0866  0.6008
  121OSM   H12T12788   3.999   1.409   7.558  1.3544 -0.2819  0.0011
  121OSM   C13S12789   4.116   1.588   7.619  0.4380 -0.0402  0.3214
  121OSM   H13S12790   4.059   1.673   7.576 -0.7503  0.0022  1.9113
  121OSM   H13T12791   4.224   1.613   7.613  0.1912  0.5064 -2.3113
  121OSM   C14S12792   4.089   1.574   7.773  0.1191  0.0351  0.2089
  121OSM   H14S12793   4.107   1.467   7.796 -1.9639 -0.6229 -1.1224
  121OSM   H14T12794   3.980   1.587   7.782 -0.5227 -0.9332 -4.7573
  121OSM   C15S12795   4.177   1.671   7.850  0.2522 -0.5678  0.0127
  121OSM   H15S12796   4.185   1.769   7.799  0.9017  0.8915  2.8054
  121OSM   H15T12797   4.283   1.639   7.860  0.1800 -0.7400  0.2385
  121OSM   C16S12798   4.127   1.689   7.993  0.0693 -0.6069 -0.5549
  121OSM   H16S12799   4.114   1.592   8.045 -1.7266 -0.6150 -0.9980
  121OSM   H16T12800   4.039   1.755   8.008 -0.0187 -0.7138 -0.6135
  121OSM   C17S12801   4.232   1.782   8.073  0.1959 -0.1816 -0.0256
  121OSM   H17S12802   4.328   1.728   8.083 -0.5123 -1.4342  0.2130
  121OSM   H17T12803   4.192   1.790   8.176  1.5424  0.6036  0.4452
  121OSM   C18S12804   4.257   1.913   8.009 -0.0743  0.6180 -0.3222
  121OSM   H18S12805   4.163   1.965   7.980 -0.4719  0.4453  0.6205
  121OSM   H18T12806   4.323   1.904   7.920  1.2577 -0.9958  0.8137
  121OSM   H18U12807   4.310   1.985   8.075 -0.5217 -0.2283  0.9714
  121OSM    C1F12808   4.740   1.219   6.530  0.5583  0.2688 -0.3286
  121OSM     OF12809   4.790   1.279   6.440 -0.0726  0.1648 -0.1774
  121OSM    C2F12810   4.807   1.140   6.635 -0.1676 -0.0758 -1.0305
  121OSM    H2F12811   4.881   1.073   6.586 -1.9932 -1.7299 -1.5599
  121OSM    H2G12812   4.739   1.072   6.691  0.6543  0.0623  0.1543
  121OSM    C3F12813   4.881   1.238   6.729  0.1860 -0.2876 -0.3217
  121OSM    H3F12814   4.969   1.280   6.676  0.1031  1.9890  1.2831
  121OSM    H3G12815   4.927   1.175   6.808 -0.2171  1.1117  1.0471
  121OSM    C4F12816   4.801   1.341   6.805 -0.4005 -0.0216  0.2578
  121OSM    H4F12817   4.722   1.383   6.739  0.6974  2.3059  0.3939
  121OSM    H4G12818   4.855   1.437   6.817  0.0325 -0.1346 -0.7012
  121OSM    C5F12819   4.763   1.291   6.944  0.4566 -0.6627 -0.2923
  121OSM    H5F12820   4.850   1.241   6.991 -0.2725 -0.6201  1.1312
  121OSM    H5G12821   4.691   1.207   6.948  1.0945 -1.2076 -0.1581
  121OSM    C6F12822   4.683   1.386   7.035  0.4213  0.1144  0.6354
  121OSM    H6F12823   4.595   1.420   6.977 -1.0580 -1.6624  1.7982
  121OSM    H6G12824   4.750   1.472   7.058  0.8571 -0.2634  0.8025
  121OSM    C7F12825   4.635   1.311   7.158 -0.7563  0.8854  0.1662
  121OSM    H7F12826   4.715   1.267   7.221 -0.2285  2.1261  0.3720
  121OSM    H7G12827   4.577   1.222   7.123  1.8525 -0.1355 -1.6734
  121OSM    C8F12828   4.538   1.392   7.246  0.3531 -0.0941 -0.7661
  121OSM    H8F12829   4.460   1.450   7.193 -0.5201 -2.5264 -2.2167
  121OSM    H8G12830   4.608   1.462   7.298  0.6917 -0.4862 -0.6966
  121OSM    C9F12831   4.475   1.302   7.351 -0.3397 -0.6474 -0.3267
  121OSM    H9F12832   4.425   1.214   7.308 -2.0834  0.9686 -1.6851
  121OSM   C10F12833   4.475   1.317   7.487  0.1630 -0.8175 -0.3392
  121OSM   H10F12834   4.428   1.235   7.544 -0.1422  0.0084  0.5993
  121OSM   C11F12835   4.533   1.433   7.568  0.6077 -0.5959  0.3708
  121OSM   H11F12836   4.449   1.498   7.600  1.3162 -0.3995  1.8730
  121OSM   H11G12837   4.605   1.495   7.511  0.9507 -0.9968  0.3611
  121OSM   C12F12838   4.606   1.394   7.696 -0.0162  0.2530 -0.2496
  121OSM   H12F12839   4.690   1.330   7.661 -0.3843 -0.0788 -0.5313
  121OSM   H12G12840   4.542   1.339   7.769 -0.4976 -2.2660 -2.4842
  121OSM   C13F12841   4.665   1.520   7.762  0.1469  0.6396 -0.2899
  121OSM   H13F12842   4.585   1.596   7.762 -0.6225 -0.0891  2.4359
  121OSM   H13G12843   4.750   1.556   7.701  0.9339  1.5699  1.3218
  121OSM   C14F12844   4.723   1.517   7.905 -0.2519 -0.6955 -0.3466
  121OSM   H14F12845   4.787   1.604   7.929  0.3245 -1.4918  1.0497
  121OSM   H14G12846   4.783   1.423   7.906  0.2711 -0.3551  0.2847
  121OSM   C15F12847   4.609   1.518   8.010 -0.6714  0.3209  0.0354
  121OSM   H15F12848   4.523   1.456   7.977 -0.3124  0.8815 -2.0170
  121OSM   H15G12849   4.579   1.624   8.020  1.7731  1.0387  0.0922
  121OSM   C16F12850   4.645   1.472   8.151 -0.5219  0.4549  0.0700
  121OSM   H16F12851   4.717   1.390   8.131  0.4567  1.0438  1.0753
  121OSM   H16G12852   4.564   1.440   8.219  0.1743  2.1490  1.7790
  121OSM   C17F12853   4.723   1.581   8.234  0.0786 -0.2723 -0.3416
  121OSM   H17F12854   4.644   1.648   8.275  2.0721  1.0944  1.3515
  121OSM   H17G12855   4.776   1.640   8.157  0.2441 -1.1738 -0.9320
  121OSM   C18F12856   4.810   1.513   8.331  0.2845  0.1588 -0.5149
  121OSM   H18F12857   4.747   1.456   8.403  0.1948  0.3698 -0.4269
  121OSM   H18G12858   4.861   1.593   8.389 -2.6705  0.4730  1.7195
  121OSM   H18H12859   4.887   1.445   8.287 -0.4717 -1.2434  0.2764
  122OSM      N12860   3.113   3.337   5.794  0.5359  0.0736  0.2473
  122OSM    C1512861   3.192   3.440   5.716 -0.0533 -0.4065  0.2493
  122OSM   H15A12862   3.209   3.407   5.615 -0.4822  1.6227 -0.5085
  122OSM   H15B12863   3.286   3.462   5.766  0.2610 -0.5410 -0.2828
  122OSM   H15C12864   3.142   3.535   5.718  1.7905  0.5594  1.5916
  122OSM    C1412865   2.980   3.309   5.730  0.3789  0.4839  0.2170
  122OSM   H14A12866   2.909   3.391   5.728 -0.2674 -0.0817 -1.0294
  122OSM   H14B12867   2.935   3.232   5.791 -0.7908  0.6577 -0.4082
  122OSM   H14C12868   2.980   3.269   5.629 -0.5538 -1.3244  0.9029
  122OSM    C1312869   3.182   3.213   5.800  0.2357  0.8714  0.9793
  122OSM   H13A12870   3.122   3.146   5.860  0.5901  1.1092  1.6018
  122OSM   H13B12871   3.267   3.225   5.865  1.8872  1.6966 -1.2441
  122OSM   H13C12872   3.214   3.179   5.702  1.9181  1.7841  1.1948
  122OSM    C1212873   3.092   3.393   5.935 -0.2674  0.6028  0.6014
  122OSM   H12A12874   3.047   3.313   5.993 -0.7101  0.3361 -0.0963
  122OSM   H12B12875   3.021   3.474   5.930 -0.9790  0.0068  1.0180
  122OSM    C1112876   3.222   3.424   6.015 -0.2085 -0.7992 -0.0254
  122OSM   H11A12877   3.292   3.339   5.997 -0.2278 -1.1380  1.4359
  122OSM   H11B12878   3.188   3.421   6.121 -2.4183  0.0146 -0.6965
  122OSM      P12879   3.191   3.686   6.020 -0.1243  0.3596 -0.1876
  122OSM    O1312880   3.280   3.806   6.001  0.0011 -0.0942  0.3160
  122OSM    O1412881   3.061   3.684   5.949  0.0558  0.3025  0.5360
  122OSM    O1112882   3.171   3.660   6.179 -0.5699  0.0344  0.1106
  122OSM    O1212883   3.272   3.555   5.977 -0.5343 -0.5571 -0.3358
  122OSM    C1S12884   3.277   3.674   6.273  0.3865  0.0786 -0.3200
  122OSM    H1S12885   3.332   3.768   6.253 -1.8046  1.0649 -1.8895
  122OSM    H1T12886   3.349   3.590   6.271  0.5594  0.2624 -2.5003
  122OSM     NF12887   3.316   3.737   6.512 -0.1673  0.0802 -0.2101
  122OSM    HNF12888   3.334   3.680   6.592 -0.1170  1.7472  1.0127
  122OSM    C2S12889   3.220   3.688   6.414 -0.0996  0.0462 -1.0879
  122OSM    H2S12890   3.142   3.767   6.425 -0.1237 -0.2655  1.2678
  122OSM    C3S12891   3.148   3.560   6.460 -0.1072 -0.1941  0.6718
  122OSM    H3S12892   3.219   3.476   6.471 -0.2413 -0.0994  2.3363
  122OSM     O312893   3.053   3.508   6.354 -0.0454  0.6335 -0.7679
  122OSM    HO312894   3.081   3.555   6.276 -1.1209 -0.8865 -2.1150
  122OSM    C4S12895   3.071   3.576   6.588 -1.0470  0.5070 -0.1447
  122OSM    H4S12896   2.992   3.652   6.577 -2.8315 -1.1761  0.6999
  122OSM    C5S12897   3.075   3.496   6.700  0.1595 -0.7103  0.3062
  122OSM    H5S12898   3.123   3.398   6.690  2.8183  0.3502  2.0083
  122OSM    C6S12899   2.991   3.526   6.818  0.3902 -0.3226 -0.2889
  122OSM    H6S12900   2.978   3.437   6.883 -0.0482 -0.3083 -0.3544
  122OSM    H6T12901   2.891   3.542   6.772  1.1922  2.0539 -1.3072
  122OSM    C7S12902   3.022   3.655   6.892 -0.4719  0.8362 -0.5925
  122OSM    H7S12903   2.925   3.694   6.929 -1.5161 -0.5196 -1.8258
  122OSM    H7T12904   3.059   3.729   6.818  2.3015 -1.0275 -1.1894
  122OSM    C8S12905   3.119   3.641   7.009 -0.0837 -0.2195  0.9333
  122OSM    H8S12906   3.189   3.726   7.019  0.8844 -1.0531  1.3629
  122OSM    H8T12907   3.183   3.551   6.996 -0.9570 -0.5902 -1.0139
  122OSM    C9S12908   3.048   3.622   7.140  0.6439 -0.2773  0.3951
  122OSM    H9S12909   2.991   3.527   7.142  1.3989 -0.8956 -2.9755
  122OSM    H9T12910   2.991   3.712   7.170  1.5454  0.1234  0.9096
  122OSM   C10S12911   3.148   3.591   7.252 -0.0142  0.2098  0.0033
  122OSM   H10S12912   3.230   3.666   7.257  0.6732 -0.4171 -1.4787
  122OSM   H10T12913   3.191   3.490   7.236  0.7620  0.8596 -2.2077
  122OSM   C11S12914   3.093   3.601   7.390 -0.4009  0.5728 -0.1486
  122OSM   H11S12915   2.986   3.573   7.395  0.4617 -3.0950 -0.8941
  122OSM   H11T12916   3.090   3.705   7.430  0.3967 -1.1430  4.6199
  122OSM   C12S12917   3.184   3.526   7.482 -0.7567  0.2186 -1.2332
  122OSM   H12S12918   3.288   3.523   7.442 -0.5302 -2.4964 -0.5841
  122OSM   H12T12919   3.164   3.417   7.473 -0.1104 -0.0446  0.3931
  122OSM   C13S12920   3.182   3.587   7.616  0.1318  0.1095 -0.0636
  122OSM   H13S12921   3.078   3.620   7.634 -0.2361 -1.1820  0.1783
  122OSM   H13T12922   3.231   3.688   7.613  1.5797 -0.4895  2.1031
  122OSM   C14S12923   3.238   3.497   7.729 -0.0650  0.2705 -0.4060
  122OSM   H14S12924   3.346   3.490   7.707 -0.0760  1.7265 -1.0024
  122OSM   H14T12925   3.184   3.400   7.724 -1.5632  1.0424  0.3291
  122OSM   C15S12926   3.214   3.562   7.869 -0.9239 -0.0896  0.2035
  122OSM   H15S12927   3.114   3.531   7.908 -2.1622  2.9293 -0.4665
  122OSM   H15T12928   3.196   3.670   7.853 -1.3988 -0.4316 -1.7139
  122OSM   C16S12929   3.322   3.529   7.965  0.1705 -0.5179  0.0393
  122OSM   H16S12930   3.419   3.507   7.916 -0.3581 -0.9042 -0.8448
  122OSM   H16T12931   3.299   3.437   8.022 -0.4174 -0.3029  0.1536
  122OSM   C17S12932   3.368   3.642   8.064  0.3881  0.6226  0.4388
  122OSM   H17S12933   3.282   3.704   8.098 -0.0541 -0.0557  0.5724
  122OSM   H17T12934   3.414   3.722   8.003 -0.8498  1.0243  0.0225
  122OSM   C18S12935   3.470   3.596   8.169 -0.5587  0.5712 -0.5290
  122OSM   H18S12936   3.502   3.690   8.218 -1.9214  0.1988  1.1317
  122OSM   H18T12937   3.554   3.537   8.127 -0.8482 -0.9687  0.9754
  122OSM   H18U12938   3.420   3.521   8.235 -0.6296  1.4353  0.4210
  122OSM    C1F12939   3.390   3.845   6.492  0.4723  0.0628  0.0619
  122OSM     OF12940   3.354   3.938   6.417 -0.1235 -0.1447  0.7889
  122OSM    C2F12941   3.526   3.858   6.569  0.3429 -0.7930  0.4402
  122OSM    H2F12942   3.535   3.962   6.607  0.5417 -1.0264  1.0409
  122OSM    H2G12943   3.612   3.853   6.500  1.6609  0.3274  1.9620
  122OSM    C3F12944   3.551   3.760   6.680 -1.2960 -0.0158  0.2501
  122OSM    H3F12945   3.660   3.763   6.700 -0.6987 -0.8037 -2.6184
  122OSM    H3G12946   3.527   3.656   6.650 -1.7672 -0.2128  1.2794
  122OSM    C4F12947   3.481   3.793   6.809 -0.1895 -0.4645  0.5845
  122OSM    H4F12948   3.456   3.695   6.856 -2.0192  0.1710  0.9512
  122OSM    H4G12949   3.385   3.841   6.785  1.0632  0.9331 -1.7532
  122OSM    C5F12950   3.565   3.878   6.917  0.2716  0.2410  0.5127
  122OSM    H5F12951   3.577   3.978   6.870 -0.5980 -0.2614 -0.8168
  122OSM    H5G12952   3.661   3.822   6.919  0.1101 -0.0430  0.3024
  122OSM    C6F12953   3.497   3.879   7.051 -0.0881  0.5195  0.2489
  122OSM    H6F12954   3.386   3.886   7.048 -0.0763  0.8004  0.4305
  122OSM    H6G12955   3.524   3.981   7.086  2.4259 -0.9278  2.7207
  122OSM    C7F12956   3.549   3.767   7.145  0.2920  0.0838 -0.1583
  122OSM    H7F12957   3.659   3.757   7.134  0.2629  0.8634 -1.2925
  122OSM    H7G12958   3.503   3.673   7.109 -0.6625  0.8374 -0.9584
  122OSM    C8F12959   3.499   3.767   7.289  0.2802  0.4690  0.2308
  122OSM    H8F12960   3.516   3.663   7.324 -1.7342  0.0891  0.1537
  122OSM    H8G12961   3.388   3.775   7.289  0.1300 -0.9038 -2.4091
  122OSM    C9F12962   3.565   3.874   7.370  0.0653 -0.5755 -0.3313
  122OSM    H9F12963   3.620   3.950   7.312 -0.0970  0.1990  0.5147
  122OSM   C10F12964   3.571   3.868   7.506 -0.2808 -1.0846 -0.4738
  122OSM   H10F12965   3.607   3.956   7.561 -0.3807 -0.0304 -2.0835
  122OSM   C11F12966   3.519   3.768   7.598 -0.2638 -0.0986  0.4635
  122OSM   H11F12967   3.588   3.683   7.618 -0.5662 -0.3401  0.4886
  122OSM   H11G12968   3.437   3.709   7.553 -1.1392  0.8014  0.8731
  122OSM   C12F12969   3.460   3.832   7.723 -0.5073 -0.8069  0.2391
  122OSM   H12F12970   3.415   3.757   7.792  0.8377 -1.2403  0.6664
  122OSM   H12G12971   3.376   3.897   7.690 -0.8010 -1.0434  0.5122
  122OSM   C13F12972   3.561   3.899   7.817  0.7998 -0.3982 -0.7112
  122OSM   H13F12973   3.507   3.901   7.913  0.5935  0.0892 -0.8346
  122OSM   H13G12974   3.589   4.003   7.789  1.5289 -0.0874  1.0801
  122OSM   C14F12975   3.695   3.822   7.834  0.3036  0.1355  0.3672
  122OSM   H14F12976   3.755   3.839   7.742  1.2419 -0.2761  0.8854
  122OSM   H14G12977   3.676   3.713   7.848  0.6490  0.0403  0.1157
  122OSM   C15F12978   3.774   3.866   7.956  0.0466 -0.1976 -0.2102
  122OSM   H15F12979   3.761   3.976   7.959 -1.5433 -0.4079  1.7158
  122OSM   H15G12980   3.882   3.847   7.935  0.0182  0.8496 -1.3536
  122OSM   C16F12981   3.722   3.811   8.091 -0.4160 -0.0914 -0.5120
  122OSM   H16F12982   3.728   3.702   8.106 -0.3420  0.2442  2.0658
  122OSM   H16G12983   3.613   3.834   8.099 -0.7341 -2.0306  1.0902
  122OSM   C17F12984   3.787   3.885   8.210  0.3977 -0.4862 -0.8725
  122OSM   H17F12985   3.890   3.908   8.176  0.2628  0.5774 -0.5719
  122OSM   H17G12986   3.796   3.820   8.300 -2.9576  1.3352  0.8694
  122OSM   C18F12987   3.724   4.016   8.238  0.4695 -0.0780 -0.3055
  122OSM   H18F12988   3.613   4.013   8.242  0.3376  1.2261 -2.1365
  122OSM   H18G12989   3.733   4.092   8.158  0.9383  1.2258  0.9432
  122OSM   H18H12990   3.768   4.057   8.332  1.1335 -1.3141 -0.0696
  123OSM      N12991   1.503   5.805   6.395 -1.0998  0.2486 -0.1108
  123OSM    C1512992   1.624   5.795   6.475  0.6249  0.0958  0.0679
  123OSM   H15A12993   1.707   5.788   6.406 -1.8202 -2.0110 -2.8101
  123OSM   H15B12994   1.620   5.714   6.547  0.6695 -0.0026 -0.0410
  123OSM   H15C12995   1.631   5.889   6.527 -0.7363  0.0314  0.4025
  123OSM    C1412996   1.500   5.932   6.319  0.4361 -1.4615 -0.3363
  123OSM   H14A12997   1.588   5.940   6.258 -0.2325  1.0575 -1.0396
  123OSM   H14B12998   1.501   6.018   6.384  1.9026 -1.7689  0.0615
  123OSM   H14C12999   1.413   5.932   6.255 -0.7944  1.1243  1.2751
  123OSM    C1313000   1.510   5.687   6.291  0.2962  0.5450 -0.1933
  123OSM   H13A13001   1.597   5.689   6.228  0.7218  3.6323  0.4337
  123OSM   H13B13002   1.431   5.703   6.220 -0.0180 -0.5580 -0.1035
  123OSM   H13C13003   1.491   5.591   6.337 -1.4486  0.7993 -0.3496
  123OSM    C1213004   1.371   5.788   6.474  0.1995 -0.2442  0.5322
  123OSM   H12A13005   1.289   5.788   6.404  0.4735  0.0436  0.2128
  123OSM   H12B13006   1.365   5.871   6.543 -0.9362  0.6991 -0.6580
  123OSM    C1113007   1.345   5.658   6.560  0.3271  0.2214 -0.2251
  123OSM   H11A13008   1.253   5.663   6.622 -1.1621 -0.3885 -2.3375
  123OSM   H11B13009   1.434   5.648   6.627  0.8729 -0.3509 -1.0229
  123OSM      P13010   1.273   5.413   6.509  0.4286  0.1913 -0.4693
  123OSM    O1313011   1.128   5.414   6.465 -0.4247  0.3987  0.2673
  123OSM    O1413012   1.346   5.291   6.465  0.0359 -0.2817 -0.0091
  123OSM    O1113013   1.277   5.414   6.670  0.2889 -0.0475  0.4841
  123OSM    O1213014   1.346   5.543   6.474 -0.3494  0.6924  0.4329
  123OSM    C1S13015   1.402   5.371   6.737  0.3099  0.7482  0.6254
  123OSM    H1S13016   1.489   5.413   6.681  1.1608 -0.1414  1.2721
  123OSM    H1T13017   1.396   5.260   6.744  1.3917  0.5456 -1.2300
  123OSM     NF13018   1.554   5.428   6.930 -0.7114  0.0768 -0.0239
  123OSM    HNF13019   1.566   5.373   7.012 -0.1126 -0.0881 -0.2258
  123OSM    C2S13020   1.416   5.439   6.880  0.4400  0.6504  0.5830
  123OSM    H2S13021   1.392   5.547   6.868 -1.7158 -0.1106 -2.5517
  123OSM    C3S13022   1.300   5.378   6.969 -0.2669  0.9443  0.4661
  123OSM    H3S13023   1.322   5.271   6.989 -1.2056  0.6330 -0.1139
  123OSM     O313024   1.175   5.378   6.906  0.4969  0.7536  0.0109
  123OSM    HO313025   1.185   5.405   6.814 -0.9736 -1.0513 -0.7131
  123OSM    C4S13026   1.295   5.454   7.100 -0.2999 -0.3815  0.1514
  123OSM    H4S13027   1.263   5.558   7.085  1.6418 -0.1262 -2.7712
  123OSM    C5S13028   1.336   5.417   7.227  0.0764  0.7941  1.1005
  123OSM    H5S13029   1.392   5.325   7.249  0.1381  0.1029 -1.7252
  123OSM    C6S13030   1.322   5.513   7.341  1.1458  0.5633 -0.1210
  123OSM    H6S13031   1.251   5.596   7.321 -0.5847 -0.4203  1.6885
  123OSM    H6T13032   1.417   5.567   7.364  1.9593 -1.3853  1.3442
  123OSM    C7S13033   1.262   5.444   7.464  0.1069 -1.2562  0.2370
  123OSM    H7S13034   1.236   5.524   7.537 -0.4168 -0.8506 -0.3840
  123OSM    H7T13035   1.346   5.384   7.505  0.9993  1.3019  2.2324
  123OSM    C8S13036   1.134   5.360   7.448 -0.1010 -0.2349 -0.2706
  123OSM    H8S13037   1.167   5.262   7.406  1.1113  0.9060 -2.0648
  123OSM    H8T13038   1.081   5.417   7.369 -0.2181 -0.9019 -0.6818
  123OSM    C9S13039   1.046   5.327   7.573 -0.4614  0.5294 -0.1930
  123OSM    H9S13040   0.951   5.288   7.532 -0.7827  1.6001 -0.4807
  123OSM    H9T13041   1.039   5.421   7.630  3.1129  0.5574  0.3368
  123OSM   C10S13042   1.102   5.227   7.671  0.0487 -0.0400 -0.7763
  123OSM   H10S13043   1.195   5.269   7.714 -0.0080 -1.0585  0.3817
  123OSM   H10T13044   1.137   5.139   7.613 -1.1388 -1.4073  0.5517
  123OSM   C11S13045   1.000   5.178   7.767  0.5910  0.0070 -0.0250
  123OSM   H11S13046   0.905   5.161   7.713  0.3696 -1.1276  0.7262
  123OSM   H11T13047   0.976   5.257   7.842  0.3262  1.3473 -1.4877
  123OSM   C12S13048   1.026   5.056   7.852  0.2507  0.3453 -1.1756
  123OSM   H12S13049   1.114   5.055   7.921  0.2107 -0.6112 -1.1253
  123OSM   H12T13050   1.035   4.974   7.777  1.4369 -0.0506 -0.6239
  123OSM   C13S13051   0.905   5.027   7.942 -0.8620  0.3997 -0.2736
  123OSM   H13S13052   0.911   4.923   7.978 -0.6284  0.6202  0.3260
  123OSM   H13T13053   0.807   5.046   7.894 -1.3055  0.8862  0.8073
  123OSM   C14S13054   0.910   5.111   8.070 -0.5255 -0.1581 -0.1887
  123OSM   H14S13055   0.905   5.218   8.039 -1.1107  0.3612  1.6559
  123OSM   H14T13056   1.008   5.096   8.119 -0.5266  1.3997  0.3129
  123OSM   C15S13057   0.785   5.085   8.158 -0.6266  0.2003 -0.3298
  123OSM   H15S13058   0.784   4.976   8.179  1.6972 -0.3610 -2.7203
  123OSM   H15T13059   0.702   5.120   8.093  1.7683  0.6699 -3.2784
  123OSM   C16S13060   0.776   5.162   8.288  0.0374 -0.4789 -0.4353
  123OSM   H16S13061   0.679   5.137   8.335 -0.5068  1.7941 -0.2942
  123OSM   H16T13062   0.769   5.272   8.270  0.8208 -0.0588  1.7467
  123OSM   C17S13063   0.890   5.150   8.390  0.4063 -0.4552  0.1986
  123OSM   H17S13064   0.891   5.246   8.447 -1.2017 -1.3964  1.8464
  123OSM   H17T13065   0.984   5.150   8.330  0.3721 -1.4572  0.1423
  123OSM   C18S13066   0.893   5.025   8.472 -0.8962 -0.4563 -0.3498
  123OSM   H18S13067   0.904   4.933   8.411  1.9996 -1.2710  1.3248
  123OSM   H18T13068   0.800   5.015   8.533 -0.5036 -5.7295 -0.4051
  123OSM   H18U13069   0.976   5.036   8.544 -0.9896  0.6517 -0.4040
  123OSM    C1F13070   1.655   5.494   6.882 -0.4839  0.1754  0.3374
  123OSM     OF13071   1.641   5.589   6.803  0.3410  0.5173  0.6357
  123OSM    C2F13072   1.793   5.450   6.917  0.8720  0.2188 -1.0761
  123OSM    H2F13073   1.851   5.462   6.823  1.3330 -0.7787 -0.9180
  123OSM    H2G13074   1.802   5.342   6.939  1.7710  0.8900  2.2079
  123OSM    C3F13075   1.864   5.538   7.019  0.8219  0.1289 -0.2991
  123OSM    H3F13076   1.830   5.643   7.013 -0.5909 -0.2615  0.4359
  123OSM    H3G13077   1.975   5.539   7.027  0.9266  0.3717 -1.6293
  123OSM    C4F13078   1.819   5.495   7.167 -0.1595  0.0956 -0.6168
  123OSM    H4F13079   1.835   5.386   7.182 -0.8511 -0.1388 -1.4616
  123OSM    H4G13080   1.709   5.514   7.173 -0.1196  0.7485 -1.7213
  123OSM    C5F13081   1.896   5.571   7.279  0.0206 -0.3374  0.0931
  123OSM    H5F13082   1.886   5.681   7.270  2.0421 -0.2518 -1.5265
  123OSM    H5G13083   2.005   5.554   7.264 -0.4864 -1.1864 -3.1496
  123OSM    C6F13084   1.859   5.528   7.422  0.0932  0.5106  0.2094
  123OSM    H6F13085   1.891   5.609   7.491  0.0659  0.1288  0.6800
  123OSM    H6G13086   1.933   5.449   7.447 -2.9042 -3.0338 -1.6592
  123OSM    C7F13087   1.713   5.477   7.443 -0.0860  0.1785 -0.3802
  123OSM    H7F13088   1.706   5.389   7.375 -0.9488  0.7698 -1.0714
  123OSM    H7G13089   1.641   5.558   7.417  0.5005  0.3075 -1.6643
  123OSM    C8F13090   1.672   5.439   7.577 -0.0962  0.1755  0.5729
  123OSM    H8F13091   1.731   5.346   7.593 -2.6792 -2.1448 -2.8109
  123OSM    H8G13092   1.562   5.423   7.572 -0.2673  1.6712 -0.7429
  123OSM    C9F13093   1.715   5.537   7.686  0.0817 -0.4863  0.4220
  123OSM    H9F13094   1.725   5.641   7.651  1.8063 -0.7709  0.0436
  123OSM   C10F13095   1.725   5.527   7.819  0.1339  0.3930  0.8082
  123OSM   H10F13096   1.760   5.613   7.876 -0.2685  1.3429 -0.3504
  123OSM   C11F13097   1.706   5.408   7.906 -0.5213  0.0197  0.4568
  123OSM   H11F13098   1.774   5.323   7.883  0.1842  0.3490  1.2747
  123OSM   H11G13099   1.602   5.374   7.891 -0.2990  0.1536 -1.5288
  123OSM   C12F13100   1.717   5.449   8.048 -0.1284  0.0123 -0.4778
  123OSM   H12F13101   1.653   5.536   8.075 -0.6203 -0.8443  1.1816
  123OSM   H12G13102   1.814   5.496   8.077 -0.6839  1.9954 -1.7432
  123OSM   C13F13103   1.677   5.330   8.143 -0.1817 -0.8508 -0.4361
  123OSM   H13F13104   1.739   5.239   8.125 -0.8411 -1.5004  0.5544
  123OSM   H13G13105   1.569   5.302   8.138 -0.4221  0.2317 -1.5222
  123OSM   C14F13106   1.709   5.358   8.288  0.7101  0.6686 -0.7838
  123OSM   H14F13107   1.675   5.462   8.303  0.0574  0.5790 -1.6222
  123OSM   H14G13108   1.820   5.359   8.297  0.6044 -0.6982  1.2706
  123OSM   C15F13109   1.652   5.253   8.387  0.2808  0.1245 -0.2114
  123OSM   H15F13110   1.708   5.275   8.481 -0.3545  1.7046 -0.1804
  123OSM   H15G13111   1.670   5.150   8.352 -1.4600 -0.3775  0.3130
  123OSM   C16F13112   1.508   5.271   8.426  0.1732  0.0989 -0.5367
  123OSM   H16F13113   1.470   5.184   8.484 -0.4958 -0.0616 -1.2046
  123OSM   H16G13114   1.459   5.281   8.326  1.1293  0.4431 -0.9718
  123OSM   C17F13115   1.487   5.405   8.505  0.4687 -0.8790  0.6367
  123OSM   H17F13116   1.526   5.483   8.438  0.8176 -0.4741  1.3078
  123OSM   H17G13117   1.549   5.409   8.597  1.4045  0.4786 -0.0469
  123OSM   C18F13118   1.347   5.449   8.548  0.0637 -0.5761 -0.4316
  123OSM   H18F13119   1.281   5.471   8.461 -1.0840 -0.8568  0.3603
  123OSM   H18G13120   1.353   5.540   8.611  0.7767 -1.2364  0.4675
  123OSM   H18H13121   1.297   5.374   8.613 -1.3944 -0.8079 -1.8043
  124OSM      N13122   1.809   2.067   6.485 -0.0593 -0.4422 -0.4560
  124OSM    C1513123   1.674   2.006   6.456  0.1941 -1.3629 -0.0766
  124OSM   H15A13124   1.612   2.087   6.421  2.7056  1.5421  1.9529
  124OSM   H15B13125   1.622   1.952   6.535 -0.6485  0.7622  0.8486
  124OSM   H15C13126   1.690   1.947   6.367 -2.8031  1.2638 -2.4591
  124OSM    C1413127   1.837   2.164   6.370  0.3103 -0.1217  0.5825
  124OSM   H14A13128   1.782   2.257   6.368  1.3850  0.5167  0.4776
  124OSM   H14B13129   1.832   2.104   6.280 -2.9529  1.3076 -0.2614
  124OSM   H14C13130   1.938   2.196   6.386  0.3755  1.1057 -2.1003
  124OSM    C1313131   1.809   2.143   6.615  0.3750 -0.0283 -0.4332
  124OSM   H13A13132   1.903   2.193   6.635 -0.1629 -0.0549  2.4009
  124OSM   H13B13133   1.783   2.070   6.689 -0.2502 -1.0623 -1.6552
  124OSM   H13C13134   1.730   2.217   6.617 -0.2379 -0.7064  1.3865
  124OSM    C1213135   1.915   1.965   6.490  0.0880 -0.1045  0.1318
  124OSM   H12A13136   1.920   1.914   6.395 -0.0714  2.1358 -1.1102
  124OSM   H12B13137   1.889   1.886   6.559 -0.4221  0.3642  0.4795
  124OSM    C1113138   2.063   2.013   6.518  0.5176  0.3831 -0.9148
  124OSM   H11A13139   2.118   1.919   6.540 -2.3283 -1.1465 -0.1332
  124OSM   H11B13140   2.073   2.070   6.614 -0.1632 -0.7769 -0.1451
  124OSM      P13141   2.168   2.004   6.281  0.1134 -0.1656 -0.2936
  124OSM    O1313142   2.082   1.887   6.256  0.0438  0.4165  0.0948
  124OSM    O1413143   2.190   2.098   6.172 -0.2717  0.3636 -0.1836
  124OSM    O1113144   2.307   1.958   6.331  0.3170  0.7025 -0.1730
  124OSM    O1213145   2.116   2.086   6.415 -0.4706 -0.0108  0.2254
  124OSM    C1S13146   2.410   2.039   6.396  0.4694  0.1189 -0.3132
  124OSM    H1S13147   2.387   2.146   6.382 -0.1582 -0.0037 -0.2265
  124OSM    H1T13148   2.512   2.016   6.357  0.9689  1.5668  0.1304
  124OSM     NF13149   2.533   2.115   6.599 -1.3675 -0.2792  0.4744
  124OSM    HNF13150   2.621   2.068   6.601 -1.7419 -0.9238  1.9826
  124OSM    C2S13151   2.430   2.016   6.547  0.5058 -1.4242  0.0970
  124OSM    H2S13152   2.328   2.037   6.585  0.3245  1.1728 -1.6936
  124OSM    C3S13153   2.468   1.870   6.590  0.1138 -0.2797  0.1946
  124OSM    H3S13154   2.571   1.855   6.551  0.4885  2.0778  0.1585
  124OSM     O313155   2.395   1.762   6.531 -0.3046  0.0060  0.6107
  124OSM    HO313156   2.355   1.810   6.458  1.1818  3.3495  1.9015
  124OSM    C4S13157   2.470   1.864   6.737  0.2608 -0.6605 -0.4685
  124OSM    H4S13158   2.368   1.857   6.777  0.2325 -0.5063 -0.5148
  124OSM    C5S13159   2.578   1.863   6.820  0.3404 -0.0731  0.3789
  124OSM    H5S13160   2.677   1.849   6.776  1.0273 -0.7568  2.1003
  124OSM    C6S13161   2.583   1.850   6.972  0.1641  0.6148  0.2220
  124OSM    H6S13162   2.664   1.912   7.017 -0.8721  1.9149  0.3028
  124OSM    H6T13163   2.608   1.742   6.983  0.5716  0.3289 -2.9866
  124OSM    C7S13164   2.457   1.877   7.058 -0.8516 -0.5048  1.0158
  124OSM    H7S13165   2.501   1.855   7.158  1.1311 -0.1851  0.2304
  124OSM    H7T13166   2.371   1.816   7.023 -1.7360  0.5137  1.4025
  124OSM    C8S13167   2.416   2.028   7.057 -0.0831 -0.1626  0.3725
  124OSM    H8S13168   2.399   2.058   6.951  0.8626  0.5246  0.4062
  124OSM    H8T13169   2.507   2.085   7.087 -0.2999  0.7102 -0.5778
  124OSM    C9S13170   2.296   2.064   7.149  0.9983 -0.0245 -0.1497
  124OSM    H9S13171   2.205   2.009   7.118  0.6470  0.1609  0.5257
  124OSM    H9T13172   2.275   2.173   7.159  3.2522  0.2624  2.0982
  124OSM   C10S13173   2.307   2.034   7.301  0.7234  0.2694 -0.2790
  124OSM   H10S13174   2.319   1.925   7.314  2.5355  0.4768 -0.1423
  124OSM   H10T13175   2.209   2.068   7.343  0.3556  1.0734 -1.7633
  124OSM   C11S13176   2.419   2.115   7.373 -0.3632 -0.7707  0.0910
  124OSM   H11S13177   2.419   2.219   7.333 -2.5104 -1.2334 -1.2114
  124OSM   H11T13178   2.516   2.063   7.355 -1.0824 -2.0695 -0.1142
  124OSM   C12S13179   2.401   2.124   7.527  0.5697  0.5254 -0.9263
  124OSM   H12S13180   2.307   2.176   7.555  0.7020  0.6886 -0.7849
  124OSM   H12T13181   2.480   2.191   7.567  0.4917  0.6889 -1.0437
  124OSM   C13S13182   2.415   1.992   7.598 -0.0137  0.0119 -0.0496
  124OSM   H13S13183   2.519   1.957   7.582  0.1309  1.0121 -1.4525
  124OSM   H13T13184   2.337   1.922   7.560  1.1154  0.3760 -3.1756
  124OSM   C14S13185   2.393   1.991   7.748  0.5844  0.0062 -0.5052
  124OSM   H14S13186   2.291   2.025   7.775  0.9560  1.4890 -0.9130
  124OSM   H14T13187   2.466   2.059   7.796 -1.4891  1.3965  0.7943
  124OSM   C15S13188   2.409   1.850   7.799  0.3507  0.0871  0.2618
  124OSM   H15S13189   2.515   1.823   7.780  0.9989  2.6771 -0.0221
  124OSM   H15T13190   2.337   1.777   7.758  1.9716 -1.2246 -0.2928
  124OSM   C16S13191   2.397   1.851   7.957 -0.1939 -0.1417 -0.5064
  124OSM   H16S13192   2.484   1.911   7.990  1.4054 -2.3677 -0.5620
  124OSM   H16T13193   2.416   1.746   7.989 -2.9934 -0.1933  1.1773
  124OSM   C17S13194   2.263   1.909   8.006  0.2689 -0.4899 -1.1860
  124OSM   H17S13195   2.178   1.897   7.934 -0.8650  0.7104 -0.0638
  124OSM   H17T13196   2.274   2.017   8.028 -1.2337 -0.4017 -0.7870
  124OSM   C18S13197   2.222   1.841   8.140  0.0613  0.3214 -0.2759
  124OSM   H18S13198   2.283   1.880   8.224 -1.5379 -2.0566  2.0733
  124OSM   H18T13199   2.248   1.733   8.129 -0.8670  0.1072 -0.3623
  124OSM   H18U13200   2.114   1.844   8.166  0.0017 -1.2643 -0.2985
  124OSM    C1F13201   2.519   2.250   6.615  0.8095 -0.7903  0.5542
  124OSM     OF13202   2.424   2.303   6.567  0.0276  0.2552  0.4024
  124OSM    C2F13203   2.627   2.314   6.692 -0.0152  0.4509  0.4774
  124OSM    H2F13204   2.693   2.364   6.618  1.4000  0.6013  1.8090
  124OSM    H2G13205   2.678   2.226   6.737  0.4109 -0.5625 -1.9155
  124OSM    C3F13206   2.565   2.418   6.787 -0.0842 -0.6001 -0.1401
  124OSM    H3F13207   2.508   2.490   6.724  1.0363  0.3691 -0.0798
  124OSM    H3G13208   2.649   2.480   6.826 -0.0372 -0.7455 -0.0082
  124OSM    C4F13209   2.485   2.371   6.902 -0.4683 -0.9011  0.2115
  124OSM    H4F13210   2.523   2.275   6.945  0.9268  1.2477  4.0900
  124OSM    H4G13211   2.380   2.354   6.872 -0.1404  1.1099 -2.2264
  124OSM    C5F13212   2.481   2.479   7.003  0.5877 -0.6010  0.2428
  124OSM    H5F13213   2.466   2.578   6.955 -0.8083 -0.6315  0.6018
  124OSM    H5G13214   2.580   2.484   7.053  0.2964 -1.8256  0.9652
  124OSM    C6F13215   2.385   2.449   7.120  0.2252  0.1616  0.0435
  124OSM    H6F13216   2.418   2.351   7.162 -0.5614 -0.4607 -0.7585
  124OSM    H6G13217   2.282   2.438   7.081  0.2528  1.4721 -0.4140
  124OSM    C7F13218   2.372   2.565   7.219 -0.3465  0.5084 -0.1437
  124OSM    H7F13219   2.324   2.653   7.171 -1.3066 -1.6654 -3.3749
  124OSM    H7G13220   2.475   2.596   7.244 -0.2097 -1.2303  1.5559
  124OSM    C8F13221   2.307   2.529   7.352  0.0963  0.7104 -0.1496
  124OSM    H8F13222   2.377   2.452   7.392  0.2432  0.9780  0.1066
  124OSM    H8G13223   2.212   2.478   7.325  0.3447 -0.1750  0.6040
  124OSM    C9F13224   2.292   2.653   7.436  0.5684  0.5038  0.1977
  124OSM    H9F13225   2.229   2.733   7.393 -0.8754  0.6431  2.5157
  124OSM   C10F13226   2.337   2.662   7.558 -0.3194 -0.4385 -0.7871
  124OSM   H10F13227   2.316   2.751   7.619  2.3653 -1.6695  2.0666
  124OSM   C11F13228   2.415   2.554   7.624  0.7138  0.3152  0.0804
  124OSM   H11F13229   2.523   2.553   7.600  0.7716  1.2424  0.2687
  124OSM   H11G13230   2.376   2.452   7.603 -1.4630  1.0152  0.5728
  124OSM   C12F13231   2.411   2.567   7.780 -0.8361 -0.0327 -1.0799
  124OSM   H12F13232   2.311   2.579   7.827 -2.4244 -2.3377 -3.7661
  124OSM   H12G13233   2.476   2.652   7.809  2.6999 -2.8505 -0.3754
  124OSM   C13F13234   2.466   2.434   7.839  0.5273  0.8776  0.1706
  124OSM   H13F13235   2.573   2.415   7.814  0.3726  1.2359 -0.7857
  124OSM   H13G13236   2.410   2.344   7.807  1.4394  1.1414 -2.2460
  124OSM   C14F13237   2.460   2.442   7.992 -0.6904 -0.5090  0.3607
  124OSM   H14F13238   2.361   2.479   8.026 -0.7031 -0.6904  0.5200
  124OSM   H14G13239   2.525   2.521   8.036  0.0741 -0.6011 -0.5931
  124OSM   C15F13240   2.491   2.305   8.051 -0.4148 -0.0409 -0.3395
  124OSM   H15F13241   2.596   2.274   8.029 -0.2725  0.6675 -0.6557
  124OSM   H15G13242   2.429   2.229   8.000  1.5200 -3.8575  2.7213
  124OSM   C16F13243   2.457   2.286   8.208 -0.8344  0.3573 -0.5740
  124OSM   H16F13244   2.463   2.179   8.237  0.9024  0.7716  0.6156
  124OSM   H16G13245   2.350   2.316   8.214 -0.8141  0.5525 -1.1048
  124OSM   C17F13246   2.534   2.376   8.307 -0.0787  0.5095 -0.3289
  124OSM   H17F13247   2.495   2.475   8.275 -2.4434 -0.2533  0.0572
  124OSM   H17G13248   2.642   2.364   8.285 -0.1817  0.4000 -0.7785
  124OSM   C18F13249   2.507   2.353   8.458  0.1267 -0.9741  0.1236
  124OSM   H18F13250   2.400   2.338   8.482  0.0061  0.2351  0.3903
  124OSM   H18G13251   2.535   2.449   8.508 -0.7058 -0.3288 -0.6483
  124OSM   H18H13252   2.559   2.265   8.502  3.4315 -1.2550 -4.0715
  125OSM      N13253   5.203   0.700   6.085 -0.3798 -0.4275  0.5864
  125OSM    C1513254   5.319   0.766   6.163 -0.6482 -0.1872  0.3508
  125OSM   H15A13255   5.331   0.715   6.257 -0.8606  1.0604  1.0564
  125OSM   H15B13256   5.299   0.872   6.171  0.6074 -0.0037  1.0943
  125OSM   H15C13257   5.408   0.770   6.102  0.1256  0.3010  1.5004
  125OSM    C1413258   5.194   0.770   5.953 -0.3525 -0.4165 -0.2717
  125OSM   H14A13259   5.198   0.877   5.966 -3.1569 -0.4797  1.5047
  125OSM   H14B13260   5.096   0.755   5.910 -0.7631  0.7268  0.2433
  125OSM   H14C13261   5.273   0.731   5.890 -1.2782 -1.0821 -1.0240
  125OSM    C1313262   5.237   0.571   6.044 -0.2311  0.5126 -0.9761
  125OSM   H13A13263   5.151   0.534   5.991 -0.7435  0.5161 -0.1512
  125OSM   H13B13264   5.265   0.497   6.117 -0.7741 -0.3572 -1.6444
  125OSM   H13C13265   5.322   0.565   5.977  0.8967  1.4080  0.3412
  125OSM    C1213266   5.072   0.700   6.162 -0.1470 -0.4123 -0.1327
  125OSM   H12A13267   5.048   0.804   6.178 -0.1640 -0.5635  0.8681
  125OSM   H12B13268   5.085   0.653   6.258  1.2945  0.2561  0.0156
  125OSM    C1113269   4.951   0.623   6.114 -0.6604  0.7982 -0.1803
  125OSM   H11A13270   4.940   0.644   6.006 -2.4743 -2.5243 -0.7089
  125OSM   H11B13271   4.861   0.661   6.168 -0.4622  3.2880 -1.5115
  125OSM      P13272   4.964   0.412   6.269  0.5928 -0.0644 -0.2715
  125OSM    O1313273   4.977   0.265   6.242 -0.6978 -0.0452  0.6808
  125OSM    O1413274   5.056   0.473   6.369  0.3576  0.1257 -0.1890
  125OSM    O1113275   4.805   0.451   6.300 -0.1695  0.5727  0.4301
  125OSM    O1213276   4.973   0.485   6.135 -0.0737  0.4103 -0.4762
  125OSM    C1S13277   4.757   0.424   6.432  0.2053 -0.3166 -0.1287
  125OSM    H1S13278   4.763   0.315   6.454  1.0582 -0.3647 -0.6121
  125OSM    H1T13279   4.647   0.439   6.435  0.0160 -1.7963  3.0007
  125OSM     NF13280   4.783   0.446   6.676  0.1106  0.2061  0.4061
  125OSM    HNF13281   4.702   0.475   6.726 -0.4080  0.6281 -0.6718
  125OSM    C2S13282   4.802   0.516   6.549  1.1047  0.5247  0.0197
  125OSM    H2S13283   4.913   0.525   6.552  1.2820 -1.6758  0.6546
  125OSM    C3S13284   4.734   0.654   6.525 -0.6850  0.1305 -0.5994
  125OSM    H3S13285   4.624   0.645   6.520 -0.3892 -3.5846 -2.4766
  125OSM     O313286   4.785   0.714   6.405 -0.8114  0.5905  0.0109
  125OSM    HO313287   4.807   0.639   6.350 -0.9537  0.1477  0.5629
  125OSM    C4S13288   4.767   0.740   6.645  1.0058  0.9159  0.3351
  125OSM    H4S13289   4.684   0.795   6.691  0.8056 -0.2395  1.3654
  125OSM    C5S13290   4.890   0.761   6.693 -0.1437  0.4392  0.7871
  125OSM    H5S13291   4.986   0.729   6.651 -0.5142  0.5475 -0.1535
  125OSM    C6S13292   4.914   0.838   6.825 -0.0810  0.1937  1.0372
  125OSM    H6S13293   4.812   0.860   6.862 -0.1034 -0.1360  1.1699
  125OSM    H6T13294   4.961   0.937   6.806  2.3053 -1.0547  0.1884
  125OSM    C7S13295   4.999   0.757   6.930 -0.2579 -0.2678  0.3395
  125OSM    H7S13296   5.105   0.736   6.903 -0.3019 -0.8087  0.5729
  125OSM    H7T13297   4.951   0.657   6.937 -1.2740  0.0546 -1.5059
  125OSM    C8S13298   4.978   0.817   7.070 -0.4335 -0.1643 -0.5317
  125OSM    H8S13299   4.870   0.838   7.083 -0.5878  0.3892 -2.4831
  125OSM    H8T13300   5.033   0.913   7.074  0.6707 -0.8088  0.2099
  125OSM    C9S13301   5.041   0.737   7.192 -0.0584 -0.1597 -0.8282
  125OSM    H9S13302   5.152   0.732   7.194  0.0267  1.0230  3.6673
  125OSM    H9T13303   4.999   0.634   7.191  0.4315 -0.3816  0.3694
  125OSM   C10S13304   4.995   0.798   7.333 -0.0640  0.2692  0.1854
  125OSM   H10S13305   4.887   0.777   7.348 -0.5389 -0.0189 -3.3603
  125OSM   H10T13306   5.016   0.907   7.342  2.3254  0.1180 -2.6736
  125OSM   C11S13307   5.076   0.742   7.450 -0.4652 -0.2683  0.2380
  125OSM   H11S13308   5.182   0.735   7.416 -0.1512  2.2845  0.5635
  125OSM   H11T13309   5.042   0.638   7.466 -2.1808  0.0276 -1.2775
  125OSM   C12S13310   5.053   0.843   7.564 -0.5592  0.2001  0.4940
  125OSM   H12S13311   4.946   0.875   7.560 -1.0103 -1.0468  1.9351
  125OSM   H12T13312   5.110   0.938   7.551 -1.5284  0.5404 -1.4654
  125OSM   C13S13313   5.089   0.787   7.702 -0.6473  0.0977  0.1241
  125OSM   H13S13314   5.198   0.775   7.719 -0.6376 -1.2831 -0.8605
  125OSM   H13T13315   5.047   0.685   7.717 -1.0240 -0.2279 -2.9327
  125OSM   C14S13316   5.038   0.883   7.804  0.1281  0.1224  0.1216
  125OSM   H14S13317   4.935   0.911   7.775 -0.6264 -0.2347  2.3043
  125OSM   H14T13318   5.100   0.975   7.804 -0.4835  0.6451 -5.0278
  125OSM   C15S13319   5.015   0.824   7.948  0.4791  0.5604 -0.4169
  125OSM   H15S13320   4.957   0.731   7.928 -0.6614  0.7090  2.0189
  125OSM   H15T13321   4.949   0.893   8.005  1.0407  0.4204  0.4075
  125OSM   C16S13322   5.146   0.775   8.009  0.2120 -0.0039  0.8328
  125OSM   H16S13323   5.187   0.709   7.930 -1.0467  1.2470 -0.9001
  125OSM   H16T13324   5.127   0.703   8.092  1.1974 -1.0977  0.1218
  125OSM   C17S13325   5.254   0.877   8.040  0.1855 -0.3707 -0.5953
  125OSM   H17S13326   5.285   0.922   7.944  0.3424 -2.7522 -1.6997
  125OSM   H17T13327   5.339   0.830   8.094  1.5153 -0.4520 -2.7256
  125OSM   C18S13328   5.210   1.000   8.126  0.0159  0.3148 -0.0406
  125OSM   H18S13329   5.169   0.961   8.221 -2.2185  0.1845 -1.0104
  125OSM   H18T13330   5.131   1.061   8.076  0.0625 -0.3290 -0.9226
  125OSM   H18U13331   5.297   1.064   8.150 -0.4473  1.3753 -1.1318
  125OSM    C1F13332   4.849   0.335   6.717 -0.3281  0.5144  0.7792
  125OSM     OF13333   4.937   0.283   6.651 -0.8156 -0.3322 -0.1444
  125OSM    C2F13334   4.799   0.277   6.848  0.3768  0.3593  0.3580
  125OSM    H2F13335   4.765   0.173   6.830 -2.7743  0.9772  2.3108
  125OSM    H2G13336   4.712   0.339   6.880 -1.6573 -1.8305 -0.8021
  125OSM    C3F13337   4.915   0.283   6.953  0.1249 -0.3138  0.1290
  125OSM    H3F13338   4.962   0.383   6.960 -1.3437  0.4244 -0.2473
  125OSM    H3G13339   4.997   0.214   6.923 -0.9433 -1.9194  0.8285
  125OSM    C4F13340   4.865   0.256   7.100  0.4426  0.7716  0.2464
  125OSM    H4F13341   4.795   0.170   7.098  0.9414  0.3335  1.0935
  125OSM    H4G13342   4.802   0.345   7.122  2.2764  2.2815 -0.5286
  125OSM    C5F13343   4.976   0.253   7.210 -0.1546 -0.4337 -0.8372
  125OSM    H5F13344   5.052   0.331   7.192 -0.5832 -0.0923 -1.1767
  125OSM    H5G13345   5.031   0.157   7.195 -1.5553 -1.2736 -0.7715
  125OSM    C6F13346   4.914   0.259   7.351  0.0567  0.4209  0.2482
  125OSM    H6F13347   4.839   0.178   7.356  1.0046 -0.5152 -0.4998
  125OSM    H6G13348   4.864   0.358   7.357  1.3040  0.9770  1.9443
  125OSM    C7F13349   5.020   0.239   7.465  0.5529 -0.5655 -0.1749
  125OSM    H7F13350   5.106   0.306   7.447 -1.5502  2.0229 -0.9163
  125OSM    H7G13351   5.033   0.129   7.453  0.9873 -0.4567 -0.7231
  125OSM    C8F13352   4.951   0.257   7.600 -0.2090  0.2523 -0.3685
  125OSM    H8F13353   4.959   0.160   7.653 -0.8609  1.5006  2.1157
  125OSM    H8G13354   4.846   0.269   7.566 -0.2642 -3.3060 -1.5979
  125OSM    C9F13355   5.000   0.385   7.675 -0.3085  0.0289  0.0363
  125OSM    H9F13356   5.010   0.483   7.626 -0.2007  0.3448  0.6801
  125OSM   C10F13357   5.025   0.377   7.809 -0.0183  0.3467  0.0350
  125OSM   H10F13358   5.066   0.461   7.866  0.0819  0.7508 -0.6257
  125OSM   C11F13359   5.017   0.252   7.898  0.8572 -0.8215 -0.1664
  125OSM   H11F13360   5.081   0.272   7.986  0.3543  2.8124 -0.5732
  125OSM   H11G13361   5.051   0.163   7.840 -1.3482  0.9529 -4.3721
  125OSM   C12F13362   4.863   0.241   7.946 -0.0927 -0.0719  0.5504
  125OSM   H12F13363   4.798   0.261   7.858 -0.4221  0.3410  0.8847
  125OSM   H12G13364   4.831   0.319   8.018 -0.0100  0.2557  0.2374
  125OSM   C13F13365   4.828   0.099   7.984 -0.2797  0.1389  0.1317
  125OSM   H13F13366   4.871   0.026   7.911  0.5711  0.9115 -0.1415
  125OSM   H13G13367   4.720   0.085   7.962 -0.4932 -0.0599  1.2934
  125OSM   C14F13368   4.836   0.065   8.130 -0.2462 -0.5021  0.5371
  125OSM   H14F13369   4.787  -0.033   8.146 -3.3840  0.9269  0.2251
  125OSM   H14G13370   4.773   0.138   8.186  1.2902 -1.5261  3.7181
  125OSM   C15F13371   4.987   0.057   8.176 -0.4365 -0.1259 -0.0013
  125OSM   H15F13372   5.020   0.162   8.190 -1.9030  0.2720  0.4944
  125OSM   H15G13373   5.043   0.010   8.092 -0.1874 -2.4798  1.4145
  125OSM   C16F13374   5.009  -0.045   8.285 -0.5768 -0.9148 -0.1097
  125OSM   H16F13375   5.115  -0.053   8.316 -0.5350  1.4578  0.4894
  125OSM   H16G13376   4.976  -0.138   8.234  1.9774 -2.7646  1.4909
  125OSM   C17F13377   4.920  -0.036   8.412 -0.0644  0.4043  0.3552
  125OSM   H17F13378   4.816  -0.067   8.385  0.6899 -2.0506  0.1651
  125OSM   H17G13379   4.912   0.069   8.447 -2.7390 -0.5883  3.0176
  125OSM   C18F13380   4.971  -0.128   8.529 -0.1488  0.2893 -0.5272
  125OSM   H18F13381   4.891  -0.136   8.605  0.2556  1.5033  0.0442
  125OSM   H18G13382   5.067  -0.089   8.569  0.4726 -1.7599  0.0110
  125OSM   H18H13383   4.989  -0.222   8.473 -3.5174 -1.3906  1.0721
  126OSM      N13384   2.481   5.486   6.157  0.0215 -0.0537  1.0059
  126OSM    C1513385   2.509   5.567   6.033 -0.5528 -0.6405 -0.1344
  126OSM   H15A13386   2.570   5.651   6.061 -1.2594 -0.0627 -0.3206
  126OSM   H15B13387   2.420   5.603   5.983  1.7297 -0.6332 -4.3808
  126OSM   H15C13388   2.557   5.505   5.958  2.8038  1.5622  0.1034
  126OSM    C1413389   2.385   5.561   6.240 -0.3169  0.2167 -0.0908
  126OSM   H14A13390   2.364   5.505   6.330  2.4477  0.0586  0.5039
  126OSM   H14B13391   2.295   5.591   6.189 -0.4513  1.0595  0.6248
  126OSM   H14C13392   2.431   5.653   6.275 -0.7299 -1.1427  4.4221
  126OSM    C1313393   2.409   5.364   6.119 -0.5946 -0.6785 -0.2979
  126OSM   H13A13394   2.395   5.317   6.216  3.1023  2.4902  1.9574
  126OSM   H13B13395   2.473   5.305   6.055  2.3287  1.5879  0.3778
  126OSM   H13C13396   2.320   5.388   6.064 -1.3499  1.0877  1.6149
  126OSM    C1213397   2.605   5.451   6.236  0.2745 -0.3092  0.2213
  126OSM   H12A13398   2.653   5.545   6.257  0.9162 -0.6872  0.4683
  126OSM   H12B13399   2.667   5.392   6.170  0.2684 -0.0451 -0.0239
  126OSM    C1113400   2.584   5.366   6.365 -0.2973 -0.4430 -0.8616
  126OSM   H11A13401   2.519   5.425   6.433 -1.2151 -3.2810  0.8143
  126OSM   H11B13402   2.682   5.338   6.411 -0.5961 -2.8363 -1.5893
  126OSM      P13403   2.431   5.174   6.447  0.1313 -0.4811  0.3448
  126OSM    O1313404   2.295   5.238   6.433  0.3013  0.5469 -0.1173
  126OSM    O1413405   2.431   5.025   6.433 -0.1136  0.1035  0.3353
  126OSM    O1113406   2.500   5.218   6.578  0.2094  0.1261  0.0696
  126OSM    O1213407   2.530   5.238   6.334 -0.2889  0.5361 -0.0924
  126OSM    C1S13408   2.475   5.143   6.697  0.1510  0.8516 -0.2810
  126OSM    H1S13409   2.520   5.042   6.684  1.3617  1.5564 -1.8213
  126OSM    H1T13410   2.367   5.127   6.713  0.0535  0.3166 -1.3859
  126OSM     NF13411   2.482   5.130   6.934  0.0579  0.0151  0.3807
  126OSM    HNF13412   2.388   5.157   6.953 -0.2443  1.1613 -2.4855
  126OSM    C2S13413   2.530   5.210   6.826  0.6355 -0.8566 -0.2196
  126OSM    H2S13414   2.641   5.216   6.826  0.6260  0.0047  1.7115
  126OSM    C3S13415   2.478   5.362   6.827 -0.4945  1.1997 -0.2278
  126OSM    H3S13416   2.367   5.357   6.833 -0.4694 -0.8689 -1.0830
  126OSM     O313417   2.512   5.443   6.722 -0.4757 -0.1894 -0.1810
  126OSM    HO313418   2.531   5.380   6.652  0.1491  2.0523 -2.0662
  126OSM    C4S13419   2.529   5.430   6.954  0.3522  0.3808 -0.1090
  126OSM    H4S13420   2.631   5.402   6.984  1.0746  2.3401 -0.6857
  126OSM    C5S13421   2.453   5.502   7.041 -0.0976 -0.7470 -0.5188
  126OSM    H5S13422   2.350   5.523   7.009  0.6021  2.5540 -0.7390
  126OSM    C6S13423   2.504   5.574   7.166 -0.3919 -0.4370 -0.5074
  126OSM    H6S13424   2.475   5.681   7.162 -0.9333 -0.6003 -1.2112
  126OSM    H6T13425   2.615   5.574   7.166 -0.3301  3.5836  1.0640
  126OSM    C7S13426   2.439   5.503   7.287  0.2512 -0.6513 -0.2291
  126OSM    H7S13427   2.463   5.395   7.280 -2.4880 -1.1051 -3.1769
  126OSM    H7T13428   2.329   5.510   7.294  0.3407  0.1070  0.5557
  126OSM    C8S13429   2.500   5.555   7.417 -0.5229  0.3650  0.0260
  126OSM    H8S13430   2.484   5.665   7.415 -0.0361  0.4489  0.5655
  126OSM    H8T13431   2.610   5.541   7.406 -0.6917 -1.5159  0.6507
  126OSM    C9S13432   2.455   5.480   7.542 -0.2996 -0.0637  1.0193
  126OSM    H9S13433   2.501   5.379   7.540 -3.9365 -1.7558  0.0242
  126OSM    H9T13434   2.345   5.474   7.536 -0.3490  0.9905  0.8137
  126OSM   C10S13435   2.490   5.551   7.664  0.4299 -0.5609  0.0063
  126OSM   H10S13436   2.448   5.654   7.657  0.8885 -0.4077 -0.4669
  126OSM   H10T13437   2.598   5.574   7.668  0.1368  1.3716 -2.1037
  126OSM   C11S13438   2.452   5.484   7.795  0.1226 -0.7744 -0.1711
  126OSM   H11S13439   2.484   5.377   7.798  0.2067 -0.7170  1.9892
  126OSM   H11T13440   2.342   5.485   7.800  0.0779 -1.9213 -0.5735
  126OSM   C12S13441   2.503   5.557   7.911  0.3555 -0.6310 -0.4130
  126OSM   H12S13442   2.469   5.662   7.918  1.2256 -0.3652 -0.0817
  126OSM   H12T13443   2.614   5.566   7.910  0.2236  1.2584 -0.0897
  126OSM   C13S13444   2.444   5.502   8.045  0.2542  0.7013  0.6647
  126OSM   H13S13445   2.484   5.398   8.048 -3.1309 -0.6597  0.8143
  126OSM   H13T13446   2.335   5.483   8.045  0.5031 -0.8415  0.5089
  126OSM   C14S13447   2.498   5.579   8.157 -0.0575  0.2373  0.8252
  126OSM   H14S13448   2.467   5.682   8.129 -0.1561  0.2003  0.7993
  126OSM   H14T13449   2.608   5.586   8.140 -0.4862  2.8094 -1.1603
  126OSM   C15S13450   2.448   5.535   8.295  0.0266 -0.1538 -0.2536
  126OSM   H15S13451   2.503   5.439   8.309  1.8850  0.7063 -1.4263
  126OSM   H15T13452   2.339   5.523   8.284  0.1352  0.5671 -2.3857
  126OSM   C16S13453   2.493   5.626   8.402 -0.0112  0.4234 -0.2341
  126OSM   H16S13454   2.447   5.604   8.500  0.9130  1.2201  0.3930
  126OSM   H16T13455   2.457   5.730   8.385 -2.3556 -0.7165 -2.5848
  126OSM   C17S13456   2.636   5.618   8.437 -0.2354 -0.1380  0.6323
  126OSM   H17S13457   2.700   5.639   8.349  2.8944  1.7876  3.2756
  126OSM   H17T13458   2.659   5.515   8.473 -0.5544  0.0403  1.3581
  126OSM   C18S13459   2.679   5.708   8.548 -0.5346  0.1515  0.2097
  126OSM   H18S13460   2.784   5.745   8.543 -0.4611  0.0040  0.6895
  126OSM   H18T13461   2.690   5.647   8.640 -0.7116  0.2028  0.2634
  126OSM   H18U13462   2.610   5.795   8.548  0.6428  1.1247 -1.6877
  126OSM    C1F13463   2.544   5.015   6.966  0.1639  0.4290  0.1692
  126OSM     OF13464   2.669   5.009   6.957  0.0066 -0.2697 -0.2333
  126OSM    C2F13465   2.463   4.899   7.020 -0.8252  0.1932  0.4352
  126OSM    H2F13466   2.384   4.887   6.943 -0.1336  1.4887 -0.4921
  126OSM    H2G13467   2.431   4.925   7.124 -0.3974 -1.3535  0.9639
  126OSM    C3F13468   2.553   4.765   7.031  0.1525  0.7077 -0.6701
  126OSM    H3F13469   2.607   4.767   7.129  0.3208 -2.6467 -0.6688
  126OSM    H3G13470   2.632   4.771   6.953  0.0283  0.5808 -0.8043
  126OSM    C4F13471   2.476   4.632   7.022  0.0660 -0.1997  0.1681
  126OSM    H4F13472   2.552   4.551   7.031 -0.2552 -0.5705 -0.4151
  126OSM    H4G13473   2.429   4.635   6.921  2.8544  1.1083 -1.1643
  126OSM    C5F13474   2.360   4.616   7.123 -0.0305  0.2771 -0.4199
  126OSM    H5F13475   2.292   4.531   7.102  0.6202  0.0087 -1.4754
  126OSM    H5G13476   2.286   4.699   7.118 -0.4019 -0.0604 -0.5254
  126OSM    C6F13477   2.417   4.605   7.264  0.4827 -0.0658 -0.4543
  126OSM    H6F13478   2.439   4.705   7.307 -1.3171  0.7235 -1.3292
  126OSM    H6G13479   2.511   4.545   7.256  0.3028 -0.1933 -1.6653
  126OSM    C7F13480   2.321   4.537   7.369 -0.5017  0.2851 -1.0126
  126OSM    H7F13481   2.296   4.446   7.312 -0.8103  0.1585 -0.6749
  126OSM    H7G13482   2.228   4.596   7.387 -1.5411 -1.3235 -1.0831
  126OSM    C8F13483   2.384   4.483   7.507  0.2273  0.1519  0.5231
  126OSM    H8F13484   2.474   4.431   7.467 -0.4678  0.4246 -1.4470
  126OSM    H8G13485   2.301   4.419   7.545 -0.7783  2.1190  1.7157
  126OSM    C9F13486   2.436   4.579   7.611  0.5690 -0.0434  0.1124
  126OSM    H9F13487   2.511   4.652   7.574 -0.0952  0.0602 -1.0655
  126OSM   C10F13488   2.384   4.585   7.737  0.8325 -0.0747  0.8038
  126OSM   H10F13489   2.423   4.667   7.800  2.8131  0.9950 -1.7374
  126OSM   C11F13490   2.280   4.490   7.801 -0.5870 -0.1989  0.4464
  126OSM   H11F13491   2.278   4.397   7.739  3.7233 -0.5673  0.7092
  126OSM   H11G13492   2.174   4.521   7.797 -0.2772  0.9338  1.1118
  126OSM   C12F13493   2.306   4.444   7.945 -0.0122 -0.2385  0.4039
  126OSM   H12F13494   2.412   4.416   7.961 -0.7170 -3.3766 -0.0253
  126OSM   H12G13495   2.243   4.355   7.969 -1.5046  0.8565  0.5969
  126OSM   C13F13496   2.280   4.562   8.041 -0.8414  0.8141 -0.0903
  126OSM   H13F13497   2.193   4.625   8.012 -0.9165 -0.1197 -1.9626
  126OSM   H13G13498   2.371   4.626   8.046  0.5211 -0.9952 -1.3285
  126OSM   C14F13499   2.245   4.501   8.178 -0.6344 -0.2864  0.3143
  126OSM   H14F13500   2.326   4.434   8.212  0.9185  1.4624  0.1467
  126OSM   H14G13501   2.153   4.440   8.159 -0.2796 -1.3414  1.8602
  126OSM   C15F13502   2.227   4.598   8.293  0.0787  0.4774 -0.3671
  126OSM   H15F13503   2.158   4.684   8.281 -0.0891  0.2286 -1.1576
  126OSM   H15G13504   2.329   4.633   8.321  1.4054 -3.1087 -0.4478
  126OSM   C16F13505   2.166   4.526   8.413 -0.0885 -0.6960  0.1526
  126OSM   H16F13506   2.204   4.422   8.425  1.7309  0.2526  3.3298
  126OSM   H16G13507   2.056   4.523   8.398  0.0591 -1.0307 -0.8959
  126OSM   C17F13508   2.180   4.604   8.541 -0.1816 -0.1311  0.0916
  126OSM   H17F13509   2.096   4.576   8.609  0.5562  2.9854  2.3953
  126OSM   H17G13510   2.180   4.712   8.514  1.4101 -0.5874 -1.8356
  126OSM   C18F13511   2.301   4.581   8.623  0.0811 -0.2684 -0.3733
  126OSM   H18F13512   2.287   4.481   8.670  0.7463 -0.8420 -1.3640
  126OSM   H18G13513   2.320   4.648   8.709 -2.2649  0.0310 -0.0744
  126OSM   H18H13514   2.396   4.576   8.565  0.3887 -1.3836  0.2037
  127OSM      N13515   0.900   5.248   6.706 -0.0809  0.2199 -0.4006
  127OSM    C1513516   1.012   5.159   6.725 -0.1094 -0.5798 -0.3311
  127OSM   H15A13517   1.063   5.125   6.637 -0.3916 -1.6427 -0.0889
  127OSM   H15B13518   0.990   5.084   6.800 -1.1159 -1.1976 -1.2216
  127OSM   H15C13519   1.085   5.218   6.778  1.3797 -1.7804 -1.0160
  127OSM    C1413520   0.800   5.199   6.610  0.0887 -0.0725  0.0222
  127OSM   H14A13521   0.736   5.283   6.587  1.3180  1.3107  1.5468
  127OSM   H14B13522   0.757   5.103   6.635 -0.5276  0.3815  0.6970
  127OSM   H14C13523   0.855   5.180   6.519  1.8487  0.4184  0.9630
  127OSM    C1313524   0.821   5.254   6.837 -0.4746  0.9572 -0.5004
  127OSM   H13A13525   0.876   5.304   6.914  2.8182  2.4355 -3.6518
  127OSM   H13B13526   0.803   5.155   6.877 -0.3231  1.1814  0.1138
  127OSM   H13C13527   0.729   5.305   6.812 -1.6354 -0.7136  0.3045
  127OSM    C1213528   0.934   5.393   6.676 -0.1593  0.2479 -0.1882
  127OSM   H12A13529   0.981   5.397   6.579 -1.3034 -1.7963 -0.8440
  127OSM   H12B13530   1.010   5.423   6.747  0.4090 -0.0138 -0.6799
  127OSM    C1113531   0.824   5.493   6.682  0.0215  0.7039 -0.1155
  127OSM   H11A13532   0.868   5.595   6.682 -0.4807  0.9457  2.5076
  127OSM   H11B13533   0.760   5.491   6.773  1.1314 -0.5931  0.6467
  127OSM      P13534   0.707   5.598   6.470 -0.2005  0.0904 -0.1804
  127OSM    O1313535   0.822   5.637   6.390  0.2260  0.2931 -0.1991
  127OSM    O1413536   0.592   5.564   6.392  0.2772  0.2138 -0.8812
  127OSM    O1113537   0.675   5.718   6.570  0.4493  0.2753  0.8303
  127OSM    O1213538   0.736   5.476   6.575 -0.9198  0.4889 -0.0973
  127OSM    C1S13539   0.575   5.707   6.671 -0.5255 -0.9335  0.9788
  127OSM    H1S13540   0.546   5.601   6.684 -1.4876 -0.7566  0.3083
  127OSM    H1T13541   0.480   5.752   6.634  0.3920 -0.5769 -1.0221
  127OSM     NF13542   0.507   5.741   6.906 -0.0710  0.2014  0.3643
  127OSM    HNF13543   0.434   5.808   6.913 -0.6718 -0.6585  2.7846
  127OSM    C2S13544   0.610   5.772   6.811 -0.2256 -0.6259  0.2828
  127OSM    H2S13545   0.700   5.715   6.842  0.4668 -0.2971 -1.0624
  127OSM    C3S13546   0.626   5.919   6.803  0.5769 -0.0832  0.7252
  127OSM    H3S13547   0.526   5.963   6.781  0.3820  0.0686  1.8700
  127OSM     O313548   0.720   5.952   6.702  0.4644  0.0796 -0.6076
  127OSM    HO313549   0.725   5.874   6.646  1.7333 -1.0535  1.0213
  127OSM    C4S13550   0.693   5.971   6.933 -0.5634  0.1742  0.6500
  127OSM    H4S13551   0.802   5.956   6.941 -0.1217  2.6754 -0.1111
  127OSM    C5S13552   0.633   6.046   7.030  0.1222 -0.9692  0.6630
  127OSM    H5S13553   0.533   6.088   7.013 -1.3918 -2.6496  4.8877
  127OSM    C6S13554   0.699   6.094   7.151 -0.7255  0.1984  0.2451
  127OSM    H6S13555   0.709   6.205   7.146  1.7528 -0.0540 -1.0644
  127OSM    H6T13556   0.800   6.047   7.146 -0.4973  0.8194 -1.2345
  127OSM    C7S13557   0.619   6.046   7.270  0.1439  0.1526 -0.3699
  127OSM    H7S13558   0.592   5.939   7.255  1.8573 -0.2908 -0.4484
  127OSM    H7T13559   0.522   6.099   7.279 -0.9182 -1.3103 -2.7319
  127OSM    C8S13560   0.706   6.043   7.399 -0.3476 -0.0658 -0.3060
  127OSM    H8S13561   0.743   6.145   7.425 -1.4582  0.1783  0.3645
  127OSM    H8T13562   0.794   5.975   7.400 -0.3683 -0.0948  0.6886
  127OSM    C9S13563   0.613   6.003   7.518  0.5175  0.0521  0.2057
  127OSM    H9S13564   0.567   5.904   7.496 -1.7809  1.1069  0.0776
  127OSM    H9T13565   0.538   6.085   7.529 -0.3498 -0.3626 -2.1516
  127OSM   C10S13566   0.689   6.001   7.653  0.1075  0.6124  0.6171
  127OSM   H10S13567   0.700   6.101   7.702 -0.7629  0.6324  0.7833
  127OSM   H10T13568   0.798   5.981   7.644  0.0390 -0.6044  2.2462
  127OSM   C11S13569   0.629   5.908   7.758  0.5365 -0.4343 -0.3563
  127OSM   H11S13570   0.614   5.806   7.717  1.2005 -1.4785  1.9114
  127OSM   H11T13571   0.526   5.949   7.762  1.0897  1.0396 -1.0412
  127OSM   C12S13572   0.700   5.905   7.889  0.0714  0.3737 -0.1410
  127OSM   H12S13573   0.652   5.824   7.947 -0.0502 -2.4864 -4.0193
  127OSM   H12T13574   0.688   6.007   7.932  0.1159  1.0983 -1.8071
  127OSM   C13S13575   0.840   5.868   7.882  0.4459  0.3251  0.7193
  127OSM   H13S13576   0.901   5.939   7.822 -0.2340 -0.1691 -0.5950
  127OSM   H13T13577   0.845   5.763   7.845 -0.8469  0.3497  0.4189
  127OSM   C14S13578   0.915   5.862   8.017  0.8787  0.3294  0.1300
  127OSM   H14S13579   0.874   5.950   8.071 -0.0051  1.8924 -2.9739
  127OSM   H14T13580   1.024   5.869   7.998  0.9430  1.0978  0.7473
  127OSM   C15S13581   0.881   5.739   8.106  0.0262 -0.7819  0.8986
  127OSM   H15S13582   0.901   5.642   8.055 -0.9351 -0.5909  0.1373
  127OSM   H15T13583   0.773   5.735   8.128 -0.9879  2.2587 -2.8993
  127OSM   C16S13584   0.961   5.742   8.238  0.0940  0.6260 -0.4118
  127OSM   H16S13585   0.945   5.832   8.301 -2.9988 -0.2213  0.1111
  127OSM   H16T13586   1.068   5.735   8.209  0.7782  1.3161  1.8468
  127OSM   C17S13587   0.937   5.607   8.305  0.3517  0.0612  0.3797
  127OSM   H17S13588   0.974   5.529   8.235  1.1379  0.1324  0.7008
  127OSM   H17T13589   0.828   5.593   8.322  0.4105 -0.3970  0.3713
  127OSM   C18S13590   0.999   5.587   8.447 -0.4564  0.1110 -0.2205
  127OSM   H18S13591   1.107   5.563   8.440 -0.5583 -0.8146  1.0732
  127OSM   H18T13592   0.976   5.485   8.485  1.9456 -0.7335 -0.9170
  127OSM   H18U13593   0.973   5.673   8.513 -1.2941  0.6655 -1.2680
  127OSM    C1F13594   0.495   5.619   6.956  0.4720  0.3999 -0.0467
  127OSM     OF13595   0.582   5.536   6.949  0.4257  0.1862  0.4491
  127OSM    C2F13596   0.362   5.590   7.013  0.3328  0.5620 -0.1751
  127OSM    H2F13597   0.316   5.521   6.938 -0.4871 -1.0547  1.7644
  127OSM    H2G13598   0.290   5.674   7.012 -1.0219 -0.5650 -2.7162
  127OSM    C3F13599   0.374   5.517   7.150  0.5742 -0.2445  0.0646
  127OSM    H3F13600   0.422   5.590   7.219  0.8127 -0.0594 -0.2967
  127OSM    H3G13601   0.437   5.426   7.143  1.0718  0.2238 -1.9083
  127OSM    C4F13602   0.229   5.474   7.202  0.3199 -0.6929 -0.1680
  127OSM    H4F13603   0.188   5.414   7.118 -0.6381 -0.4592  0.1273
  127OSM    H4G13604   0.175   5.571   7.205  2.6707  0.6821 -1.1643
  127OSM    C5F13605   0.228   5.391   7.340  0.2827 -0.1184 -0.1235
  127OSM    H5F13606   0.120   5.378   7.364  0.4941  0.4117  1.1380
  127OSM    H5G13607   0.265   5.466   7.412 -1.2624 -1.9753  2.7000
  127OSM    C6F13608   0.316   5.268   7.336  0.3050  0.6485 -0.8084
  127OSM    H6F13609   0.422   5.290   7.361 -0.1754  2.0267  0.0628
  127OSM    H6G13610   0.297   5.203   7.248 -0.3086 -1.9017  1.1740
  127OSM    C7F13611   0.270   5.177   7.449  1.2144 -0.5018 -0.1441
  127OSM    H7F13612   0.160   5.173   7.432  1.1661  0.6222 -0.1216
  127OSM    H7G13613   0.288   5.236   7.541  1.1045  1.5090 -1.3722
  127OSM    C8F13614   0.345   5.044   7.451  0.8996 -0.0531 -0.5820
  127OSM    H8F13615   0.454   5.060   7.456  0.5993  1.8141  0.3724
  127OSM    H8G13616   0.326   4.997   7.352 -1.9812  3.5507 -1.8476
  127OSM    C9F13617   0.284   4.958   7.562  0.5951  0.0316 -0.6783
  127OSM    H9F13618   0.174   4.964   7.563  0.6446  1.8559  1.9623
  127OSM   C10F13619   0.345   4.909   7.667 -0.0865 -0.3047 -1.2380
  127OSM   H10F13620   0.281   4.842   7.728  1.1861  0.6755  1.2567
  127OSM   C11F13621   0.492   4.912   7.702 -0.7415 -0.8330  0.1409
  127OSM   H11F13622   0.537   5.012   7.719  3.2863 -2.4694 -0.1103
  127OSM   H11G13623   0.542   4.858   7.618  0.5574 -0.3928  0.6230
  127OSM   C12F13624   0.521   4.828   7.828 -0.9769  0.0380 -0.1641
  127OSM   H12F13625   0.630   4.846   7.841 -1.2989  1.1372  1.2399
  127OSM   H12G13626   0.503   4.721   7.808 -1.1039  0.6717 -3.6865
  127OSM   C13F13627   0.452   4.870   7.958  0.0108  0.3487 -0.0174
  127OSM   H13F13628   0.343   4.865   7.935 -0.1715  2.0953  0.3230
  127OSM   H13G13629   0.466   4.976   7.988  0.6523 -0.0690  1.1889
  127OSM   C14F13630   0.486   4.780   8.077  0.2260 -0.4631 -0.1937
  127OSM   H14F13631   0.596   4.788   8.091  0.3296 -1.2306 -0.5456
  127OSM   H14G13632   0.462   4.676   8.049  1.0123 -0.9371  0.8660
  127OSM   C15F13633   0.409   4.813   8.208  0.2813 -0.0665 -0.0388
  127OSM   H15F13634   0.302   4.788   8.186  0.0342 -0.0747  1.1073
  127OSM   H15G13635   0.409   4.924   8.210 -2.3062  0.0103 -1.9223
  127OSM   C16F13636   0.466   4.750   8.339  0.2939  0.6972 -0.0032
  127OSM   H16F13637   0.524   4.660   8.309 -0.9033  0.1823 -0.7947
  127OSM   H16G13638   0.387   4.715   8.409  0.0013 -0.9005 -1.1074
  127OSM   C17F13639   0.567   4.836   8.416 -0.0970  0.4283  0.0163
  127OSM   H17F13640   0.531   4.940   8.432 -0.9724 -0.2742  2.8086
  127OSM   H17G13641   0.653   4.852   8.347  0.5967 -1.3781  0.4303
  127OSM   C18F13642   0.631   4.780   8.538 -0.0271  0.6265 -0.3313
  127OSM   H18F13643   0.707   4.844   8.588 -1.1033 -0.0713  2.2828
  127OSM   H18G13644   0.672   4.683   8.502 -0.7477  0.7907 -1.5884
  127OSM   H18H13645   0.550   4.748   8.607  1.1819  0.5110  1.0824
  128OSM      N13646   6.795   3.090   6.342  0.0713 -0.1851 -0.3433
  128OSM    C1513647   6.744   3.154   6.469 -0.4015 -0.6239 -0.8319
  128OSM   H15A13648   6.714   3.257   6.459 -1.4388 -0.7427  0.8709
  128OSM   H15B13649   6.805   3.151   6.558 -3.1787  2.0988  1.2314
  128OSM   H15C13650   6.652   3.103   6.494 -0.5376  0.1510  0.2772
  128OSM    C1413651   6.823   2.950   6.366  0.4085  0.0095  0.0240
  128OSM   H14A13652   6.735   2.892   6.393  1.0728 -0.2461  1.6723
  128OSM   H14B13653   6.894   2.944   6.447 -1.1781  1.4627  1.5530
  128OSM   H14C13654   6.868   2.902   6.280  0.8862  1.6707 -0.6702
  128OSM    C1313655   6.682   3.100   6.246 -0.9276 -0.0900  0.2236
  128OSM   H13A13656   6.707   3.035   6.164  0.3459  1.8839 -0.9858
  128OSM   H13B13657   6.660   3.197   6.205  2.9566  0.7097 -0.1172
  128OSM   H13C13658   6.591   3.050   6.276  0.2248 -3.3965 -1.4735
  128OSM    C1213659   6.923   3.163   6.295  0.0212 -0.1043 -0.0221
  128OSM   H12A13660   6.995   3.151   6.375 -0.8584  1.9387  1.1233
  128OSM   H12B13661   6.888   3.264   6.282 -1.1723 -0.6405 -1.1609
  128OSM    C1113662   6.974   3.112   6.153 -0.6274 -0.3658  0.6308
  128OSM   H11A13663   7.017   3.199   6.100 -0.5456 -0.1223  1.0950
  128OSM   H11B13664   6.887   3.087   6.089 -0.4720 -2.1588  1.0939
  128OSM      P13665   7.207   3.006   6.206 -0.0252  0.3828 -0.2192
  128OSM    O1313666   7.282   2.881   6.177  0.7323 -0.2464 -0.5007
  128OSM    O1413667   7.262   3.123   6.138  0.9738  0.1374 -0.6634
  128OSM    O1113668   7.215   3.038   6.361  0.2022 -0.5292  0.1675
  128OSM    O1213669   7.056   2.995   6.162 -0.0250 -0.1007  0.0942
  128OSM    C1S13670   7.183   2.932   6.452 -0.6332 -0.8325  0.3073
  128OSM    H1S13671   7.227   2.833   6.431  1.2084  0.3009 -1.2804
  128OSM    H1T13672   7.074   2.911   6.443  0.0491 -3.1624 -3.3390
  128OSM     NF13673   7.232   2.858   6.684 -0.0506 -0.4713  0.4658
  128OSM    HNF13674   7.156   2.843   6.746  0.1444  0.2721  0.8925
  128OSM    C2S13675   7.213   2.973   6.599  0.0812  0.7242 -0.1384
  128OSM    H2S13676   7.306   3.033   6.592  0.2191  0.3608 -1.6469
  128OSM    C3S13677   7.102   3.074   6.648  0.3337 -0.2400 -0.2923
  128OSM    H3S13678   7.006   3.024   6.623  0.0730  0.8200 -1.4240
  128OSM     O313679   7.100   3.199   6.578  0.2825 -0.1614 -0.7030
  128OSM    HO313680   7.156   3.189   6.501 -0.8375 -3.1319 -1.1980
  128OSM    C4S13681   7.106   3.085   6.800 -0.0925 -0.6269  0.2070
  128OSM    H4S13682   7.028   3.031   6.855 -1.2471  1.2250  0.4415
  128OSM    C5S13683   7.193   3.154   6.871  0.1827  0.3400 -0.3888
  128OSM    H5S13684   7.266   3.218   6.820  0.9438 -0.6001 -0.4961
  128OSM    C6S13685   7.195   3.141   7.018 -0.9238 -0.1025 -0.5079
  128OSM    H6S13686   7.117   3.207   7.061  1.1056  2.1502 -0.2357
  128OSM    H6T13687   7.294   3.179   7.051 -1.4269  1.0616 -0.3100
  128OSM    C7S13688   7.173   3.006   7.084 -0.4387 -0.1745  0.4759
  128OSM    H7S13689   7.244   2.932   7.040 -0.9755 -1.0024  0.9923
  128OSM    H7T13690   7.067   2.982   7.062  0.0585 -1.6246 -0.3921
  128OSM    C8S13691   7.201   3.019   7.236  0.5729 -0.2875  0.0886
  128OSM    H8S13692   7.137   3.108   7.258  1.5116  0.1271  1.1938
  128OSM    H8T13693   7.311   3.031   7.250  0.9858 -1.2374 -2.1318
  128OSM    C9S13694   7.157   2.887   7.312 -0.3558 -0.6627 -0.1241
  128OSM    H9S13695   7.210   2.802   7.265  0.7585  0.0364 -0.1330
  128OSM    H9T13696   7.049   2.869   7.291 -0.2048  0.0367 -1.5650
  128OSM   C10S13697   7.191   2.913   7.464 -0.2447  0.2089 -0.0809
  128OSM   H10S13698   7.134   2.998   7.506 -0.0118  0.9719 -1.2779
  128OSM   H10T13699   7.298   2.941   7.469 -0.5308  0.9639  2.0413
  128OSM   C11S13700   7.176   2.799   7.567 -0.4837  0.8232  1.0028
  128OSM   H11S13701   7.234   2.709   7.539 -0.1205  1.3673 -0.0179
  128OSM   H11T13702   7.069   2.767   7.565  0.4378 -2.3900 -1.9181
  128OSM   C12S13703   7.213   2.837   7.703 -0.1111 -0.6444  0.3902
  128OSM   H12S13704   7.162   2.934   7.723 -0.7916 -0.6525 -1.2319
  128OSM   H12T13705   7.323   2.853   7.702 -0.0682 -0.9433  0.1360
  128OSM   C13S13706   7.173   2.735   7.812 -0.6653 -0.6297  0.0356
  128OSM   H13S13707   7.243   2.650   7.803 -0.7607 -0.6463 -0.6078
  128OSM   H13T13708   7.073   2.694   7.786  0.0566 -0.3774 -3.3596
  128OSM   C14S13709   7.175   2.775   7.959  0.2026  0.9959  0.2457
  128OSM   H14S13710   7.104   2.857   7.981 -2.0166 -0.8470  0.1988
  128OSM   H14T13711   7.281   2.803   7.977  0.7443 -0.5903 -0.3731
  128OSM   C15S13712   7.133   2.656   8.060  0.8779  0.4595  0.0887
  128OSM   H15S13713   7.210   2.576   8.054  0.7080  0.1671  1.7673
  128OSM   H15T13714   7.040   2.612   8.018  0.5637  1.2166 -0.0124
  128OSM   C16S13715   7.108   2.699   8.201  0.3491 -0.6888 -0.9051
  128OSM   H16S13716   7.049   2.792   8.213  1.8593  0.0060  1.3082
  128OSM   H16T13717   7.208   2.719   8.244 -0.7288  2.7559  0.1390
  128OSM   C17S13718   7.038   2.597   8.288  1.0208  1.0583 -1.0225
  128OSM   H17S13719   6.938   2.570   8.248  0.1893  0.2545  1.4796
  128OSM   H17T13720   6.999   2.643   8.382  0.1936  1.5421 -1.5910
  128OSM   C18S13721   7.118   2.465   8.316  0.0535 -0.6172  0.4321
  128OSM   H18S13722   7.126   2.402   8.225 -1.1599 -2.5307  1.6121
  128OSM   H18T13723   7.069   2.392   8.384 -0.3821 -1.6976 -1.0152
  128OSM   H18U13724   7.224   2.489   8.337 -0.1261 -0.6388  1.3955
  128OSM    C1F13725   7.340   2.774   6.677  0.3037  0.9154 -0.1054
  128OSM     OF13726   7.435   2.792   6.600  0.2165 -0.7158  0.3738
  128OSM    C2F13727   7.343   2.665   6.781  0.4978 -0.3137  0.2795
  128OSM    H2F13728   7.244   2.628   6.813  0.1832  1.2628  1.1461
  128OSM    H2G13729   7.375   2.720   6.872 -0.7446  0.9056 -0.0045
  128OSM    C3F13730   7.446   2.551   6.759 -0.1853  0.3185 -0.2651
  128OSM    H3F13731   7.545   2.595   6.737  0.1727  0.3077  1.2528
  128OSM    H3G13732   7.414   2.492   6.670 -0.4792 -0.1565  0.1549
  128OSM    C4F13733   7.480   2.468   6.885 -0.1096 -0.0987 -0.5108
  128OSM    H4F13734   7.397   2.401   6.914 -0.1849  0.8321  1.4615
  128OSM    H4G13735   7.500   2.542   6.965 -0.3584 -1.5373  0.9110
  128OSM    C5F13736   7.610   2.393   6.870  0.1057 -0.2180  0.4586
  128OSM    H5F13737   7.695   2.464   6.857  0.1106 -0.4477 -0.7839
  128OSM    H5G13738   7.598   2.326   6.783  2.4380 -0.5502  0.3549
  128OSM    C6F13739   7.650   2.322   6.999 -0.5523 -0.4563 -0.0864
  128OSM    H6F13740   7.571   2.251   7.033 -1.0580 -0.7252 -1.7830
  128OSM    H6G13741   7.651   2.388   7.089  4.5157  0.0069 -0.3351
  128OSM    C7F13742   7.790   2.262   6.979  0.0002 -0.4487  0.4105
  128OSM    H7F13743   7.852   2.347   6.943  1.3158 -0.2737  2.9874
  128OSM    H7G13744   7.786   2.190   6.895 -1.9823  0.2830 -0.1548
  128OSM    C8F13745   7.847   2.197   7.108 -0.0229 -0.3593 -0.6154
  128OSM    H8F13746   7.947   2.159   7.080  1.3739  4.1678 -2.3995
  128OSM    H8G13747   7.775   2.119   7.139  0.5270 -0.8232 -0.5088
  128OSM    C9F13748   7.866   2.301   7.217  0.4963  0.1557 -0.3382
  128OSM    H9F13749   7.900   2.399   7.181 -0.6652  0.8659  0.4877
  128OSM   C10F13750   7.864   2.280   7.351 -0.0534  0.4320 -0.5576
  128OSM   H10F13751   7.872   2.355   7.431  0.7129 -2.9614  2.6908
  128OSM   C11F13752   7.820   2.152   7.424  0.0790 -0.5239  0.1231
  128OSM   H11F13753   7.819   2.060   7.361  1.4966 -0.5385  0.1144
  128OSM   H11G13754   7.716   2.173   7.455 -0.0197  1.1296 -1.2659
  128OSM   C12F13755   7.915   2.127   7.551 -0.1089  0.4253 -0.1637
  128OSM   H12F13756   7.902   2.206   7.628  1.2065  0.8203 -0.3328
  128OSM   H12G13757   8.021   2.118   7.520  0.4423 -1.8276  2.2261
  128OSM   C13F13758   7.883   1.985   7.612 -0.4019 -0.2512 -0.1476
  128OSM   H13F13759   7.903   1.920   7.524  2.7498  0.9967 -0.4334
  128OSM   H13G13760   7.774   1.992   7.627 -0.4158  1.9807 -0.9967
  128OSM   C14F13761   7.954   1.946   7.740  0.1592  1.1966  0.6383
  128OSM   H14F13762   8.062   1.972   7.738  0.4339  0.0811  0.0632
  128OSM   H14G13763   7.948   1.835   7.741  1.1425  1.1020 -0.8724
  128OSM   C15F13764   7.882   2.001   7.864 -0.7712  0.0714 -0.2455
  128OSM   H15F13765   7.777   1.974   7.841 -0.7356 -0.7702  0.5969
  128OSM   H15G13766   7.875   2.112   7.860 -1.3988  0.0712  0.8718
  128OSM   C16F13767   7.938   1.947   7.997  0.5012  0.2500 -0.2243
  128OSM   H16F13768   7.852   1.968   8.064 -0.5541 -0.5460 -1.3038
  128OSM   H16G13769   8.027   2.009   8.022  0.1059  0.4785  0.6386
  128OSM   C17F13770   7.983   1.798   7.998 -0.4317  0.1029  0.1474
  128OSM   H17F13771   8.082   1.797   7.948 -0.4266  0.1016  0.1573
  128OSM   H17G13772   7.905   1.740   7.943 -1.1146  0.1736  1.0194
  128OSM   C18F13773   8.007   1.732   8.132 -0.1984 -0.0100  0.1319
  128OSM   H18F13774   7.918   1.700   8.191  0.5270 -1.5416  0.4362
  128OSM   H18G13775   8.043   1.810   8.203 -1.2050 -0.4906  1.1782
  128OSM   H18H13776   8.072   1.641   8.125 -0.0361  0.1082  0.0858
  129OSM      N13777   5.485   4.568   5.990  0.2485 -0.1866  1.0435
  129OSM    C1513778   5.545   4.668   6.091  0.4161 -0.6521 -0.1386
  129OSM   H15A13779   5.496   4.764   6.084  1.8858  0.0820 -0.6094
  129OSM   H15B13780   5.651   4.670   6.072  0.6128  0.6547  1.0470
  129OSM   H15C13781   5.520   4.638   6.191 -1.1817  0.3065 -0.2276
  129OSM    C1413782   5.327   4.563   6.008  0.2139 -0.2717  0.2148
  129OSM   H14A13783   5.302   4.667   6.020 -0.0921 -0.1880 -1.1402
  129OSM   H14B13784   5.318   4.504   6.098  2.7195 -1.1566 -0.0726
  129OSM   H14C13785   5.267   4.516   5.931 -1.0570 -0.4242  1.2715
  129OSM    C1313786   5.506   4.604   5.851  0.0146  0.5439  0.4936
  129OSM   H13A13787   5.610   4.630   5.832  0.6154 -2.2292 -0.2442
  129OSM   H13B13788   5.454   4.695   5.823  1.5750  1.4185  0.3411
  129OSM   H13C13789   5.476   4.526   5.783  1.6317  0.5660 -0.2715
  129OSM    C1213790   5.544   4.429   6.008  0.2318 -0.4235 -0.0419
  129OSM   H12A13791   5.481   4.368   5.944 -0.3800 -0.8525  0.9622
  129OSM   H12B13792   5.535   4.391   6.108 -1.3486 -0.4071 -0.1525
  129OSM    C1113793   5.693   4.413   5.960  0.4583 -0.7744 -0.2490
  129OSM   H11A13794   5.706   4.430   5.850  1.1569  0.9473  0.0800
  129OSM   H11B13795   5.718   4.306   5.975  1.6359 -0.7484 -1.8918
  129OSM      P13796   5.815   4.464   6.179 -0.3606 -0.5159  0.1443
  129OSM    O1313797   5.934   4.381   6.177 -0.1149  0.2176 -0.1522
  129OSM    O1413798   5.821   4.583   6.262 -0.1362  0.3954  0.1410
  129OSM    O1113799   5.698   4.364   6.222  0.4456 -0.3328 -0.0153
  129OSM    O1213800   5.778   4.506   6.033  0.1724 -0.7309 -0.1630
  129OSM    C1S13801   5.728   4.250   6.306 -0.6501 -0.9306  0.8924
  129OSM    H1S13802   5.829   4.205   6.296  1.1035  3.0376 -0.2640
  129OSM    H1T13803   5.659   4.167   6.281 -1.8938  0.3890 -0.2145
  129OSM     NF13804   5.755   4.170   6.534 -0.4605  0.1504 -0.1800
  129OSM    HNF13805   5.695   4.117   6.594 -1.6245  1.5134 -0.1290
  129OSM    C2S13806   5.708   4.289   6.454  0.8700 -0.1803 -0.0443
  129OSM    H2S13807   5.773   4.377   6.472  0.3062  0.6947 -2.2401
  129OSM    C3S13808   5.560   4.322   6.468  0.8824  0.1466 -1.1408
  129OSM    H3S13809   5.503   4.228   6.449 -1.1142  1.1979 -0.4849
  129OSM     O313810   5.515   4.428   6.380 -0.0655  0.6556 -0.0931
  129OSM    HO313811   5.583   4.426   6.312 -1.2547 -1.2059 -1.2668
  129OSM    C4S13812   5.536   4.355   6.613 -1.1217  0.0153  0.0893
  129OSM    H4S13813   5.514   4.261   6.665 -1.4766  0.5550  0.9222
  129OSM    C5S13814   5.542   4.476   6.675  0.6190 -0.9281  0.1948
  129OSM    H5S13815   5.577   4.563   6.618 -0.8806 -0.5575 -0.1772
  129OSM    C6S13816   5.531   4.487   6.822  0.0197 -0.1876 -0.4788
  129OSM    H6S13817   5.431   4.535   6.834 -0.1467 -0.2009 -1.7813
  129OSM    H6T13818   5.614   4.551   6.860 -0.7740  0.8734 -0.4902
  129OSM    C7S13819   5.532   4.358   6.910  0.1446  0.7887 -0.0984
  129OSM    H7S13820   5.627   4.303   6.896  0.6456  1.4483  0.6662
  129OSM    H7T13821   5.446   4.292   6.887 -0.9338  2.2683 -0.4211
  129OSM    C8S13822   5.525   4.397   7.061  0.6345  0.3749 -0.3969
  129OSM    H8S13823   5.426   4.437   7.090  0.8068  0.0681  0.6619
  129OSM    H8T13824   5.609   4.465   7.089  0.7795  0.4417 -0.9835
  129OSM    C9S13825   5.546   4.273   7.147 -0.7910 -0.1634 -0.7495
  129OSM    H9S13826   5.654   4.247   7.141 -1.4511 -3.0709 -0.5276
  129OSM    H9T13827   5.491   4.186   7.105 -1.0385 -0.6610  0.5772
  129OSM   C10S13828   5.506   4.304   7.292  0.9412 -0.0058 -0.4474
  129OSM   H10S13829   5.397   4.323   7.300  1.0496  0.1373  0.8381
  129OSM   H10T13830   5.548   4.400   7.332 -1.7681  0.2776  1.9249
  129OSM   C11S13831   5.558   4.202   7.393 -0.1753  0.3190 -0.2628
  129OSM   H11S13832   5.658   4.169   7.359 -0.1201 -0.3112  0.4911
  129OSM   H11T13833   5.489   4.114   7.385 -0.0376  0.2016 -0.1645
  129OSM   C12S13834   5.588   4.244   7.539  0.7071 -0.2431 -0.3415
  129OSM   H12S13835   5.675   4.312   7.530  1.3819 -1.3095 -2.2214
  129OSM   H12T13836   5.630   4.159   7.597  1.4404  1.2074  1.3055
  129OSM   C13S13837   5.459   4.311   7.595  0.1043  0.1289  0.6541
  129OSM   H13S13838   5.372   4.242   7.598  0.4157 -0.6434 -4.2688
  129OSM   H13T13839   5.424   4.401   7.542 -4.4956 -1.3992  0.8700
  129OSM   C14S13840   5.478   4.368   7.738  0.1852  0.1645 -0.0481
  129OSM   H14S13841   5.394   4.437   7.765  0.8131  1.0838 -0.3985
  129OSM   H14T13842   5.576   4.419   7.724  1.1987 -1.3938  1.2562
  129OSM   C15S13843   5.477   4.274   7.861  0.6771 -0.0972  0.7833
  129OSM   H15S13844   5.524   4.332   7.943  0.3053  2.1072 -0.4993
  129OSM   H15T13845   5.532   4.180   7.842 -0.6228 -0.6554 -0.3579
  129OSM   C16S13846   5.331   4.223   7.892  0.9877  0.1387 -0.0558
  129OSM   H16S13847   5.292   4.137   7.834 -0.7313 -0.5513  2.0917
  129OSM   H16T13848   5.257   4.304   7.874  1.3192  0.1937 -1.2354
  129OSM   C17S13849   5.315   4.191   8.043 -0.1942 -0.3487 -0.6328
  129OSM   H17S13850   5.414   4.174   8.089  0.0694 -1.1198 -1.4668
  129OSM   H17T13851   5.249   4.102   8.052 -1.4820  0.8737  2.8633
  129OSM   C18S13852   5.260   4.315   8.123 -0.3654 -0.7313 -0.1100
  129OSM   H18S13853   5.157   4.340   8.090 -0.1995  0.4285  0.2187
  129OSM   H18T13854   5.329   4.398   8.097 -0.6978 -0.8849 -1.5191
  129OSM   H18U13855   5.256   4.286   8.230 -0.5089 -0.4590 -0.0400
  129OSM    C1F13856   5.891   4.163   6.563 -0.4089 -0.2646 -0.3593
  129OSM     OF13857   5.962   4.246   6.518 -0.1883  0.2525  0.4247
  129OSM    C2F13858   5.936   4.069   6.670 -0.3477  0.6575  0.6395
  129OSM    H2F13859   6.046   4.085   6.678 -0.3030  1.8610 -1.6885
  129OSM    H2G13860   5.902   3.966   6.645  1.2041  0.5447 -1.1023
  129OSM    C3F13861   5.866   4.095   6.807 -0.3391  0.2040  0.9134
  129OSM    H3F13862   5.758   4.111   6.783  0.0490  1.3401 -0.1440
  129OSM    H3G13863   5.887   4.188   6.863 -1.2976  0.0001  1.6175
  129OSM    C4F13864   5.884   3.971   6.897  0.1379  0.5308 -0.4859
  129OSM    H4F13865   5.992   3.950   6.906  0.0323  0.7954  1.5949
  129OSM    H4G13866   5.838   3.881   6.849  1.7003 -0.0257 -0.9771
  129OSM    C5F13867   5.818   4.000   7.033 -0.3522  0.1973 -0.1694
  129OSM    H5F13868   5.707   4.008   7.026 -0.7129 -1.5534  2.6025
  129OSM    H5G13869   5.860   4.094   7.075 -1.5114  0.4224  0.5148
  129OSM    C6F13870   5.844   3.887   7.134  0.4416  0.1568  0.1038
  129OSM    H6F13871   5.951   3.866   7.158 -0.3455 -2.0025  1.8573
  129OSM    H6G13872   5.807   3.795   7.083  0.6718 -0.2212  0.6189
  129OSM    C7F13873   5.767   3.906   7.270 -0.0134 -0.1476  0.7751
  129OSM    H7F13874   5.671   3.949   7.234  1.0261  3.1023  1.7504
  129OSM    H7G13875   5.825   3.982   7.326 -2.0662  2.5475 -0.5836
  129OSM    C8F13876   5.733   3.776   7.351 -0.5449  0.0396 -0.2665
  129OSM    H8F13877   5.830   3.724   7.366 -0.7782 -1.2137 -2.8285
  129OSM    H8G13878   5.664   3.723   7.282 -0.4897 -0.2850 -0.0767
  129OSM    C9F13879   5.663   3.819   7.474 -0.6468 -0.0849 -0.2353
  129OSM    H9F13880   5.578   3.888   7.463  0.2481  0.7268 -2.2718
  129OSM   C10F13881   5.679   3.789   7.601  0.6449 -0.1494 -1.1586
  129OSM   H10F13882   5.598   3.818   7.670  0.0544 -1.4203 -1.2890
  129OSM   C11F13883   5.787   3.694   7.651 -0.1075  0.2554  0.5949
  129OSM   H11F13884   5.841   3.743   7.735  2.3787 -0.5427 -0.5296
  129OSM   H11G13885   5.859   3.687   7.568 -0.6779 -0.3592  0.1457
  129OSM   C12F13886   5.725   3.557   7.691 -0.1771  0.0070 -0.7070
  129OSM   H12F13887   5.646   3.582   7.765 -2.1490 -1.5992 -2.2121
  129OSM   H12G13888   5.802   3.491   7.735 -0.0787  0.5166 -0.1029
  129OSM   C13F13889   5.658   3.483   7.573  0.3023 -0.2121 -0.2935
  129OSM   H13F13890   5.617   3.551   7.496  1.2976 -1.1530 -1.6788
  129OSM   H13G13891   5.584   3.407   7.604 -0.7088 -0.2802 -2.8110
  129OSM   C14F13892   5.762   3.407   7.496  0.3575  0.1481  0.1634
  129OSM   H14F13893   5.816   3.349   7.574 -1.6535  0.4217  1.7949
  129OSM   H14G13894   5.836   3.472   7.445  0.6818 -0.3876 -0.0570
  129OSM   C15F13895   5.705   3.312   7.382 -0.3712  0.9450  0.3106
  129OSM   H15F13896   5.625   3.244   7.418 -1.8048  0.0345 -4.2583
  129OSM   H15G13897   5.790   3.248   7.350 -0.6761  1.0684 -0.7608
  129OSM   C16F13898   5.654   3.397   7.266 -0.2685  0.5442 -0.0446
  129OSM   H16F13899   5.733   3.472   7.250  1.1601 -0.7366  0.8949
  129OSM   H16G13900   5.558   3.450   7.287 -1.7591 -0.5371 -3.6569
  129OSM   C17F13901   5.619   3.314   7.143 -0.8246 -0.3443  0.0105
  129OSM   H17F13902   5.541   3.241   7.173 -1.5926 -0.3479 -1.9472
  129OSM   H17G13903   5.711   3.257   7.120 -0.1940  0.8900 -0.5616
  129OSM   C18F13904   5.574   3.399   7.023 -0.0830 -0.6190 -0.0047
  129OSM   H18F13905   5.657   3.463   6.987  1.5105 -3.4346 -1.5086
  129OSM   H18G13906   5.484   3.461   7.047 -0.5440 -1.6335  0.9489
  129OSM   H18H13907   5.548   3.326   6.944 -0.4159 -3.2710  2.4695
  130OSM      N13908   6.646   1.551   5.820  0.3252  0.0144  0.2118
  130OSM    C1513909   6.679   1.523   5.670 -0.4605 -0.1209 -0.3052
  130OSM   H15A13910   6.709   1.419   5.664  0.9591  0.0947  2.2668
  130OSM   H15B13911   6.756   1.581   5.622 -1.9195  0.5820 -1.8727
  130OSM   H15C13912   6.588   1.530   5.612 -0.3779 -2.8479 -0.8367
  130OSM    C1413913   6.749   1.494   5.909  0.2322  0.8443 -0.4369
  130OSM   H14A13914   6.706   1.498   6.008  0.2940 -1.0103 -0.3174
  130OSM   H14B13915   6.842   1.549   5.914 -1.1485  3.4273 -2.1815
  130OSM   H14C13916   6.771   1.389   5.897  1.5060  1.2382 -1.6878
  130OSM    C1313917   6.647   1.699   5.847 -0.4765  0.8298  0.0836
  130OSM   H13A13918   6.555   1.742   5.810 -0.8032 -1.3113 -1.7429
  130OSM   H13B13919   6.729   1.743   5.792 -0.4519 -0.5793 -1.0484
  130OSM   H13C13920   6.654   1.716   5.953 -1.0099  2.7033 -0.1643
  130OSM    C1213921   6.508   1.497   5.853  0.7227 -0.1777 -0.7334
  130OSM   H12A13922   6.516   1.389   5.850 -0.2574 -0.2959  0.3920
  130OSM   H12B13923   6.429   1.531   5.788  0.5916  1.4000  0.2230
  130OSM    C1113924   6.445   1.526   5.999 -0.2031  0.0355  0.1580
  130OSM   H11A13925   6.526   1.496   6.069  0.3749 -0.3437 -0.6736
  130OSM   H11B13926   6.365   1.453   6.024 -0.3494  0.4995  1.0872
  130OSM      P13927   6.435   1.744   6.135 -0.4338  0.1209 -0.4095
  130OSM    O1313928   6.578   1.721   6.166 -0.7559  0.3395  0.6716
  130OSM    O1413929   6.380   1.882   6.122  0.0787  0.7088  0.3179
  130OSM    O1113930   6.350   1.660   6.243 -0.6323 -0.0238 -0.0515
  130OSM    O1213931   6.399   1.660   6.005  0.2844  0.5239  0.4084
  130OSM    C1S13932   6.205   1.640   6.221 -0.3682  0.4715  0.1865
  130OSM    H1S13933   6.188   1.543   6.169 -2.5487  1.7490 -1.5637
  130OSM    H1T13934   6.163   1.718   6.154 -0.2121  0.5166  0.1401
  130OSM     NF13935   5.991   1.598   6.344 -0.1006  0.0768 -0.1096
  130OSM    HNF13936   5.925   1.672   6.353  2.6064  2.2546  2.1740
  130OSM    C2S13937   6.133   1.637   6.358 -0.7808  0.3377  0.5657
  130OSM    H2S13938   6.180   1.562   6.425 -1.3876 -0.9663 -0.4419
  130OSM    C3S13939   6.160   1.762   6.443  0.3910 -0.0528 -0.4220
  130OSM    H3S13940   6.124   1.853   6.389  0.9065  0.7381  0.5422
  130OSM     O313941   6.307   1.795   6.463  0.4961  0.1573  0.2697
  130OSM    HO313942   6.352   1.735   6.403  2.0203  1.0087  0.5406
  130OSM    C4S13943   6.085   1.743   6.573 -0.0861 -0.1177 -0.0710
  130OSM    H4S13944   5.979   1.770   6.565  0.2432  0.8460 -1.2383
  130OSM    C5S13945   6.135   1.706   6.692  0.3679  0.3076 -0.4472
  130OSM    H5S13946   6.245   1.705   6.697  0.3347  0.2277  0.2528
  130OSM    C6S13947   6.071   1.686   6.828  0.1718  0.1859 -0.2947
  130OSM    H6S13948   5.961   1.676   6.823  0.4148 -3.2010 -0.2135
  130OSM    H6T13949   6.101   1.762   6.902 -1.6596 -0.6268  1.3198
  130OSM    C7S13950   6.124   1.558   6.887  0.2637 -0.6792  0.2382
  130OSM    H7S13951   6.234   1.558   6.896  0.1158 -0.2890  2.4288
  130OSM    H7T13952   6.100   1.477   6.815 -0.7235  1.0163 -1.3924
  130OSM    C8S13953   6.073   1.534   7.031 -0.2940 -0.2201 -0.3684
  130OSM    H8S13954   6.101   1.437   7.077 -1.7626 -0.4510  0.0817
  130OSM    H8T13955   5.963   1.515   7.024 -0.4241  0.4234 -0.0280
  130OSM    C9S13956   6.099   1.642   7.134 -0.6090  0.1316  0.3438
  130OSM    H9S13957   6.046   1.733   7.099  0.2233  0.4638 -0.0763
  130OSM    H9T13958   6.205   1.678   7.137 -1.2090  1.7912  3.3531
  130OSM   C10S13959   6.047   1.619   7.278  0.0332  0.3546 -0.3747
  130OSM   H10S13960   6.101   1.527   7.310 -1.8448 -0.3533  0.8267
  130OSM   H10T13961   5.938   1.597   7.278  0.4157 -1.6946 -2.0935
  130OSM   C11S13962   6.085   1.723   7.388  0.0355 -0.6126 -0.2842
  130OSM   H11S13963   6.050   1.822   7.350 -1.0338 -0.7813  0.2313
  130OSM   H11T13964   6.195   1.737   7.398 -0.1850  1.6301 -0.7688
  130OSM   C12S13965   6.012   1.702   7.518  0.5996 -0.5260 -0.1817
  130OSM   H12S13966   5.907   1.667   7.505  0.9263 -2.1698  1.2621
  130OSM   H12T13967   6.009   1.796   7.577 -0.2658  0.1946 -1.3561
  130OSM   C13S13968   6.086   1.595   7.603 -0.2445  0.5885 -0.0192
  130OSM   H13S13969   6.188   1.634   7.622 -0.9039  2.2312  0.2742
  130OSM   H13T13970   6.097   1.494   7.558 -1.3318 -0.2428  1.5017
  130OSM   C14S13971   6.016   1.585   7.741 -0.2797  1.0371  0.4175
  130OSM   H14S13972   6.047   1.486   7.781 -0.9210  1.5827  2.2950
  130OSM   H14T13973   5.908   1.584   7.715 -0.0684  0.9445 -0.4674
  130OSM   C15S13974   6.053   1.688   7.842 -0.2692 -0.6431 -0.0900
  130OSM   H15S13975   6.017   1.791   7.819 -1.5330 -0.1538  3.7690
  130OSM   H15T13976   6.164   1.696   7.839 -0.3468  0.7185  0.2767
  130OSM   C16S13977   6.023   1.654   7.992 -0.8714 -0.0538  0.5624
  130OSM   H16S13978   5.914   1.629   7.999 -0.7167 -0.3644  2.0017
  130OSM   H16T13979   6.049   1.745   8.050  1.0160 -0.4136  0.2888
  130OSM   C17S13980   6.105   1.542   8.065  0.2301 -0.3787  0.9259
  130OSM   H17S13981   6.208   1.581   8.052  0.4184 -1.6220 -1.5867
  130OSM   H17T13982   6.088   1.447   8.010 -0.1532  1.1897 -1.7697
  130OSM   C18S13983   6.076   1.522   8.211  0.1572  0.2909 -0.9921
  130OSM   H18S13984   5.978   1.472   8.232  0.4110  0.0334 -0.3902
  130OSM   H18T13985   6.073   1.622   8.260 -1.6799 -0.6590  0.9205
  130OSM   H18U13986   6.142   1.450   8.264  0.5257  0.4062 -1.2980
  130OSM    C1F13987   5.958   1.467   6.320 -0.0556  0.7037 -0.9022
  130OSM     OF13988   6.044   1.383   6.300 -0.0590 -0.4595 -0.4689
  130OSM    C2F13989   5.817   1.435   6.316  0.4247 -0.3441  0.0970
  130OSM    H2F13990   5.784   1.394   6.218 -1.3872  1.8041 -0.2475
  130OSM    H2G13991   5.754   1.526   6.328  0.4575 -0.1262 -1.2847
  130OSM    C3F13992   5.791   1.333   6.423 -0.5171  0.1305  0.1519
  130OSM    H3F13993   5.852   1.241   6.409  0.4183  0.9108 -0.9792
  130OSM    H3G13994   5.689   1.298   6.398 -0.6594 -0.2849  1.2819
  130OSM    C4F13995   5.793   1.391   6.565 -0.1279 -0.3876  0.4588
  130OSM    H4F13996   5.710   1.464   6.573  0.0867  0.3299 -3.0001
  130OSM    H4G13997   5.893   1.436   6.582 -0.0209 -0.8418  1.0635
  130OSM    C5F13998   5.767   1.287   6.683 -0.2965 -0.5941 -0.0444
  130OSM    H5F13999   5.829   1.195   6.675 -0.7099 -0.7664 -1.3286
  130OSM    H5G14000   5.661   1.256   6.673 -0.9394  1.8828 -1.2866
  130OSM    C6F14001   5.793   1.346   6.822  0.5331  0.6671 -0.0796
  130OSM    H6F14002   5.735   1.441   6.830  0.3377  0.3196  3.6800
  130OSM    H6G14003   5.900   1.371   6.839  0.9408  0.8267 -2.6759
  130OSM    C7F14004   5.744   1.262   6.934 -0.0791  0.6666  0.0168
  130OSM    H7F14005   5.783   1.158   6.926  0.8311  1.0851 -1.1693
  130OSM    H7G14006   5.633   1.271   6.932 -0.0925  0.8851  1.3854
  130OSM    C8F14007   5.793   1.306   7.073 -0.0287 -0.7559 -0.3486
  130OSM    H8F14008   5.801   1.416   7.060  0.9736 -1.1444 -3.6252
  130OSM    H8G14009   5.891   1.269   7.108  0.0031  0.2927  0.7031
  130OSM    C9F14010   5.681   1.282   7.177  0.0081 -0.3174  0.1288
  130OSM    H9F14011   5.578   1.264   7.144  0.4369 -1.3270 -0.6807
  130OSM   C10F14012   5.705   1.295   7.308  0.4094 -0.7984 -0.7478
  130OSM   H10F14013   5.620   1.272   7.375 -0.2290 -0.7694 -1.5297
  130OSM   C11F14014   5.835   1.337   7.367 -0.5007  0.2964 -0.0407
  130OSM   H11F14015   5.803   1.433   7.411  1.8000  0.7913  0.6499
  130OSM   H11G14016   5.915   1.353   7.291  0.6994  0.9902  1.3303
  130OSM   C12F14017   5.897   1.253   7.481  0.3613 -0.6122  0.8050
  130OSM   H12F14018   6.003   1.283   7.500  0.4333 -1.0923  1.1650
  130OSM   H12G14019   5.915   1.148   7.450  1.8028 -0.0509 -0.3398
  130OSM   C13F14020   5.829   1.260   7.618  0.0585 -0.1494  0.4290
  130OSM   H13F14021   5.732   1.207   7.629 -0.2727 -0.2065 -2.3524
  130OSM   H13G14022   5.810   1.368   7.639  1.2638 -0.2380  2.0287
  130OSM   C14F14023   5.920   1.196   7.731  0.1796  0.1383  0.3622
  130OSM   H14F14024   6.019   1.244   7.722  0.5961 -0.6679  0.6116
  130OSM   H14G14025   5.921   1.089   7.699 -0.3747  0.2190  0.0625
  130OSM   C15F14026   5.865   1.215   7.874  0.5101 -0.9256 -0.7203
  130OSM   H15F14027   5.771   1.158   7.865 -0.2349  0.1427  0.1864
  130OSM   H15G14028   5.848   1.324   7.889 -0.2197 -1.0939 -0.2839
  130OSM   C16F14029   5.958   1.151   7.985  0.0805  0.5495 -0.3511
  130OSM   H16F14030   6.064   1.178   7.965  0.8274 -1.3552  0.9557
  130OSM   H16G14031   5.966   1.041   7.979  0.4070  0.4879  1.0062
  130OSM   C17F14032   5.915   1.180   8.130 -0.2236  0.4160 -0.7735
  130OSM   H17F14033   5.814   1.137   8.142 -0.1271  1.3583  4.9702
  130OSM   H17G14034   5.898   1.290   8.132  2.0111  0.7925 -0.6052
  130OSM   C18F14035   6.024   1.138   8.237  0.0292  0.6454 -0.0189
  130OSM   H18F14036   6.002   1.189   8.333  1.2688  0.5194  0.3384
  130OSM   H18G14037   6.122   1.179   8.203  0.3819 -0.4495 -0.3511
  130OSM   H18H14038   6.038   1.031   8.263  1.5392  1.1172  1.2242
  131OSM      N14039   6.129   6.220   5.966  0.3199  0.3440 -0.2072
  131OSM    C1514040   6.136   6.304   5.847  0.6812  0.4635 -0.4224
  131OSM   H15A14041   6.064   6.384   5.853 -1.2402 -1.3259  1.0191
  131OSM   H15B14042   6.101   6.249   5.760 -1.9183  2.1918 -0.5147
  131OSM   H15C14043   6.238   6.332   5.822  0.5677 -0.6022 -2.1823
  131OSM    C1414044   5.990   6.169   5.978 -0.4078  0.0365 -0.4519
  131OSM   H14A14045   5.962   6.104   5.896  0.7675 -2.6491  1.2240
  131OSM   H14B14046   5.915   6.247   5.978 -0.1687  0.3072  1.8235
  131OSM   H14C14047   5.980   6.120   6.074  2.3234 -0.6521 -0.4864
  131OSM    C1314048   6.230   6.110   5.958 -0.2455  0.6154  0.3279
  131OSM   H13A14049   6.234   6.045   6.044  0.1576  1.3681  0.8823
  131OSM   H13B14050   6.327   6.155   5.944  0.2662 -0.7396 -0.4954
  131OSM   H13C14051   6.215   6.046   5.872 -0.4557 -0.0363  0.8548
  131OSM    C1214052   6.154   6.308   6.087 -0.5466 -0.0617  0.1598
  131OSM   H12A14053   6.155   6.244   6.174  0.1164  1.4951  1.3233
  131OSM   H12B14054   6.066   6.371   6.096 -1.0119 -0.7668  0.6489
  131OSM    C1114055   6.279   6.396   6.087  0.6618  0.0941 -0.0984
  131OSM   H11A14056   6.274   6.470   6.169  2.8124 -0.3338  0.4591
  131OSM   H11B14057   6.276   6.454   5.992  1.1745  0.1282 -0.0968
  131OSM      P14058   6.471   6.266   6.219  0.0177 -0.4317  0.5183
  131OSM    O1314059   6.528   6.131   6.201 -0.3825 -0.2612  0.9265
  131OSM    O1414060   6.574   6.367   6.271 -0.8273 -0.3322  0.4419
  131OSM    O1114061   6.357   6.247   6.331  0.5047  0.6119 -0.7321
  131OSM    O1214062   6.404   6.317   6.087 -0.2338  0.3333  0.6084
  131OSM    C1S14063   6.398   6.165   6.448  0.7792  1.3016 -0.3067
  131OSM    H1S14064   6.484   6.204   6.505  1.4760 -1.1918  0.4267
  131OSM    H1T14065   6.442   6.067   6.418 -0.0902  0.6485  0.5091
  131OSM     NF14066   6.292   6.097   6.668 -0.2784  0.4330 -0.4310
  131OSM    HNF14067   6.282   6.000   6.692 -0.9992  0.8550  1.0764
  131OSM    C2S14068   6.272   6.140   6.524  0.2462  0.1486 -0.4556
  131OSM    H2S14069   6.230   6.243   6.530 -0.6461 -0.2558  0.3214
  131OSM    C3S14070   6.159   6.058   6.458 -0.0695 -0.1031 -0.0608
  131OSM    H3S14071   6.184   5.950   6.457  1.7819  0.3141  0.0633
  131OSM     O314072   6.143   6.075   6.314 -0.0648  0.1685  0.6301
  131OSM    HO314073   6.220   6.129   6.294 -2.8583  3.8884 -0.8575
  131OSM    C4S14074   6.029   6.082   6.526  0.1416  0.1168  0.0333
  131OSM    H4S14075   5.982   6.173   6.487  1.0691  0.9355  0.7999
  131OSM    C5S14076   5.962   5.997   6.602 -0.3080  0.1791 -0.3049
  131OSM    H5S14077   6.018   5.911   6.642 -0.3931 -0.1650 -0.9151
  131OSM    C6S14078   5.819   6.022   6.650  0.6067  0.3995 -0.3286
  131OSM    H6S14079   5.766   5.927   6.625  1.5830  0.0068 -0.9374
  131OSM    H6T14080   5.755   6.092   6.592  1.0618  0.2079 -1.0692
  131OSM    C7S14081   5.827   6.056   6.796  0.4680 -0.1217 -0.1680
  131OSM    H7S14082   5.722   6.055   6.831  1.1119  2.5691  1.9850
  131OSM    H7T14083   5.874   6.155   6.815 -1.2154  0.7764 -0.5902
  131OSM    C8S14084   5.903   5.958   6.884 -0.5811 -0.2443 -0.8018
  131OSM    H8S14085   6.009   5.942   6.854 -0.3281  0.6854 -0.4516
  131OSM    H8T14086   5.876   5.851   6.871  2.2110 -0.8460 -2.0854
  131OSM    C9S14087   5.908   6.000   7.036 -0.2147 -0.8942 -0.6082
  131OSM    H9S14088   5.808   6.007   7.085 -0.1167  2.7192 -0.7789
  131OSM    H9T14089   5.934   6.108   7.032 -1.4482 -0.5923 -0.9000
  131OSM   C10S14090   6.017   5.925   7.120  0.1642 -0.0219  0.2190
  131OSM   H10S14091   6.116   5.923   7.070  1.2725  0.3541  2.3283
  131OSM   H10T14092   5.982   5.820   7.123 -1.4426  0.5071  0.7285
  131OSM   C11S14093   6.023   5.995   7.256 -0.1860  0.6855 -0.0655
  131OSM   H11S14094   5.924   6.040   7.279  0.2793  2.0582 -0.6541
  131OSM   H11T14095   6.099   6.077   7.251 -0.6660  1.1902  0.8413
  131OSM   C12S14096   6.066   5.916   7.380 -0.4945 -0.5149 -0.2701
  131OSM   H12S14097   6.175   5.912   7.356 -0.5354 -5.4165 -0.0168
  131OSM   H12T14098   6.041   5.808   7.374  3.1063 -1.4149 -0.3452
  131OSM   C13S14099   6.038   5.969   7.522  0.0590 -0.3566  0.0847
  131OSM   H13S14100   5.942   5.935   7.565 -1.4874  3.4942 -0.1843
  131OSM   H13T14101   6.011   6.077   7.516  0.8776 -0.1847 -0.6602
  131OSM   C14S14102   6.145   5.938   7.626 -0.1458  0.0384  0.1909
  131OSM   H14S14103   6.239   5.972   7.577 -0.1623  1.5174  1.1478
  131OSM   H14T14104   6.155   5.829   7.643  2.8899  0.5458  2.0451
  131OSM   C15S14105   6.114   6.016   7.757 -0.2610  0.8013  0.0678
  131OSM   H15S14106   6.011   6.004   7.797 -0.5096 -1.0395 -1.0467
  131OSM   H15T14107   6.140   6.121   7.734  1.1062  0.3735 -0.3414
  131OSM   C16S14108   6.209   5.975   7.866  0.9915 -0.1453 -0.3210
  131OSM   H16S14109   6.311   5.985   7.823  0.9361  1.1149 -0.1875
  131OSM   H16T14110   6.199   5.868   7.894  0.4869 -0.4146 -1.4844
  131OSM   C17S14111   6.192   6.053   7.996  0.5136 -0.3294  0.3253
  131OSM   H17S14112   6.094   6.023   8.039  0.0348 -0.1161 -0.5975
  131OSM   H17T14113   6.186   6.160   7.965 -0.9563 -0.3977  0.3227
  131OSM   C18S14114   6.296   6.010   8.098  0.3454 -0.9908 -0.1242
  131OSM   H18S14115   6.389   6.045   8.049 -0.5729 -0.5104 -1.5742
  131OSM   H18T14116   6.300   5.903   8.127  0.8810 -0.7517  0.6776
  131OSM   H18U14117   6.296   6.074   8.188  0.0150  1.2990 -1.7056
  131OSM    C1F14118   6.330   6.185   6.759 -0.2575 -0.4204  0.2511
  131OSM     OF14119   6.365   6.297   6.733  0.3104  0.8137 -0.1660
  131OSM    C2F14120   6.309   6.147   6.901 -0.4212  0.1502  0.0050
  131OSM    H2F14121   6.313   6.037   6.916  3.4942  0.4356  1.7822
  131OSM    H2G14122   6.208   6.184   6.928 -0.3095 -0.3816  1.1590
  131OSM    C3F14123   6.419   6.195   6.997  0.2894  0.2840  0.1887
  131OSM    H3F14124   6.438   6.303   6.978  2.1233  0.0872  0.8447
  131OSM    H3G14125   6.519   6.151   6.977  0.0326 -0.4590  0.5403
  131OSM    C4F14126   6.383   6.186   7.144 -0.7342  0.2172 -0.0430
  131OSM    H4F14127   6.356   6.079   7.160 -1.0648 -0.0223 -2.0593
  131OSM    H4G14128   6.294   6.246   7.175 -1.2812 -1.1932  1.2032
  131OSM    C5F14129   6.506   6.216   7.237 -0.0062 -0.1978  0.0396
  131OSM    H5F14130   6.547   6.317   7.214  1.0553 -0.1152  2.2272
  131OSM    H5G14131   6.587   6.156   7.190 -0.5281 -1.4257  0.6925
  131OSM    C6F14132   6.479   6.191   7.381  0.5437  0.0921 -0.3610
  131OSM    H6F14133   6.578   6.171   7.428  0.6550 -0.0100 -0.6381
  131OSM    H6G14134   6.415   6.101   7.388 -0.3912  0.6841 -1.3248
  131OSM    C7F14135   6.410   6.315   7.450 -0.0147  0.4903  0.6368
  131OSM    H7F14136   6.346   6.370   7.379  0.5900  2.4060  1.5370
  131OSM    H7G14137   6.485   6.392   7.480 -0.7048  1.6554 -0.5852
  131OSM    C8F14138   6.320   6.288   7.573  0.8644  0.8912  0.4057
  131OSM    H8F14139   6.234   6.226   7.539  1.6908  0.9649 -1.9358
  131OSM    H8G14140   6.275   6.375   7.625 -0.1386  1.1879 -0.9400
  131OSM    C9F14141   6.394   6.212   7.686 -0.2779  0.2353  0.3513
  131OSM    H9F14142   6.400   6.104   7.667 -0.9008  0.0756  1.0611
  131OSM   C10F14143   6.450   6.262   7.801 -1.1224 -0.1958  0.2439
  131OSM   H10F14144   6.501   6.190   7.867  0.3848 -1.6333 -2.3914
  131OSM   C11F14145   6.452   6.410   7.844 -0.6282  0.3412 -0.0245
  131OSM   H11F14146   6.374   6.418   7.923  1.5945 -1.6833  2.4779
  131OSM   H11G14147   6.424   6.482   7.764 -3.4171  0.0757  0.6601
  131OSM   C12F14148   6.588   6.453   7.907 -0.2588  0.2203  0.0497
  131OSM   H12F14149   6.581   6.561   7.933  2.5091  0.9530 -2.0122
  131OSM   H12G14150   6.672   6.440   7.835 -0.3183  1.1569 -0.1985
  131OSM   C13F14151   6.616   6.370   8.035  0.3551  0.1479 -0.2940
  131OSM   H13F14152   6.661   6.269   8.019  0.6729 -0.3081  3.2175
  131OSM   H13G14153   6.520   6.355   8.089  0.8833 -0.3697  0.5168
  131OSM   C14F14154   6.721   6.447   8.112  0.8203 -0.5330 -0.1347
  131OSM   H14F14155   6.696   6.548   8.152 -1.8022 -2.0055  2.1551
  131OSM   H14G14156   6.814   6.457   8.052  0.8437  0.9435  0.1280
  131OSM   C15F14157   6.760   6.365   8.234 -0.1346  0.5490 -0.3956
  131OSM   H15F14158   6.858   6.401   8.271 -0.2101  0.2252  0.1181
  131OSM   H15G14159   6.786   6.261   8.204  2.6442 -0.3533  4.5722
  131OSM   C16F14160   6.656   6.363   8.353  0.2759 -0.8319  0.1400
  131OSM   H16F14161   6.569   6.302   8.323  0.3432 -2.0679  2.3689
  131OSM   H16G14162   6.626   6.469   8.367  2.0569 -0.1755 -0.8210
  131OSM   C17F14163   6.713   6.312   8.488  0.1154  0.1589  0.6003
  131OSM   H17F14164   6.787   6.386   8.524  1.4946 -0.3016 -1.1996
  131OSM   H17G14165   6.752   6.209   8.474  1.4297  0.4843  1.7815
  131OSM   C18F14166   6.599   6.288   8.590 -0.9766 -0.0753  0.3072
  131OSM   H18F14167   6.632   6.272   8.695 -0.2423  0.9892  0.2501
  131OSM   H18G14168   6.529   6.207   8.559 -1.7202  1.3765 -1.9331
  131OSM   H18H14169   6.546   6.384   8.604  1.3563  1.0050  1.9390
  132OSM      N14170   1.584   3.277   5.909  0.0958 -0.0066  0.1965
  132OSM    C1514171   1.495   3.181   5.989 -0.2941  0.0856  0.2316
  132OSM   H15A14172   1.501   3.186   6.097 -2.8565 -1.6376  0.4949
  132OSM   H15B14173   1.523   3.079   5.969 -0.5930 -0.0250  0.3694
  132OSM   H15C14174   1.392   3.188   5.957 -0.0850 -1.2633 -0.7703
  132OSM    C1414175   1.735   3.250   5.924  0.3826  0.7371  0.2614
  132OSM   H14A14176   1.793   3.326   5.874  0.0127  0.5185 -0.5176
  132OSM   H14B14177   1.762   3.160   5.872 -0.1775  0.9450 -0.3970
  132OSM   H14C14178   1.765   3.244   6.027  0.1381 -0.5416  0.2636
  132OSM    C1314179   1.549   3.259   5.765 -0.2494 -0.0756  0.0057
  132OSM   H13A14180   1.608   3.329   5.707 -1.2452  0.6149 -0.1900
  132OSM   H13B14181   1.444   3.280   5.748 -0.5133 -0.0691  1.5633
  132OSM   H13C14182   1.560   3.159   5.727  1.1630  1.0978 -2.8465
  132OSM    C1214183   1.556   3.431   5.947  0.4315 -0.0310 -0.2519
  132OSM   H12A14184   1.481   3.477   5.884  0.8287 -0.2236 -0.8580
  132OSM   H12B14185   1.638   3.492   5.912 -1.0570  1.8058 -0.6767
  132OSM    C1114186   1.527   3.460   6.091  0.5511  0.2873  0.2208
  132OSM   H11A14187   1.426   3.425   6.123  1.2882 -0.3034  1.9148
  132OSM   H11B14188   1.511   3.570   6.104 -0.8695  0.2455 -0.9843
  132OSM      P14189   1.757   3.490   6.200 -0.3062 -0.1598  0.1819
  132OSM    O1314190   1.867   3.398   6.212 -0.4008  0.2065  0.6245
  132OSM    O1414191   1.766   3.595   6.090 -0.6706  0.5089  0.1490
  132OSM    O1114192   1.748   3.565   6.338  0.2215 -0.5530  0.1603
  132OSM    O1214193   1.620   3.411   6.187 -0.1838 -0.1604  0.1164
  132OSM    C1S14194   1.630   3.556   6.418 -0.2801 -0.2292  0.6866
  132OSM    H1S14195   1.610   3.448   6.434 -0.4511  0.2652  4.1837
  132OSM    H1T14196   1.538   3.599   6.373  0.9292  1.8051  0.1388
  132OSM     NF14197   1.549   3.576   6.661  0.4870 -0.0739  0.0109
  132OSM    HNF14198   1.476   3.644   6.662  1.6887  1.2485 -1.3378
  132OSM    C2S14199   1.644   3.623   6.557  0.5322 -0.0009  0.5174
  132OSM    H2S14200   1.743   3.588   6.593  0.6609 -0.2953 -0.1201
  132OSM    C3S14201   1.645   3.773   6.535  0.5185  0.3621  0.4016
  132OSM    H3S14202   1.543   3.801   6.499  0.7423 -0.4215 -0.8775
  132OSM     O314203   1.742   3.812   6.439  0.0273 -0.0996  0.3062
  132OSM    HO314204   1.777   3.734   6.395  2.6322  2.2708 -2.0230
  132OSM    C4S14205   1.674   3.846   6.670  0.1868  0.7029 -0.1590
  132OSM    H4S14206   1.763   3.810   6.722 -0.3000 -0.1209  0.1218
  132OSM    C5S14207   1.600   3.921   6.751  0.3433 -0.3521  0.7797
  132OSM    H5S14208   1.497   3.952   6.727  1.4851  0.6013 -3.3497
  132OSM    C6S14209   1.658   3.955   6.887 -0.0407 -0.5523 -0.9337
  132OSM    H6S14210   1.645   4.065   6.900  0.7675 -0.3733 -1.5585
  132OSM    H6T14211   1.769   3.955   6.887 -0.0011  1.2137  1.4639
  132OSM    C7S14212   1.603   3.871   7.008 -0.5240 -0.0330 -0.0811
  132OSM    H7S14213   1.628   3.763   6.997 -0.8675 -0.1521  0.3261
  132OSM    H7T14214   1.493   3.885   7.011 -0.7499 -1.9174  1.1934
  132OSM    C8S14215   1.679   3.909   7.141 -0.2885  0.1387 -0.4935
  132OSM    H8S14216   1.677   4.018   7.161  1.1871  0.0641  0.1194
  132OSM    H8T14217   1.784   3.881   7.118  0.1591  1.7255 -0.4364
  132OSM    C9S14218   1.639   3.849   7.276 -0.0020 -0.2407 -0.6971
  132OSM    H9S14219   1.650   3.738   7.280  0.0580 -0.2092  0.1705
  132OSM    H9T14220   1.539   3.878   7.314  0.5230 -0.4555  0.9174
  132OSM   C10S14221   1.734   3.901   7.389  0.4982 -0.1804  0.1510
  132OSM   H10S14222   1.729   4.011   7.404  1.3070 -0.4154  2.3686
  132OSM   H10T14223   1.838   3.868   7.371  0.9248  0.3834  1.5396
  132OSM   C11S14224   1.700   3.856   7.534 -0.0029  0.6442 -0.2984
  132OSM   H11S14225   1.793   3.858   7.594 -0.3238 -1.3170  0.3263
  132OSM   H11T14226   1.681   3.746   7.529  0.0698  0.6715 -1.4846
  132OSM   C12S14227   1.580   3.930   7.598 -0.3303  0.2494  0.0067
  132OSM   H12S14228   1.495   3.928   7.526  1.1151 -1.0409 -1.7177
  132OSM   H12T14229   1.592   4.040   7.604  1.1486  0.2589 -2.4287
  132OSM   C13S14230   1.522   3.859   7.722  0.2718  1.0671  0.3083
  132OSM   H13S14231   1.500   3.753   7.697 -1.5762  1.4619  0.1673
  132OSM   H13T14232   1.421   3.907   7.721 -0.9210 -1.4019 -2.3084
  132OSM   C14S14233   1.595   3.899   7.842  0.0326  0.5345  0.2977
  132OSM   H14S14234   1.576   4.008   7.854 -0.0689  0.7018 -1.2791
  132OSM   H14T14235   1.704   3.889   7.825 -0.4087 -0.2213 -2.2446
  132OSM   C15S14236   1.560   3.818   7.966 -0.0375 -0.3832  0.5630
  132OSM   H15S14237   1.592   3.716   7.937  0.4663  0.0250 -0.3301
  132OSM   H15T14238   1.452   3.829   7.990  0.3309  0.5459  1.8840
  132OSM   C16S14239   1.635   3.872   8.101 -0.5144  0.0470  0.1214
  132OSM   H16S14240   1.637   3.983   8.110 -2.4889  0.2589 -1.6056
  132OSM   H16T14241   1.741   3.848   8.079 -0.2613  0.0895  1.2557
  132OSM   C17S14242   1.593   3.813   8.234  0.1453  0.3917 -0.1472
  132OSM   H17S14243   1.670   3.831   8.312  0.9941 -1.2016 -0.5923
  132OSM   H17T14244   1.569   3.705   8.226  0.1088  0.4506 -0.8196
  132OSM   C18S14245   1.470   3.886   8.292  0.2857  0.4152  0.2859
  132OSM   H18S14246   1.381   3.867   8.228  0.8231  1.5301 -0.8154
  132OSM   H18T14247   1.489   3.993   8.272  1.4683  0.4918  1.7972
  132OSM   H18U14248   1.449   3.859   8.397 -2.1900 -1.2294 -0.5718
  132OSM    C1F14249   1.540   3.457   6.717  0.2665  0.8697 -0.0643
  132OSM     OF14250   1.601   3.361   6.676 -0.0545  0.3707  0.0773
  132OSM    C2F14251   1.436   3.450   6.821 -0.4751  0.0762  0.5079
  132OSM    H2F14252   1.345   3.438   6.757  0.6474  1.8300 -1.5024
  132OSM    H2G14253   1.442   3.539   6.886 -0.0585  0.8568 -0.5892
  132OSM    C3F14254   1.454   3.316   6.902  0.1286 -0.1268  0.3064
  132OSM    H3F14255   1.557   3.301   6.942 -0.1542 -1.9037  0.4049
  132OSM    H3G14256   1.428   3.228   6.839  0.5732 -0.8274  1.0897
  132OSM    C4F14257   1.361   3.316   7.025 -0.2662  0.2020  0.1930
  132OSM    H4F14258   1.255   3.329   6.993 -0.8364  0.1079  1.9707
  132OSM    H4G14259   1.386   3.398   7.096  0.6870  1.7119 -1.8357
  132OSM    C5F14260   1.372   3.180   7.090  0.1024 -0.5336 -0.3573
  132OSM    H5F14261   1.468   3.167   7.145  0.6769 -1.7242 -1.6338
  132OSM    H5G14262   1.363   3.101   7.013 -0.2458 -1.2990  0.4507
  132OSM    C6F14263   1.260   3.147   7.189  0.3339 -0.3387 -0.1338
  132OSM    H6F14264   1.168   3.140   7.127 -0.4524 -1.1230  1.0863
  132OSM    H6G14265   1.241   3.223   7.268  1.7330  0.0126 -0.1268
  132OSM    C7F14266   1.277   3.005   7.248 -0.6956 -0.0413 -0.3307
  132OSM    H7F14267   1.322   2.941   7.169 -1.4727 -0.7770 -0.1817
  132OSM    H7G14268   1.174   2.971   7.273 -0.7083 -0.5772 -1.1030
  132OSM    C8F14269   1.357   3.001   7.379  0.5896 -0.1224  0.0389
  132OSM    H8F14270   1.456   3.043   7.355  0.0730 -0.5234 -2.9617
  132OSM    H8G14271   1.367   2.891   7.394  0.1552  0.0618  1.8439
  132OSM    C9F14272   1.288   3.068   7.498  0.2773 -0.5511 -0.8985
  132OSM    H9F14273   1.266   3.176   7.488  1.9987 -0.0547  0.3382
  132OSM   C10F14274   1.242   3.006   7.608 -0.6802 -0.4328 -0.3629
  132OSM   H10F14275   1.203   3.072   7.686  0.5332  0.7009 -0.6999
  132OSM   C11F14276   1.267   2.863   7.635  0.2877  0.6120  0.0481
  132OSM   H11F14277   1.365   2.831   7.592  0.4607  1.7755 -0.4296
  132OSM   H11G14278   1.198   2.805   7.569  1.4109  0.4385 -1.0102
  132OSM   C12F14279   1.276   2.810   7.775  0.3637 -0.1159 -0.1824
  132OSM   H12F14280   1.273   2.700   7.763 -0.0085 -0.1271  0.0288
  132OSM   H12G14281   1.195   2.856   7.836  0.9612  2.0148 -0.9327
  132OSM   C13F14282   1.408   2.840   7.857  0.0175  0.2608  0.3244
  132OSM   H13F14283   1.425   2.948   7.834 -0.6561 -0.7117 -5.2961
  132OSM   H13G14284   1.487   2.784   7.804  0.4757  1.2255 -0.0189
  132OSM   C14F14285   1.415   2.800   8.002  0.4351 -0.2757  0.6986
  132OSM   H14F14286   1.513   2.832   8.044  0.6541  1.4392 -1.0148
  132OSM   H14G14287   1.429   2.691   8.017  0.0885 -0.6336 -1.3816
  132OSM   C15F14288   1.297   2.828   8.097  0.6923 -0.4213  0.0776
  132OSM   H15F14289   1.239   2.733   8.094  2.2214 -1.3647 -0.0660
  132OSM   H15G14290   1.239   2.916   8.061  1.0806 -0.4161 -0.5395
  132OSM   C16F14291   1.347   2.857   8.241 -0.4427  0.2534  0.0323
  132OSM   H16F14292   1.433   2.927   8.247  0.4135 -0.9206  1.9422
  132OSM   H16G14293   1.398   2.763   8.273 -0.9884  0.5588  1.8341
  132OSM   C17F14294   1.236   2.903   8.333 -0.4227 -0.6089  0.5096
  132OSM   H17F14295   1.150   2.834   8.323  0.6980 -2.2062  1.6165
  132OSM   H17G14296   1.195   3.002   8.306 -0.7158 -0.2604  2.1345
  132OSM   C18F14297   1.283   2.911   8.481  0.0078  0.3527 -0.3386
  132OSM   H18F14298   1.362   2.987   8.497  0.2089 -0.3870  2.4907
  132OSM   H18G14299   1.316   2.809   8.511  1.3949  0.7326 -0.5442
  132OSM   H18H14300   1.197   2.940   8.545 -1.3287  0.8440 -2.3118
  133SAPE     N14301   4.515   0.973  10.475 -0.2425 -0.4337 -0.1825
  133SAPE   HN114302   4.593   0.947  10.411  0.7245  2.1252 -0.0986
  133SAPE   HN214303   4.438   0.976  10.406  0.2192 -1.1077 -0.7346
  133SAPE   HN314304   4.542   1.067  10.511 -0.2725 -0.4788 -0.0409
  133SAPE   C1214305   4.506   0.876  10.587 -0.4933 -0.7954  0.0270
  133SAPE  H12A14306   4.604   0.856  10.634  0.5872  3.9096  0.0274
  133SAPE  H12B14307   4.458   0.792  10.533 -1.6163 -1.0430  1.3705
  133SAPE   C1114308   4.399   0.923  10.686  0.4363  0.3332 -0.3063
  133SAPE  H11A14309   4.409   0.869  10.782 -2.3764  1.1927  0.5123
  133SAPE  H11B14310   4.303   0.900  10.634  0.0825 -2.0093  1.3506
  133SAPE     P14311   4.282   1.147  10.758 -0.4591 -0.0338  0.2969
  133SAPE   O1314312   4.218   1.087  10.883  0.5787 -0.8258 -0.7763
  133SAPE   O1414313   4.322   1.289  10.766  0.5637 -0.1691  0.4124
  133SAPE   O1214314   4.413   1.066  10.713 -0.0305 -0.3960 -0.3885
  133SAPE   O1114315   4.177   1.124  10.639  0.4432  0.0923  0.2425
  133SAPE    C114316   4.124   1.216  10.547 -0.6681 -0.1626  0.3673
  133SAPE    HA14317   4.015   1.197  10.538 -1.1910  1.3751  2.8453
  133SAPE    HB14318   4.129   1.323  10.575 -1.4177 -0.5514  2.0470
  133SAPE    C214319   4.194   1.195  10.410 -0.1823 -0.0708  0.2610
  133SAPE    HS14320   4.305   1.205  10.418 -0.0839  0.1623 -1.2955
  133SAPE   O2114321   4.126   1.283  10.314  0.4127 -0.0110 -0.2938
  133SAPE   C2114322   4.179   1.404  10.319  0.1322 -0.0668  0.4058
  133SAPE   O2214323   4.257   1.440  10.406  0.2494 -0.2358  0.0938
  133SAPE   C2214324   4.127   1.491  10.210  0.8012 -0.3445  0.0721
  133SAPE   H2R14325   4.037   1.444  10.165  0.1868  1.9033 -1.1179
  133SAPE   H2S14326   4.081   1.579  10.260 -0.8248 -2.1251  1.8356
  133SAPE    C314327   4.168   1.044  10.368  0.1147  0.7285 -0.2156
  133SAPE    HX14328   4.058   1.026  10.371 -0.4058  2.6936 -4.1135
  133SAPE    HY14329   4.211   0.983  10.450 -0.8673  1.1151  0.5915
  133SAPE   O3114330   4.211   1.008  10.238 -0.5454  0.2453  0.0002
  133SAPE   C3114331   4.286   0.896  10.220  0.1047  0.0114  0.4659
  133SAPE   O3214332   4.337   0.833  10.311  0.0181 -0.0288  0.0262
  133SAPE   C3214333   4.287   0.856  10.072 -0.0451  0.2940 -0.4033
  133SAPE   H2X14334   4.211   0.776  10.058  1.4788 -1.4626  1.1408
  133SAPE   H2Y14335   4.387   0.817  10.044 -1.0888 -0.1275 -3.7498
  133SAPE   C2314336   4.226   1.537  10.109  0.3984  0.0960 -0.6956
  133SAPE   H3R14337   4.307   1.599  10.154 -0.5163 -0.9441  2.5775
  133SAPE   H3S14338   4.179   1.605  10.036 -0.2738 -0.3367 -0.6717
  133SAPE   C2414339   4.280   1.420  10.021  0.1886 -0.8339  0.1272
  133SAPE   H4R14340   4.204   1.354   9.974 -1.9949 -0.2394  2.6614
  133SAPE   H4S14341   4.320   1.336  10.083  1.6208 -1.1597 -1.2301
  133SAPE   C2514342   4.389   1.466   9.924 -0.0873 -0.5108  0.0263
  133SAPE   H5R14343   4.457   1.552   9.939 -1.9766  0.9637  0.3205
  133SAPE   C2614344   4.413   1.414   9.806 -0.4790  0.0364  0.5620
  133SAPE   H6R14345   4.505   1.446   9.756 -2.5353  1.9910 -2.0905
  133SAPE   C2714346   4.351   1.298   9.735  0.1517  0.1533  0.4089
  133SAPE   H7R14347   4.294   1.241   9.812 -0.3041  0.9355  0.6504
  133SAPE   H7S14348   4.425   1.223   9.701  0.2006  0.7716 -0.8815
  133SAPE   C2814349   4.261   1.349   9.628 -0.4356 -0.4604 -0.1301
  133SAPE   H8R14350   4.170   1.403   9.659 -0.6956 -0.6341 -0.5965
  133SAPE   C2914351   4.277   1.328   9.497 -0.3431  0.7147 -0.2182
  133SAPE   H9R14352   4.206   1.384   9.434 -1.0859  0.0711  0.0287
  133SAPE  C21014353   4.382   1.247   9.423 -0.6529  0.0969  0.5360
  133SAPE  H10R14354   4.434   1.169   9.482 -1.3985 -1.8792 -1.3330
  133SAPE  H10S14355   4.464   1.319   9.400 -0.8219  0.5855  1.4466
  133SAPE  C21114356   4.337   1.173   9.299  0.5290 -0.1595 -0.6594
  133SAPE  H11R14357   4.278   1.082   9.320 -1.6668  1.4889  0.5115
  133SAPE  C21214358   4.356   1.218   9.173 -0.0318 -0.6492 -0.0543
  133SAPE  H12R14359   4.311   1.159   9.091 -2.1322 -0.4854  0.9473
  133SAPE  C21314360   4.404   1.354   9.128 -0.0118 -0.2447 -0.0375
  133SAPE  H13R14361   4.439   1.411   9.217  2.2326 -0.5565 -0.6904
  133SAPE  H13S14362   4.322   1.413   9.082  0.3511 -0.8361 -1.4711
  133SAPE  C21414363   4.500   1.341   9.017  0.1896 -0.3497  0.6523
  133SAPE  H14R14364   4.589   1.291   9.059  0.7489  0.2569  0.1848
  133SAPE  C21514365   4.487   1.358   8.882  0.7242  0.1509  0.1570
  133SAPE  H15R14366   4.575   1.346   8.818 -1.0148 -2.2317 -1.8577
  133SAPE  C21614367   4.361   1.396   8.805  0.4188  1.0530 -0.0271
  133SAPE  H16R14368   4.389   1.436   8.705  0.4149 -0.0841 -0.4878
  133SAPE  H16S14369   4.298   1.478   8.847 -1.2091 -0.0148 -0.3313
  133SAPE  C21714370   4.256   1.282   8.776  0.6630 -0.1981 -0.4285
  133SAPE  H17R14371   4.165   1.322   8.726 -0.0310 -1.7639 -0.4562
  133SAPE  H17S14372   4.221   1.254   8.878  0.8806  1.0370 -0.0161
  133SAPE  C21814373   4.316   1.164   8.689 -0.1704  0.2905  0.1447
  133SAPE  H18R14374   4.401   1.121   8.746 -2.2390 -2.0919  1.5002
  133SAPE  H18S14375   4.342   1.199   8.586  0.7016  0.1854  0.3267
  133SAPE  C21914376   4.214   1.058   8.667 -0.0500  0.3301 -0.4852
  133SAPE  H19R14377   4.187   1.020   8.768 -1.8198  1.4629 -0.5068
  133SAPE  H19S14378   4.258   0.964   8.626  2.8660  1.4118  0.0260
  133SAPE  C22014379   4.087   1.087   8.590  0.5384 -0.4391 -0.1132
  133SAPE  H20R14380   4.113   1.158   8.508  0.4270 -0.0633  0.1765
  133SAPE  H20S14381   4.021   1.136   8.665  1.3775 -0.3564  0.5744
  133SAPE  H20T14382   4.048   0.996   8.539  0.0884  0.1383 -0.8087
  133SAPE   C3314383   4.247   0.979   9.978  0.3758 -0.4385 -0.2935
  133SAPE   H3X14384   4.312   1.069   9.983  4.4711 -3.2469 -0.5533
  133SAPE   H3Y14385   4.145   1.011  10.008  1.3568  1.8976  0.6971
  133SAPE   C3414386   4.234   0.932   9.826  0.9431 -0.4820 -0.6998
  133SAPE   H4X14387   4.213   1.028   9.774  0.3116 -0.0774  0.2947
  133SAPE   H4Y14388   4.148   0.863   9.816 -0.2236  0.6331  1.3498
  133SAPE   C3514389   4.360   0.891   9.745  0.6408  0.0528 -0.2612
  133SAPE   H5X14390   4.417   0.806   9.788  2.1639  0.7733 -0.8000
  133SAPE   H5Y14391   4.426   0.981   9.740  0.7195 -0.0908 -2.1739
  133SAPE   C3614392   4.341   0.845   9.605 -0.5981 -0.0352  0.5343
  133SAPE   H6X14393   4.284   0.923   9.551 -0.8427 -0.6136 -0.0563
  133SAPE   H6Y14394   4.299   0.742   9.605 -2.7583  0.8200 -0.6246
  133SAPE   C3714395   4.477   0.836   9.532  0.3200  0.9085  0.0213
  133SAPE   H7X14396   4.528   0.744   9.568  0.4881  1.2285  0.5956
  133SAPE   H7Y14397   4.536   0.925   9.561  0.2709  0.6299  0.9630
  133SAPE   C3814398   4.459   0.835   9.379 -0.2619 -0.6340  0.5250
  133SAPE   H8X14399   4.373   0.895   9.342  0.1345  0.0002  0.6363
  133SAPE   H8Y14400   4.439   0.728   9.356  0.8045 -1.1865  2.0682
  133SAPE   C3914401   4.588   0.896   9.312 -0.2880 -0.0999  0.2254
  133SAPE   H9X14402   4.669   0.841   9.363 -0.5971  1.0591  2.0380
  133SAPE   H9Y14403   4.594   1.005   9.336  0.3930 -0.6659  2.6939
  133SAPE  C31014404   4.598   0.873   9.160  0.5362 -0.4299 -0.1297
  133SAPE  H10X14405   4.569   0.962   9.100  0.5059 -2.2651 -2.9478
  133SAPE  H10Y14406   4.537   0.787   9.125  1.7386 -1.6731  0.7773
  133SAPE  C31114407   4.740   0.849   9.105 -0.0012 -0.0217  0.1279
  133SAPE  H11X14408   4.792   0.772   9.165 -0.1056  0.0419  0.3006
  133SAPE  H11Y14409   4.803   0.941   9.099 -0.8308  0.6404  1.5371
  133SAPE  C31214410   4.741   0.792   8.958  0.1917  0.2478 -0.7777
  133SAPE  H12X14411   4.668   0.708   8.948 -0.2839  0.9878 -3.9776
  133SAPE  H12Y14412   4.843   0.749   8.947 -0.1428 -0.0520 -2.9782
  133SAPE  C31314413   4.713   0.905   8.860 -0.3279  0.0773  0.2010
  133SAPE  H13X14414   4.794   0.978   8.878  0.1495 -0.4789  0.3507
  133SAPE  H13Y14415   4.617   0.957   8.882 -1.8051 -2.9006  1.0842
  133SAPE  C31414416   4.712   0.860   8.711  0.1309 -0.2842 -0.4923
  133SAPE  H14X14417   4.637   0.778   8.707  0.2754 -0.4997  0.9276
  133SAPE  H14Y14418   4.808   0.824   8.668 -0.2817 -0.9873 -0.8419
  133SAPE  C31514419   4.665   0.981   8.632  0.6828 -0.4243  0.5854
  133SAPE  H15X14420   4.741   1.062   8.630 -0.3100  0.5095  0.4167
  133SAPE  H15Y14421   4.570   1.018   8.676  1.8344 -1.1387  3.7518
  133SAPE  C31614422   4.637   0.939   8.488 -0.8695  0.1258  0.7644
  133SAPE  H16X14423   4.584   0.842   8.476  0.1033 -0.1765 -1.1345
  133SAPE  H16Y14424   4.733   0.923   8.434 -0.5866  1.2684  0.9366
  133SAPE  C31714425   4.566   1.047   8.406  0.0135 -0.7426 -0.0500
  133SAPE  H17X14426   4.467   1.070   8.452 -0.4583 -0.5452 -1.1503
  133SAPE  H17Y14427   4.539   0.999   8.310 -3.6518 -1.7268  1.4158
  133SAPE  C31814428   4.647   1.170   8.384 -0.2265  0.4267  0.7465
  133SAPE  H18X14429   4.751   1.134   8.365 -0.6373 -0.8796  0.9187
  133SAPE  H18Y14430   4.662   1.232   8.475  5.5285 -0.0305  0.2908
  133SAPE  H18Z14431   4.599   1.241   8.313 -1.8217  1.0899  2.4415
  134SAPE     N14432   0.656   1.589  10.859 -0.3624 -0.6354  0.2592
  134SAPE   HN114433   0.583   1.652  10.896 -0.9929 -1.8008  1.0451
  134SAPE   HN214434   0.606   1.497  10.862  1.4231 -1.6506 -0.5021
  134SAPE   HN314435   0.731   1.579  10.930 -2.0157 -2.6862  1.7804
  134SAPE   C1214436   0.709   1.624  10.720 -0.0071  0.1651  0.0644
  134SAPE  H12A14437   0.718   1.532  10.658  0.9478 -0.3612  0.9804
  134SAPE  H12B14438   0.809   1.673  10.714 -0.0008  0.2299  0.6820
  134SAPE   C1114439   0.603   1.705  10.641 -0.3047  0.0949  0.3868
  134SAPE  H11A14440   0.640   1.739  10.542 -0.5077 -0.2842  0.1785
  134SAPE  H11B14441   0.591   1.796  10.702 -0.0942  0.3165  0.1002
  134SAPE     P14442   0.372   1.711  10.541 -0.3853 -0.5398 -0.2227
  134SAPE   O1314443   0.249   1.637  10.562  0.0924  0.2368 -0.1347
  134SAPE   O1414444   0.367   1.859  10.573  0.2611 -0.4154 -0.4065
  134SAPE   O1214445   0.484   1.637  10.624  0.2296 -0.8558  0.0277
  134SAPE   O1114446   0.410   1.696  10.385 -0.1685 -0.2620 -0.0633
  134SAPE    C114447   0.444   1.557  10.345 -0.4358 -0.3107  0.8092
  134SAPE    HA14448   0.539   1.517  10.387 -1.1864 -2.9244  0.1283
  134SAPE    HB14449   0.363   1.487  10.374 -0.3546 -0.9669 -0.4911
  134SAPE    C214450   0.466   1.546  10.189 -0.2185  0.1053 -0.1818
  134SAPE    HS14451   0.577   1.541  10.181 -0.0405 -0.5653  2.4665
  134SAPE   O2114452   0.419   1.655  10.112  0.1221 -0.1696  0.2371
  134SAPE   C2114453   0.288   1.670  10.087 -0.5369  0.3819 -0.8063
  134SAPE   O2214454   0.201   1.617  10.153  0.2095 -0.0141  0.0559
  134SAPE   C2214455   0.255   1.777   9.980 -0.6872  0.2542  0.4935
  134SAPE   H2R14456   0.173   1.845  10.013 -0.4203  0.3678  0.9293
  134SAPE   H2S14457   0.344   1.841   9.962 -1.3479  0.9033 -0.5414
  134SAPE    C314458   0.411   1.408  10.135 -0.6308 -0.5951 -0.6070
  134SAPE    HX14459   0.315   1.398  10.191  0.3015 -2.4330  0.6919
  134SAPE    HY14460   0.474   1.320  10.159 -1.6992 -0.7260  1.8408
  134SAPE   O3114461   0.376   1.409   9.997 -0.8858  0.3273  0.0872
  134SAPE   C3114462   0.477   1.390   9.910 -0.8465  0.4119 -0.5835
  134SAPE   O3214463   0.591   1.373   9.947  0.2124  0.6529  0.2938
  134SAPE   C3214464   0.435   1.389   9.767 -0.0343  0.9905 -0.0101
  134SAPE   H2X14465   0.358   1.469   9.760 -0.9474  0.3922  2.4899
  134SAPE   H2Y14466   0.381   1.293   9.755  0.0384  1.1457 -1.7162
  134SAPE   C2314467   0.192   1.718   9.858  0.3964 -0.4615  0.7316
  134SAPE   H3R14468   0.102   1.657   9.878 -1.0629  1.3406 -0.1944
  134SAPE   H3S14469   0.268   1.652   9.812 -0.0262 -0.1073 -0.4887
  134SAPE   C2414470   0.154   1.825   9.746  0.1786 -0.5375  0.0514
  134SAPE   H4R14471   0.235   1.897   9.723 -0.5196 -0.1609 -1.2877
  134SAPE   H4S14472   0.073   1.889   9.787 -0.7301 -1.3815 -0.4037
  134SAPE   C2514473   0.111   1.759   9.618  0.3410  0.1630 -0.3747
  134SAPE   H5R14474   0.020   1.699   9.633 -0.5423  1.9319  1.6260
  134SAPE   C2614475   0.163   1.780   9.491 -0.4873  0.1119  0.5607
  134SAPE   H6R14476   0.112   1.733   9.406  2.4014  0.4232 -1.3874
  134SAPE   C2714477   0.267   1.874   9.450  0.0972 -0.2013  0.5205
  134SAPE   H7R14478   0.322   1.919   9.535  0.8185  0.4275 -0.2666
  134SAPE   H7S14479   0.213   1.956   9.397 -0.0863 -0.3777  0.4350
  134SAPE   C2814480   0.367   1.799   9.361 -0.8467 -0.2701 -0.3869
  134SAPE   H8R14481   0.418   1.714   9.410  0.0176  0.5704  0.1933
  134SAPE   C2914482   0.422   1.831   9.244  0.4363  0.0433  0.5678
  134SAPE   H9R14483   0.503   1.768   9.204  1.7367  2.2524 -0.3878
  134SAPE  C21014484   0.389   1.954   9.159 -0.5433 -0.1972  0.0795
  134SAPE  H10R14485   0.313   2.012   9.216 -0.3524 -0.7514  0.9026
  134SAPE  H10S14486   0.343   1.917   9.065 -1.2247 -1.3919  0.8680
  134SAPE  C21114487   0.494   2.054   9.113 -0.7209 -0.2133 -0.0626
  134SAPE  H11R14488   0.587   2.065   9.172 -1.1776  0.9138  0.4635
  134SAPE  C21214489   0.477   2.134   9.006  0.7189 -0.1100  0.6202
  134SAPE  H12R14490   0.561   2.200   8.980 -0.9397  1.4781 -0.8082
  134SAPE  C21314491   0.352   2.145   8.927  0.5451 -0.0546  0.1445
  134SAPE  H13R14492   0.274   2.183   8.997  0.3083  1.6372 -1.0061
  134SAPE  H13S14493   0.316   2.043   8.901  0.4452  0.3358 -1.3226
  134SAPE  C21414494   0.364   2.238   8.805  0.3094  0.3262 -0.2821
  134SAPE  H14R14495   0.369   2.348   8.817  3.4810 -0.0091  2.1865
  134SAPE  C21514496   0.371   2.191   8.678  0.3411  0.4023 -1.1684
  134SAPE  H15R14497   0.387   2.255   8.590  0.6157 -0.2202 -1.5808
  134SAPE  C21614498   0.365   2.057   8.620  0.4783 -0.2814 -0.1079
  134SAPE  H16R14499   0.342   2.056   8.511 -0.7857 -0.9021  0.1509
  134SAPE  H16S14500   0.286   2.000   8.674 -1.1210  1.3548 -0.6667
  134SAPE  C21714501   0.501   1.987   8.639 -0.1669  0.3330 -0.8911
  134SAPE  H17R14502   0.541   2.002   8.742  0.3236 -0.7287 -0.9170
  134SAPE  H17S14503   0.572   2.012   8.557 -0.0313 -1.2258 -1.2662
  134SAPE  C21814504   0.484   1.832   8.632  0.0986  0.0797  0.7487
  134SAPE  H18R14505   0.449   1.806   8.529  1.6716  1.5494 -0.1890
  134SAPE  H18S14506   0.404   1.811   8.706  0.8306  0.6554  1.7159
  134SAPE  C21914507   0.602   1.745   8.672 -0.0416  0.2462  0.1211
  134SAPE  H19R14508   0.661   1.803   8.746 -0.0835  0.0853  0.2830
  134SAPE  H19S14509   0.661   1.729   8.579  0.9415 -0.2391  0.8178
  134SAPE  C22014510   0.558   1.617   8.739 -0.6810  0.1285  0.3530
  134SAPE  H20R14511   0.493   1.556   8.673  1.5266 -0.4468 -1.3252
  134SAPE  H20S14512   0.489   1.635   8.825 -1.5291 -2.9405  0.3776
  134SAPE  H20T14513   0.645   1.557   8.773 -0.3840  0.1398 -0.3836
  134SAPE   C3314514   0.545   1.410   9.659  0.2827 -0.2232  0.2581
  134SAPE   H3X14515   0.633   1.344   9.671  0.2614  0.4469  5.2010
  134SAPE   H3Y14516   0.573   1.518   9.668  0.5913 -0.4183  1.8016
  134SAPE   C3414517   0.497   1.403   9.515  1.0412  0.3257 -0.7188
  134SAPE   H4X14518   0.408   1.469   9.516 -1.0504 -2.3962  1.5570
  134SAPE   H4Y14519   0.462   1.297   9.506  0.2045  0.6604 -1.6538
  134SAPE   C3514520   0.598   1.439   9.405  0.1537 -0.6324  0.2681
  134SAPE   H5X14521   0.693   1.382   9.423 -0.9813 -2.4222  0.7537
  134SAPE   H5Y14522   0.610   1.549   9.409 -0.9981 -0.5076  0.2434
  134SAPE   C3614523   0.561   1.395   9.265 -0.1257 -0.3331 -0.0855
  134SAPE   H6X14524   0.460   1.441   9.259 -0.3696 -0.8917 -0.2202
  134SAPE   H6Y14525   0.568   1.285   9.263 -1.0913 -0.3987 -0.2865
  134SAPE   C3714526   0.654   1.461   9.166 -0.5502 -0.4234  0.2991
  134SAPE   H7X14527   0.758   1.426   9.187 -0.3229  0.9125  1.4892
  134SAPE   H7Y14528   0.640   1.570   9.184  2.5251  0.5156 -2.4890
  134SAPE   C3814529   0.616   1.433   9.023  0.0482  0.1770  0.5778
  134SAPE   H8X14530   0.704   1.483   8.977  0.5734 -0.4293  0.9033
  134SAPE   H8Y14531   0.533   1.497   8.984  1.5558  1.1231 -1.1638
  134SAPE   C3914532   0.633   1.284   8.987 -0.7133 -0.0275  0.8758
  134SAPE   H9X14533   0.542   1.228   9.017 -0.3251 -1.1378  0.0038
  134SAPE   H9Y14534   0.721   1.246   9.042  0.3437  0.6451 -0.3442
  134SAPE  C31014535   0.663   1.259   8.840  0.8296 -0.8348  0.7340
  134SAPE  H10X14536   0.761   1.303   8.810 -0.5062  2.5060  0.9836
  134SAPE  H10Y14537   0.581   1.302   8.779 -1.8639 -1.4475  3.7946
  134SAPE  C31114538   0.678   1.105   8.805 -0.4612  0.3460  0.1200
  134SAPE  H11X14539   0.740   1.051   8.879 -1.4736  0.7111  1.2474
  134SAPE  H11Y14540   0.746   1.097   8.717  1.3317 -1.2526  1.6042
  134SAPE  C31214541   0.541   1.035   8.780  0.6023 -0.2674  0.1036
  134SAPE  H12X14542   0.488   1.094   8.702  2.6288 -1.0578 -1.9102
  134SAPE  H12Y14543   0.484   1.047   8.875  0.8373 -0.6082  0.2899
  134SAPE  C31314544   0.553   0.893   8.728 -0.0966  1.5856 -0.5184
  134SAPE  H13X14545   0.594   0.834   8.813 -0.1932  1.0361 -0.8502
  134SAPE  H13Y14546   0.623   0.891   8.642  0.6791 -0.9365  0.1245
  134SAPE  C31414547   0.408   0.840   8.697 -0.2407 -0.0027 -0.4224
  134SAPE  H14X14548   0.361   0.905   8.620 -0.7915  2.0104  1.5767
  134SAPE  H14Y14549   0.339   0.849   8.783 -0.0187 -1.6557 -0.0504
  134SAPE  C31514550   0.400   0.700   8.622 -0.3745 -0.4407 -0.3901
  134SAPE  H15X14551   0.461   0.720   8.531 -0.9942 -1.6092 -1.0742
  134SAPE  H15Y14552   0.296   0.670   8.600 -0.2245 -0.4268 -1.1292
  134SAPE  C31614553   0.473   0.584   8.694  0.2345  0.4894  0.4482
  134SAPE  H16X14554   0.404   0.501   8.722  0.1061  0.5941  0.4410
  134SAPE  H16Y14555   0.519   0.610   8.791 -0.5932 -2.1871  1.6139
  134SAPE  C31714556   0.591   0.522   8.611  0.7001 -0.2579  0.0855
  134SAPE  H17X14557   0.553   0.512   8.507 -4.5145  2.2698  1.5916
  134SAPE  H17Y14558   0.615   0.424   8.657 -0.2808 -0.2943  0.5179
  134SAPE  C31814559   0.715   0.618   8.629  0.1317  0.0043  0.2959
  134SAPE  H18X14560   0.806   0.573   8.585 -0.9062 -1.8184 -0.0044
  134SAPE  H18Y14561   0.730   0.656   8.733 -1.2899  0.0610  0.4888
  134SAPE  H18Z14562   0.694   0.708   8.567 -2.1189 -1.1657 -0.7198
  135SAPE     N14563   5.599   0.047  10.936  0.6485 -0.0680  0.0653
  135SAPE   HN114564   5.543   0.134  10.936 -0.0246 -0.4929  1.0792
  135SAPE   HN214565   5.606   0.007  11.032 -2.2248 -2.0651 -0.4967
  135SAPE   HN314566   5.690   0.058  10.887  0.3524  0.4583 -0.3617
  135SAPE   C1214567   5.531  -0.062  10.862 -0.8835 -0.4536 -0.2024
  135SAPE  H12A14568   5.436  -0.084  10.914 -0.5714  0.5952  0.8246
  135SAPE  H12B14569   5.596  -0.152  10.870 -0.9634 -0.3945  1.1420
  135SAPE   C1114570   5.519  -0.033  10.712 -0.4312  0.6286 -0.4399
  135SAPE  H11A14571   5.463   0.062  10.698 -1.0007  0.1010 -1.8514
  135SAPE  H11B14572   5.468  -0.122  10.668  0.9698 -0.0335 -0.7590
  135SAPE     P14573   5.710   0.099  10.588  0.3134  0.0942 -0.1224
  135SAPE   O1314574   5.667   0.224  10.661  0.4070  0.0695  0.0451
  135SAPE   O1414575   5.856   0.076  10.574 -0.2518 -0.1045  0.4602
  135SAPE   O1214576   5.648  -0.028  10.653 -0.3622  0.3536 -0.1808
  135SAPE   O1114577   5.646   0.102  10.447 -0.3802  0.4427  0.0479
  135SAPE    C114578   5.600  -0.008  10.368  0.2337  0.3118 -0.0852
  135SAPE    HA14579   5.535  -0.074  10.428 -1.5282  2.9382  0.9888
  135SAPE    HB14580   5.534   0.017  10.282 -1.0060  0.2901  0.8533
  135SAPE    C214581   5.724  -0.079  10.300  0.4522 -0.2648  0.2828
  135SAPE    HS14582   5.794  -0.096  10.384 -2.1508 -1.1478  2.3432
  135SAPE   O2114583   5.782   0.014  10.203  0.3936 -0.5695  0.2804
  135SAPE   C2114584   5.908  -0.029  10.162 -0.0104 -0.3044  1.2739
  135SAPE   O2214585   5.971  -0.118  10.218 -0.3274 -0.3468  0.5082
  135SAPE   C2214586   5.960   0.059  10.052 -0.2198  0.7534  0.1870
  135SAPE   H2R14587   5.877   0.071   9.979 -0.6121 -0.5498  0.4143
  135SAPE   H2S14588   5.981   0.160  10.095  2.1583  0.0642  0.7205
  135SAPE    C314589   5.683  -0.214  10.243 -0.2238  0.2863  0.6608
  135SAPE    HX14590   5.644  -0.271  10.330 -2.0633 -0.1290 -0.4052
  135SAPE    HY14591   5.771  -0.273  10.211 -0.9607  0.1278 -1.1149
  135SAPE   O3114592   5.588  -0.202  10.142 -0.3640  0.0466 -0.8526
  135SAPE   C3114593   5.619  -0.192  10.016 -0.4375  0.4416 -1.0073
  135SAPE   O3214594   5.724  -0.207   9.959 -0.2552 -0.6514 -0.2604
  135SAPE   C3214595   5.495  -0.154   9.936  0.3304 -0.2225  0.8402
  135SAPE   H2X14596   5.421  -0.091   9.990  0.8172  1.3517 -0.2873
  135SAPE   H2Y14597   5.456  -0.257   9.921  0.6969 -0.0967 -1.0425
  135SAPE   C2314598   6.083   0.006   9.967 -0.9305  0.1375 -0.5778
  135SAPE   H3R14599   6.071  -0.096   9.926  0.2642 -0.2948  0.1432
  135SAPE   H3S14600   6.165   0.008  10.041 -1.2395  2.5956 -0.2371
  135SAPE   C2414601   6.122   0.105   9.853 -0.1895 -0.0099 -0.0972
  135SAPE   H4R14602   6.134   0.201   9.908  1.0707  0.3106 -0.9310
  135SAPE   H4S14603   6.038   0.116   9.781  0.8386  0.8440 -1.1738
  135SAPE   C2514604   6.255   0.063   9.794  0.6867 -0.3428  0.2122
  135SAPE   H5R14605   6.342   0.074   9.860  1.2880 -1.2341 -0.4149
  135SAPE   C2614606   6.277   0.040   9.664 -0.2673 -0.1320 -0.2864
  135SAPE   H6R14607   6.375   0.007   9.628  0.5306  0.9460  0.8357
  135SAPE   C2714608   6.181   0.031   9.548 -0.2185  0.8377  0.4732
  135SAPE   H7R14609   6.243   0.042   9.456  1.9624 -1.1560  1.6679
  135SAPE   H7S14610   6.117   0.122   9.554 -0.2464  0.8793 -0.4302
  135SAPE   C2814611   6.086  -0.081   9.551  0.1355  0.0580  0.6972
  135SAPE   H8R14612   6.056  -0.100   9.655  0.2934 -1.2520  0.5152
  135SAPE   C2914613   6.046  -0.161   9.451 -0.1545 -0.6662  0.5808
  135SAPE   H9R14614   5.953  -0.219   9.461 -1.7544  1.6827 -0.1684
  135SAPE  C21014615   6.087  -0.150   9.308 -0.1386  0.3784  0.1408
  135SAPE  H10R14616   6.140  -0.055   9.286  2.3899 -0.6284  1.6634
  135SAPE  H10S14617   5.990  -0.140   9.254  0.7311  3.4760 -0.9376
  135SAPE  C21114618   6.171  -0.267   9.257  0.2543 -1.0990 -0.3163
  135SAPE  H11R14619   6.119  -0.344   9.198 -0.0484  0.0900 -1.6448
  135SAPE  C21214620   6.301  -0.280   9.277  0.1507 -0.2719  0.0963
  135SAPE  H12R14621   6.352  -0.369   9.236 -1.4538 -2.0699  1.8583
  135SAPE  C21314622   6.396  -0.191   9.347 -0.1019 -0.9911  0.5206
  135SAPE  H13R14623   6.487  -0.252   9.366  0.1014 -0.0371  2.7934
  135SAPE  H13S14624   6.357  -0.154   9.444 -0.7049  1.2468 -0.5414
  135SAPE  C21414625   6.433  -0.060   9.277 -0.0237 -1.0414  0.5217
  135SAPE  H14R14626   6.352   0.014   9.277  2.0363  1.2705  1.8811
  135SAPE  C21514627   6.550  -0.041   9.209 -0.2168 -0.1696 -0.2630
  135SAPE  H15R14628   6.555   0.060   9.166  1.2020 -0.0751  0.1162
  135SAPE  C21614629   6.669  -0.130   9.193 -0.3432 -0.5506  0.3613
  135SAPE  H16R14630   6.651  -0.225   9.249 -0.0096 -0.1849  1.0922
  135SAPE  H16S14631   6.755  -0.083   9.245 -1.3952  0.9171  0.7933
  135SAPE  C21714632   6.718  -0.138   9.049  0.4914 -0.3456  0.2569
  135SAPE  H17R14633   6.817  -0.187   9.047 -0.5743 -2.5038 -1.0339
  135SAPE  H17S14634   6.737  -0.033   9.017 -0.2400 -1.0462 -2.5824
  135SAPE  C21814635   6.626  -0.201   8.941 -0.3950 -0.9974 -0.2267
  135SAPE  H18R14636   6.523  -0.165   8.960  0.4386  1.7448 -0.7017
  135SAPE  H18S14637   6.633  -0.312   8.951 -1.4420 -1.0580 -0.0387
  135SAPE  C21914638   6.669  -0.165   8.800  0.1360 -0.2321 -1.2546
  135SAPE  H19R14639   6.687  -0.055   8.795 -0.2631  0.0086  1.8834
  135SAPE  H19S14640   6.583  -0.190   8.734  0.2373 -1.6987 -0.8413
  135SAPE  C22014641   6.796  -0.233   8.742 -0.1874  0.2960  0.2413
  135SAPE  H20R14642   6.882  -0.173   8.777 -0.6263  0.6571  0.7015
  135SAPE  H20S14643   6.802  -0.227   8.631  0.4064  2.3551  0.3759
  135SAPE  H20T14644   6.797  -0.336   8.784  2.5076  0.2989  0.2709
  135SAPE   C3314645   5.535  -0.102   9.793  0.8037 -0.3690 -0.4074
  135SAPE   H3X14646   5.441  -0.120   9.738 -0.7149  0.3543  1.8931
  135SAPE   H3Y14647   5.617  -0.167   9.755  3.7825  3.0433 -0.1268
  135SAPE   C3414648   5.569   0.043   9.778  0.1695  0.2857 -0.1459
  135SAPE   H4X14649   5.613   0.075   9.875 -0.7666 -0.0444  0.4050
  135SAPE   H4Y14650   5.473   0.096   9.759  1.3189  1.9650 -1.3992
  135SAPE   C3514651   5.645   0.071   9.642 -0.3498  0.0236 -0.2537
  135SAPE   H5X14652   5.750   0.040   9.662 -1.0704 -2.3539  0.0061
  135SAPE   H5Y14653   5.643   0.181   9.625  1.5675  0.2620  0.9255
  135SAPE   C3614654   5.588  -0.015   9.522 -0.0732  0.8145  0.2627
  135SAPE   H6X14655   5.479   0.006   9.528 -0.5397 -1.6343  1.1440
  135SAPE   H6Y14656   5.594  -0.125   9.534  0.0777  0.6056 -1.5622
  135SAPE   C3714657   5.644   0.018   9.386  0.6672 -0.4330 -0.4191
  135SAPE   H7X14658   5.740  -0.036   9.368 -1.1803 -4.0711  0.3025
  135SAPE   H7Y14659   5.669   0.127   9.386 -0.6335 -0.1315 -0.8474
  135SAPE   C3814660   5.553  -0.030   9.274 -0.1501  0.2831  0.6529
  135SAPE   H8X14661   5.448   0.003   9.287 -0.3496  0.1046 -0.4372
  135SAPE   H8Y14662   5.541  -0.140   9.280 -0.3070  0.1343 -1.7031
  135SAPE   C3914663   5.617   0.000   9.135  0.0535 -0.1351 -0.0293
  135SAPE   H9X14664   5.712  -0.055   9.123 -0.3537 -1.1217  1.2528
  135SAPE   H9Y14665   5.641   0.108   9.121  2.2080 -0.5111  0.6892
  135SAPE  C31014666   5.530  -0.039   9.008  1.0043  0.0713  0.2692
  135SAPE  H10X14667   5.434   0.017   9.020 -0.3783 -2.2806  0.4932
  135SAPE  H10Y14668   5.500  -0.146   9.019  0.9349  0.2194  1.6193
  135SAPE  C31114669   5.604  -0.026   8.874  0.6227 -0.1863  0.8647
  135SAPE  H11X14670   5.673  -0.112   8.863  0.1618 -0.4514  0.0113
  135SAPE  H11Y14671   5.672   0.061   8.880 -2.7167  2.3706  3.6514
  135SAPE  C31214672   5.499  -0.014   8.764 -0.1533  0.0243 -0.1655
  135SAPE  H12X14673   5.439   0.079   8.768 -2.6224 -1.5210  0.0573
  135SAPE  H12Y14674   5.433  -0.104   8.773  0.0115  0.0033  0.9831
  135SAPE  C31314675   5.563  -0.020   8.621  0.2412  0.3744  0.4239
  135SAPE  H13X14676   5.612  -0.120   8.615  0.6733  0.4207  2.8783
  135SAPE  H13Y14677   5.645   0.054   8.610  1.8126 -1.1172  1.7298
  135SAPE  C31414678   5.462  -0.008   8.506  0.2763 -0.9115  0.4013
  135SAPE  H14X14679   5.510   0.011   8.408 -1.4687  2.6246  0.1271
  135SAPE  H14Y14680   5.411   0.088   8.532 -0.2357 -0.7005 -1.3354
  135SAPE  C31514681   5.343  -0.110   8.509 -0.4492 -0.0477 -0.2649
  135SAPE  H15X14682   5.262  -0.060   8.451 -0.0430  1.1752  0.1878
  135SAPE  H15Y14683   5.304  -0.146   8.606 -1.4987  0.5406 -0.4518
  135SAPE  C31614684   5.386  -0.230   8.432 -0.1058  0.1847 -0.6082
  135SAPE  H16X14685   5.462  -0.289   8.487  0.0172 -0.9614 -1.9858
  135SAPE  H16Y14686   5.437  -0.190   8.342  1.2126 -0.2865 -0.0916
  135SAPE  C31714687   5.275  -0.330   8.397 -0.7384  0.7024  0.4015
  135SAPE  H17X14688   5.197  -0.279   8.336 -1.0826 -0.7104 -0.3648
  135SAPE  H17Y14689   5.229  -0.377   8.486 -1.3028  1.1978  0.3731
  135SAPE  C31814690   5.334  -0.445   8.311  0.2564  0.2186  0.4774
  135SAPE  H18X14691   5.373  -0.398   8.218 -3.3687  1.7545 -0.3783
  135SAPE  H18Y14692   5.263  -0.523   8.275 -0.9049  0.3370  2.4280
  135SAPE  H18Z14693   5.414  -0.498   8.367  2.5300  1.8626 -1.1345
  136SAPE     N14694   1.974   5.859  10.994 -0.0048  0.1486  0.6249
  136SAPE   HN114695   1.974   5.907  11.086  1.7713 -0.4376  0.9448
  136SAPE   HN214696   1.897   5.789  10.997  1.9776 -2.0379  4.0315
  136SAPE   HN314697   2.064   5.808  10.989  0.2371  0.3372  2.5849
  136SAPE   C1214698   1.963   5.962  10.884  0.0654  0.0410 -0.1263
  136SAPE  H12A14699   1.902   6.044  10.928 -2.7350 -1.3859 -1.1937
  136SAPE  H12B14700   1.903   5.911  10.806  1.0069 -1.1517 -0.0796
  136SAPE   C1114701   2.107   6.005  10.838  0.2609  0.7179  0.3895
  136SAPE  H11A14702   2.102   6.066  10.745 -0.8172  0.1474  0.0601
  136SAPE  H11B14703   2.160   5.917  10.794  1.6987  0.7853  1.9544
  136SAPE     P14704   2.153   6.219  10.966 -0.3258  0.3783 -0.2693
  136SAPE   O1314705   2.008   6.248  10.956  0.5303  0.2846  0.0599
  136SAPE   O1414706   2.229   6.269  11.083 -0.0510 -0.1493  0.3059
  136SAPE   O1214707   2.180   6.063  10.948 -0.3810  0.5810  0.0900
  136SAPE   O1114708   2.228   6.266  10.834 -0.4185  0.2346 -0.3101
  136SAPE    C114709   2.361   6.300  10.851  0.0901  0.3905 -0.1073
  136SAPE    HA14710   2.373   6.405  10.885  1.7997  1.1814 -2.9619
  136SAPE    HB14711   2.405   6.223  10.918  1.2257  1.0829 -0.0547
  136SAPE    C214712   2.443   6.310  10.722  0.0519  0.4634  0.0204
  136SAPE    HS14713   2.549   6.324  10.750 -0.3238  0.4480  1.5253
  136SAPE   O2114714   2.409   6.430  10.646 -0.1515 -0.1581  0.3150
  136SAPE   C2114715   2.505   6.481  10.575 -0.6692 -0.2531  0.3207
  136SAPE   O2214716   2.618   6.433  10.570 -0.4767  0.2652  0.1856
  136SAPE   C2214717   2.453   6.603  10.508 -0.0697  0.2769 -0.2687
  136SAPE   H2R14718   2.343   6.594  10.497 -0.1241 -2.2434  1.8331
  136SAPE   H2S14719   2.475   6.685  10.579  1.0031  1.0799 -1.5212
  136SAPE    C314720   2.436   6.175  10.639 -0.2959 -0.3014  0.4808
  136SAPE    HX14721   2.331   6.138  10.633 -0.0597 -0.6972 -1.6473
  136SAPE    HY14722   2.486   6.093  10.695  0.6978 -1.2129 -1.6919
  136SAPE   O3114723   2.496   6.185  10.505 -0.6978  0.2671  0.3381
  136SAPE   C3114724   2.410   6.219  10.413 -0.6850  0.0503  0.2999
  136SAPE   O3214725   2.298   6.258  10.430  0.0165  0.6449  0.1374
  136SAPE   C3214726   2.481   6.229  10.276  0.2892 -0.1865 -0.7645
  136SAPE   H2X14727   2.493   6.124  10.240  1.6494 -0.6778  1.0705
  136SAPE   H2Y14728   2.577   6.278  10.303 -0.0016  0.0510 -0.1603
  136SAPE   C2314729   2.523   6.630  10.377  0.1819 -0.5915  0.3434
  136SAPE   H3R14730   2.516   6.543  10.308  0.1327  0.0580 -0.4717
  136SAPE   H3S14731   2.631   6.653  10.384 -0.1561  0.6305  1.7333
  136SAPE   C2414732   2.449   6.744  10.300 -0.0995 -0.6393 -0.5541
  136SAPE   H4R14733   2.345   6.706  10.299 -0.1496 -0.5386  0.4598
  136SAPE   H4S14734   2.487   6.752  10.196 -2.3267 -3.1574 -1.6270
  136SAPE   C2514735   2.461   6.882  10.364  0.2023 -0.5009 -0.3854
  136SAPE   H5R14736   2.413   6.890  10.462  0.2165  1.4229 -0.5206
  136SAPE   C2614737   2.516   6.992  10.307  0.3669  0.5221 -0.3585
  136SAPE   H6R14738   2.535   7.084  10.364 -3.9255  0.5574  1.2355
  136SAPE   C2714739   2.564   7.009  10.162  0.3181 -0.2753  0.3977
  136SAPE   H7R14740   2.548   6.910  10.116 -1.0834  0.0496  0.1574
  136SAPE   H7S14741   2.673   7.030  10.151  0.6065 -1.3000  1.1407
  136SAPE   C2814742   2.463   7.102  10.096 -0.3558  0.4878 -0.3952
  136SAPE   H8R14743   2.371   7.119  10.153  0.0145  1.2234 -0.0106
  136SAPE   C2914744   2.475   7.158   9.975  0.5684  0.2345 -0.6718
  136SAPE   H9R14745   2.391   7.219   9.936  0.7348  1.3130  0.6302
  136SAPE  C21014746   2.599   7.152   9.891  0.0908  0.3158  0.5212
  136SAPE  H10R14747   2.606   7.047   9.856  1.4684  0.8109 -0.7645
  136SAPE  H10S14748   2.693   7.164   9.949  1.4788  0.1705 -1.6299
  136SAPE  C21114749   2.592   7.245   9.770  0.0465  1.4428 -0.4235
  136SAPE  H11R14750   2.641   7.343   9.775 -0.5337  1.7200 -0.0446
  136SAPE  C21214751   2.523   7.215   9.660  0.5238  0.3545  0.0797
  136SAPE  H12R14752   2.532   7.289   9.580 -0.2074  0.0052 -0.3321
  136SAPE  C21314753   2.455   7.086   9.635 -0.3919 -0.6860 -0.2360
  136SAPE  H13R14754   2.467   7.010   9.715  0.0329 -3.7039 -3.0297
  136SAPE  H13S14755   2.509   7.039   9.550  0.5990  3.5090 -2.0874
  136SAPE  C21414756   2.309   7.093   9.606  0.1336 -0.3723  0.3606
  136SAPE  H14R14757   2.236   7.094   9.689 -0.0265 -0.9309  0.2278
  136SAPE  C21514758   2.251   7.107   9.482 -0.3211 -0.1733  0.5668
  136SAPE  H15R14759   2.142   7.118   9.472 -0.7965 -2.8970  2.2598
  136SAPE  C21614760   2.320   7.125   9.354  0.2836 -0.5748 -0.2510
  136SAPE  H16R14761   2.416   7.069   9.346 -0.3676 -2.1226  2.1952
  136SAPE  H16S14762   2.336   7.231   9.328  2.2951 -0.8650 -0.2753
  136SAPE  C21714763   2.231   7.057   9.246 -0.9853 -0.1077  0.8276
  136SAPE  H17R14764   2.134   7.112   9.243 -2.0846 -1.9918  0.6334
  136SAPE  H17S14765   2.205   6.952   9.273 -0.2885 -0.6210 -0.4502
  136SAPE  C21814766   2.278   7.040   9.099 -0.3778 -0.1378 -0.2740
  136SAPE  H18R14767   2.378   6.993   9.095 -1.3016 -2.0804 -1.4714
  136SAPE  H18S14768   2.285   7.147   9.070  0.0836  0.3699  1.6182
  136SAPE  C21914769   2.165   6.981   9.017  0.3440 -0.1214  0.1523
  136SAPE  H19R14770   2.072   7.038   9.035  1.1850  0.0313  4.4986
  136SAPE  H19S14771   2.142   6.876   9.048 -0.5122  0.7670  2.6175
  136SAPE  C22014772   2.198   6.983   8.870 -0.0189  0.2339  0.6825
  136SAPE  H20R14773   2.108   6.950   8.814  1.8710 -1.0984 -1.6883
  136SAPE  H20S14774   2.269   6.900   8.850 -0.0951  0.0462  1.1636
  136SAPE  H20T14775   2.238   7.074   8.821  0.6000 -0.3479  0.1034
  136SAPE   C3314776   2.422   6.315  10.161  0.0715  0.0585 -0.8353
  136SAPE   H3X14777   2.404   6.420  10.193  0.0169  0.0449 -0.8214
  136SAPE   H3Y14778   2.322   6.272  10.137 -0.1911 -0.9599  1.8109
  136SAPE   C3414779   2.520   6.309  10.040  0.0803 -0.5017  0.2349
  136SAPE   H4X14780   2.530   6.202  10.012  0.0268 -1.2987  3.0241
  136SAPE   H4Y14781   2.620   6.345  10.071  0.0505 -0.2429  0.0316
  136SAPE   C3514782   2.477   6.386   9.917 -0.4304  0.4854 -0.4446
  136SAPE   H5X14783   2.474   6.487   9.964 -0.1411  0.4090 -0.2603
  136SAPE   H5Y14784   2.377   6.350   9.887  0.1041 -0.7294 -0.7729
  136SAPE   C3614785   2.577   6.383   9.797 -0.1532  0.3272  0.5063
  136SAPE   H6X14786   2.672   6.423   9.838 -0.5985  0.8307  1.0452
  136SAPE   H6Y14787   2.549   6.459   9.721  1.1886  0.2439 -0.0905
  136SAPE   C3714788   2.585   6.254   9.714  0.3413  0.0382  0.0967
  136SAPE   H7X14789   2.483   6.222   9.684  0.7915 -0.9480 -0.4307
  136SAPE   H7Y14790   2.626   6.169   9.773 -0.2577 -1.0639 -1.0520
  136SAPE   C3814791   2.677   6.259   9.595  0.4233  0.2921 -0.1734
  136SAPE   H8X14792   2.767   6.314   9.629  0.3420  0.0611  0.4292
  136SAPE   H8Y14793   2.640   6.325   9.514 -3.3269  0.0563  1.2541
  136SAPE   C3914794   2.709   6.120   9.540  0.2822 -0.3069 -0.4317
  136SAPE   H9X14795   2.785   6.070   9.603  1.1858  0.8672 -0.5862
  136SAPE   H9Y14796   2.763   6.135   9.445 -2.9085  1.2786 -2.0928
  136SAPE  C31014797   2.592   6.030   9.513 -0.0239 -0.8995 -0.5904
  136SAPE  H10X14798   2.505   6.089   9.476  0.1640 -0.6622 -0.6581
  136SAPE  H10Y14799   2.553   5.975   9.601 -1.9231 -3.2667 -2.7985
  136SAPE  C31114800   2.640   5.918   9.414  0.4809 -0.2786  0.2358
  136SAPE  H11X14801   2.728   5.869   9.459  0.1435 -0.9219  0.1991
  136SAPE  H11Y14802   2.678   5.963   9.320  1.1721 -1.0420  0.1448
  136SAPE  C31214803   2.526   5.820   9.390  0.2089  0.4286 -0.0299
  136SAPE  H12X14804   2.436   5.881   9.365  2.2135  2.9270 -1.3118
  136SAPE  H12Y14805   2.514   5.773   9.490  0.5482  2.7838  1.1390
  136SAPE  C31314806   2.568   5.707   9.292  0.2509 -0.0146  0.2654
  136SAPE  H13X14807   2.503   5.618   9.292  1.9933 -1.3167  1.0430
  136SAPE  H13Y14808   2.671   5.665   9.301 -0.0025 -0.9685 -1.1896
  136SAPE  C31414809   2.569   5.762   9.146 -0.0124 -0.6102  0.1369
  136SAPE  H14X14810   2.627   5.698   9.076  1.3214  0.6949  0.0257
  136SAPE  H14Y14811   2.622   5.859   9.140 -1.3679  0.1105 -0.2791
  136SAPE  C31514812   2.438   5.781   9.074 -0.2113 -0.1853 -0.1135
  136SAPE  H15X14813   2.377   5.867   9.110 -0.5946 -0.7029  0.4774
  136SAPE  H15Y14814   2.377   5.689   9.086 -1.2034  0.1774 -2.1601
  136SAPE  C31614815   2.456   5.802   8.920  0.1083 -0.6468 -0.9099
  136SAPE  H16X14816   2.515   5.720   8.873 -1.4372 -2.1504 -0.2518
  136SAPE  H16Y14817   2.510   5.895   8.891  0.0812 -0.1859  0.5096
  136SAPE  C31714818   2.318   5.824   8.866  0.6900  0.3806  0.0600
  136SAPE  H17X14819   2.267   5.913   8.910 -0.1300 -0.4095  0.7342
  136SAPE  H17Y14820   2.240   5.747   8.883 -1.2050  2.1056 -0.5878
  136SAPE  C31814821   2.317   5.849   8.715 -0.5481 -0.6467  0.2532
  136SAPE  H18X14822   2.336   5.957   8.703  2.1933 -1.3750 -2.7522
  136SAPE  H18Y14823   2.215   5.826   8.676 -1.6563  0.1970  2.5743
  136SAPE  H18Z14824   2.391   5.785   8.662 -0.6124  0.4172 -1.1498
  137SAPE     N14825   6.572   2.706  11.164  0.3993  0.2523  0.2523
  137SAPE   HN114826   6.516   2.700  11.077  4.7105  0.7096 -2.7127
  137SAPE   HN214827   6.495   2.729  11.231 -0.6554 -1.1712 -0.4466
  137SAPE   HN314828   6.633   2.790  11.153  1.1040 -0.3662 -0.6198
  137SAPE   C1214829   6.652   2.586  11.212 -0.1794 -0.3805  0.1325
  137SAPE  H12A14830   6.576   2.512  11.245  0.1840 -0.8063  0.0093
  137SAPE  H12B14831   6.715   2.617  11.298  1.0083  2.1920 -1.5784
  137SAPE   C1114832   6.734   2.554  11.088  0.3093  0.1750 -0.2076
  137SAPE  H11A14833   6.665   2.522  11.006  0.6369  1.7960 -1.1292
  137SAPE  H11B14834   6.775   2.453  11.112  1.5010  1.5487  4.0297
  137SAPE     P14835   6.937   2.627  10.953 -0.4219  0.0042 -0.0081
  137SAPE   O1314836   7.013   2.746  10.913  0.0098  0.3611 -0.2742
  137SAPE   O1414837   7.008   2.504  10.989 -0.3027 -0.3147 -0.4961
  137SAPE   O1214838   6.827   2.659  11.058  0.2567 -0.6204 -0.2066
  137SAPE   O1114839   6.853   2.586  10.831  0.5950 -0.0955  0.1760
  137SAPE    C114840   6.762   2.682  10.760  0.3999  0.4222  0.1393
  137SAPE    HA14841   6.657   2.648  10.753  0.4053  0.7166 -1.7186
  137SAPE    HB14842   6.777   2.787  10.794  0.1507 -0.1647  2.1032
  137SAPE    C214843   6.796   2.683  10.604 -0.0416  0.4612  0.2167
  137SAPE    HS14844   6.742   2.770  10.561 -0.0065 -0.7554 -2.3778
  137SAPE   O2114845   6.755   2.557  10.549  0.3936  0.1121 -0.1969
  137SAPE   C2114846   6.740   2.561  10.421  0.4130  0.7827  0.3930
  137SAPE   O2214847   6.730   2.656  10.348  0.6973 -0.1648  0.5043
  137SAPE   C2214848   6.726   2.416  10.374 -0.1969 -0.1820  0.4750
  137SAPE   H2R14849   6.826   2.369  10.379 -0.6152 -1.1405 -0.2263
  137SAPE   H2S14850   6.674   2.353  10.449  0.6853 -1.4572  0.0219
  137SAPE    C314851   6.951   2.702  10.584 -0.0205  0.1821  0.0340
  137SAPE    HX14852   7.006   2.616  10.629 -0.2601  0.8344  1.6321
  137SAPE    HY14853   6.983   2.783  10.653  1.1330 -0.5825  0.4104
  137SAPE   O3114854   7.003   2.724  10.455 -0.4102 -0.7049 -0.0514
  137SAPE   C3114855   6.987   2.841  10.398  0.2284  0.3739 -0.0169
  137SAPE   O3214856   6.924   2.934  10.453  0.2159  0.2055  0.6747
  137SAPE   C3214857   7.037   2.848  10.253 -0.0653  0.2336 -0.8231
  137SAPE   H2X14858   6.978   2.777  10.191  0.0861 -0.1147 -0.5653
  137SAPE   H2Y14859   7.138   2.802  10.258 -0.5833 -0.7159  1.3703
  137SAPE   C2314860   6.661   2.411  10.239 -0.8034  0.3433 -0.1698
  137SAPE   H3R14861   6.706   2.322  10.191 -0.4961  0.2304  0.3185
  137SAPE   H3S14862   6.702   2.498  10.182 -0.2745  0.2124  0.0111
  137SAPE   C2414863   6.504   2.430  10.241  0.4307  0.8769 -0.3836
  137SAPE   H4R14864   6.484   2.534  10.277  2.5402  0.3734  2.4285
  137SAPE   H4S14865   6.488   2.353  10.319 -0.8754 -2.6005 -3.9558
  137SAPE   C2514866   6.435   2.389  10.119 -0.1637  0.5304 -0.0161
  137SAPE   H5R14867   6.385   2.292  10.131  0.9923  0.0546  1.1888
  137SAPE   C2614868   6.441   2.443   9.997 -0.6589 -0.5218  0.0561
  137SAPE   H6R14869   6.376   2.396   9.921 -1.3155 -0.1662  0.3943
  137SAPE   C2714870   6.519   2.572   9.965  0.3545 -0.2150  0.8585
  137SAPE   H7R14871   6.586   2.613  10.044  0.3288  0.7230  0.3915
  137SAPE   H7S14872   6.443   2.648   9.940 -0.4856 -1.5991 -0.9205
  137SAPE   C2814873   6.620   2.545   9.854 -0.0889 -0.5293  0.3655
  137SAPE   H8R14874   6.710   2.487   9.878  0.4991 -0.0972 -0.7280
  137SAPE   C2914875   6.597   2.581   9.724 -0.5538  0.2251 -0.3464
  137SAPE   H9R14876   6.665   2.534   9.652 -1.3202 -0.5425 -0.5798
  137SAPE  C21014877   6.481   2.651   9.665 -0.5694  0.1465  0.0203
  137SAPE  H10R14878   6.393   2.651   9.733 -0.1883  1.8594  0.5312
  137SAPE  H10S14879   6.454   2.590   9.576 -3.9064 -0.6945  1.5379
  137SAPE  C21114880   6.510   2.797   9.627  0.5612 -0.1683  0.6593
  137SAPE  H11R14881   6.516   2.862   9.715 -0.0945  0.3669  0.3190
  137SAPE  C21214882   6.512   2.854   9.505  1.0921  0.4681  0.0598
  137SAPE  H12R14883   6.532   2.962   9.493 -0.7636  0.8565  0.2969
  137SAPE  C21314884   6.501   2.784   9.371  0.2128 -0.0864  0.5739
  137SAPE  H13R14885   6.531   2.860   9.297  3.1296 -1.0303  0.7180
  137SAPE  H13S14886   6.391   2.777   9.361  0.4596 -1.0314 -1.8636
  137SAPE  C21414887   6.596   2.671   9.363  0.2109 -0.0451 -0.3048
  137SAPE  H14R14888   6.691   2.705   9.407 -1.1321  1.9857  1.1156
  137SAPE  C21514889   6.582   2.546   9.322 -0.0054 -0.3907  0.0458
  137SAPE  H15R14890   6.668   2.477   9.317  0.1599 -0.2461  0.8262
  137SAPE  C21614891   6.448   2.489   9.274  0.2508 -0.0064 -0.2777
  137SAPE  H16R14892   6.385   2.566   9.225  0.7734  0.0976 -0.7960
  137SAPE  H16S14893   6.389   2.457   9.362  0.3931  1.9214  0.5373
  137SAPE  C21714894   6.475   2.383   9.169  0.2711 -0.7924  0.1952
  137SAPE  H17R14895   6.521   2.295   9.219 -1.0608 -0.6835  1.6400
  137SAPE  H17S14896   6.545   2.414   9.088  0.9878  1.4515  1.6430
  137SAPE  C21814897   6.349   2.316   9.109  0.2702 -0.5517 -0.4817
  137SAPE  H18R14898   6.288   2.395   9.061 -0.1482  0.9583  2.4328
  137SAPE  H18S14899   6.287   2.256   9.179  2.2664  2.0707  3.7434
  137SAPE  C21914900   6.384   2.213   8.996 -0.3391  0.1341 -0.0500
  137SAPE  H19R14901   6.429   2.126   9.048  0.6557  0.6911  0.0357
  137SAPE  H19S14902   6.471   2.257   8.943 -1.4897  0.8327 -1.3929
  137SAPE  C22014903   6.264   2.198   8.902  0.3435 -0.6346 -0.1047
  137SAPE  H20R14904   6.290   2.152   8.804  2.5314  0.7462 -0.2151
  137SAPE  H20S14905   6.215   2.295   8.880  0.8439 -0.0230  1.3773
  137SAPE  H20T14906   6.191   2.125   8.943  0.8021 -1.0722 -0.0425
  137SAPE   C3314907   7.028   2.982  10.175  0.2253  0.2871  0.1081
  137SAPE   H3X14908   7.101   3.055  10.216 -0.7121  1.6460 -0.6223
  137SAPE   H3Y14909   6.919   2.999  10.187  0.1231  0.1634 -0.6125
  137SAPE   C3414910   7.066   2.958  10.025  0.4174  0.5173 -0.1436
  137SAPE   H4X14911   7.095   2.854   9.998  1.8363  0.6633  0.7868
  137SAPE   H4Y14912   7.157   3.019  10.004  1.7466 -0.9884  1.0692
  137SAPE   C3514913   6.947   2.992   9.930  0.6775  0.3028 -0.9319
  137SAPE   H5X14914   6.901   3.089   9.960  0.7987 -0.1914  0.9121
  137SAPE   H5Y14915   6.872   2.911   9.946 -1.0680  1.8367 -1.1932
  137SAPE   C3614916   6.987   3.007   9.785 -0.2232 -0.3096 -0.3865
  137SAPE   H6X14917   7.016   2.907   9.746 -2.2047 -1.2897  0.5296
  137SAPE   H6Y14918   7.070   3.079   9.773  0.0802 -0.0937  2.6078
  137SAPE   C3714919   6.881   3.057   9.700  0.6553 -0.4022 -0.6760
  137SAPE   H7X14920   6.862   3.162   9.729 -1.8544 -1.5005  1.8848
  137SAPE   H7Y14921   6.789   2.995   9.706 -0.2108  1.0274  1.1153
  137SAPE   C3814922   6.925   3.074   9.549  0.0756  0.2406 -0.5023
  137SAPE   H8X14923   6.975   2.981   9.517 -1.6187 -0.6099 -0.7244
  137SAPE   H8Y14924   7.000   3.156   9.545  0.2834  0.0609 -0.2957
  137SAPE   C3914925   6.811   3.108   9.449  0.4620  0.7471  0.1843
  137SAPE   H9X14926   6.739   3.181   9.492 -1.4607  0.2521 -2.0936
  137SAPE   H9Y14927   6.752   3.016   9.429  1.0663  0.4801 -0.4063
  137SAPE  C31014928   6.849   3.161   9.312  0.2409  0.2892 -0.8278
  137SAPE  H10X14929   6.933   3.107   9.263 -1.2795 -1.5917 -1.3992
  137SAPE  H10Y14930   6.866   3.270   9.300 -0.8734  0.7271  1.3233
  137SAPE  C31114931   6.741   3.124   9.208  0.2694  0.0828  0.2193
  137SAPE  H11X14932   6.646   3.171   9.240  0.4780  0.2602  0.5830
  137SAPE  H11Y14933   6.729   3.013   9.204  1.6347 -0.0103 -2.6475
  137SAPE  C31214934   6.767   3.174   9.058 -0.3708 -0.0070 -0.4283
  137SAPE  H12X14935   6.701   3.124   8.985  0.5951 -0.9659 -0.6603
  137SAPE  H12Y14936   6.874   3.154   9.034 -0.4822 -3.5431  1.7318
  137SAPE  C31314937   6.740   3.322   9.038  0.4927 -0.1242  0.2431
  137SAPE  H13X14938   6.683   3.372   9.119 -1.2973 -1.8133  0.0777
  137SAPE  H13Y14939   6.685   3.345   8.945 -0.9418 -0.5436  0.9627
  137SAPE  C31414940   6.869   3.402   9.028 -0.0668 -0.0719  0.2539
  137SAPE  H14X14941   6.939   3.359   8.955 -0.2760 -1.7099  1.0032
  137SAPE  H14Y14942   6.911   3.380   9.129  1.5576 -0.0419 -0.4044
  137SAPE  C31514943   6.861   3.551   8.998  0.6981 -0.1585  0.1022
  137SAPE  H15X14944   6.966   3.582   9.013 -0.2387  3.2591  0.0471
  137SAPE  H15Y14945   6.788   3.592   9.071  1.4874 -0.7524  1.2367
  137SAPE  C31614946   6.809   3.566   8.853  0.9462  0.3820  0.3706
  137SAPE  H16X14947   6.701   3.540   8.852  0.7160  1.3168 -0.5514
  137SAPE  H16Y14948   6.862   3.488   8.796  0.6310 -0.6654  1.4976
  137SAPE  C31714949   6.818   3.711   8.803  0.4151  0.4237  0.4135
  137SAPE  H17X14950   6.920   3.747   8.830  0.5954  1.0419 -1.0188
  137SAPE  H17Y14951   6.744   3.778   8.850 -0.5673  0.8134 -1.6101
  137SAPE  C31814952   6.809   3.728   8.652  0.0589 -0.0626 -0.0870
  137SAPE  H18X14953   6.887   3.677   8.592 -0.3486  0.4928 -1.0828
  137SAPE  H18Y14954   6.822   3.836   8.630 -1.4807 -0.2823 -2.1297
  137SAPE  H18Z14955   6.715   3.685   8.610 -0.8406  2.8659 -1.1827
  138SAPE     N14956   4.330   4.246  10.821  0.4631 -0.2048 -0.0176
  138SAPE   HN114957   4.385   4.193  10.750  1.9815  2.5214 -0.9308
  138SAPE   HN214958   4.317   4.187  10.906  1.5962  0.3611  0.5507
  138SAPE   HN314959   4.236   4.265  10.779  0.3579 -0.9982 -0.1515
  138SAPE   C1214960   4.402   4.377  10.854 -0.0526 -0.4282  0.8136
  138SAPE  H12A14961   4.505   4.345  10.883  1.0804  1.6278 -0.8140
  138SAPE  H12B14962   4.349   4.435  10.933 -0.5328  2.4373 -1.5371
  138SAPE   C1114963   4.415   4.467  10.726 -0.0151 -0.1866  0.0697
  138SAPE  H11A14964   4.454   4.417  10.635  1.6108  0.6978  0.2625
  138SAPE  H11B14965   4.497   4.535  10.756 -0.6476  0.4874  0.2695
  138SAPE     P14966   4.167   4.486  10.623  0.0916 -0.0414  0.4907
  138SAPE   O1314967   4.137   4.356  10.690  0.2555 -0.3221 -0.4901
  138SAPE   O1414968   4.062   4.590  10.616  0.0831  0.8768  0.2949
  138SAPE   O1214969   4.303   4.540  10.694 -0.0484  0.3923  0.0159
  138SAPE   O1114970   4.210   4.463  10.475  0.4081 -0.5725  0.2625
  138SAPE    C114971   4.131   4.398  10.380 -0.1540  0.3258  0.2048
  138SAPE    HA14972   4.025   4.375  10.403 -0.1604 -1.1609 -1.1686
  138SAPE    HB14973   4.139   4.446  10.280  1.2470  0.9542  0.6081
  138SAPE    C214974   4.204   4.266  10.351  0.3219  0.0043 -0.0647
  138SAPE    HS14975   4.200   4.222  10.453 -2.2178  2.5400  0.9664
  138SAPE   O2114976   4.342   4.294  10.310 -0.7376 -0.1509 -0.5913
  138SAPE   C2114977   4.417   4.197  10.321  0.9547 -1.2296  0.0342
  138SAPE   O2214978   4.384   4.085  10.363  0.5827 -0.3606  0.4763
  138SAPE   C2214979   4.564   4.233  10.276  0.6397  0.4812 -0.2897
  138SAPE   H2R14980   4.570   4.340  10.303 -3.0147  0.2432  1.7277
  138SAPE   H2S14981   4.631   4.169  10.337  1.5571  1.2640 -0.4685
  138SAPE    C314982   4.121   4.165  10.267 -0.2252  0.1923 -0.1480
  138SAPE    HX14983   4.024   4.157  10.319 -0.0739 -3.0938 -0.2645
  138SAPE    HY14984   4.157   4.059  10.266 -0.2936  0.1739 -1.9689
  138SAPE   O3114985   4.083   4.211  10.139 -0.4151  0.2843  0.2707
  138SAPE   C3114986   4.169   4.187  10.038  0.1048 -0.2779 -0.1591
  138SAPE   O3214987   4.280   4.140  10.055 -0.6034 -0.2532 -0.2022
  138SAPE   C3214988   4.097   4.188   9.913  0.1558  0.1367  0.0636
  138SAPE   H2X14989   3.991   4.221   9.924  0.4106  0.9514  0.1094
  138SAPE   H2Y14990   4.082   4.080   9.892 -0.2938 -0.0048  1.0659
  138SAPE   C2314991   4.586   4.199  10.126 -0.3440  0.0135  0.1340
  138SAPE   H3R14992   4.543   4.274  10.057  0.5826  1.7447  1.4037
  138SAPE   H3S14993   4.524   4.111  10.099  0.0408  0.8452 -3.7489
  138SAPE   C2414994   4.728   4.165  10.080  0.3418 -0.4422 -0.0438
  138SAPE   H4R14995   4.725   4.114   9.981 -0.2164 -0.9627  0.2384
  138SAPE   H4S14996   4.754   4.085  10.153 -2.0999 -1.0734  0.1983
  138SAPE   C2514997   4.820   4.287  10.061 -0.2741 -0.3207  0.4511
  138SAPE   H5R14998   4.862   4.320  10.157  1.4007  1.6005 -0.9124
  138SAPE   C2614999   4.843   4.365   9.955  0.0192 -0.3107  0.4271
  138SAPE   H6R15000   4.913   4.449   9.970  1.4355 -1.2446 -0.8125
  138SAPE   C2715001   4.791   4.352   9.817 -0.0783 -0.2783  0.5497
  138SAPE   H7R15002   4.768   4.456   9.785 -1.4892 -1.3169 -1.9255
  138SAPE   H7S15003   4.695   4.297   9.812 -0.4485  0.4052  0.1153
  138SAPE   C2815004   4.891   4.291   9.715 -0.1124  0.4224  0.2577
  138SAPE   H8R15005   4.906   4.182   9.727  3.3127  0.8093 -0.2195
  138SAPE   C2915006   4.947   4.352   9.614 -0.2241  0.5502  0.7186
  138SAPE   H9R15007   4.998   4.296   9.534 -1.4927 -0.4872  0.6289
  138SAPE  C21015008   4.932   4.489   9.563  0.1124 -0.6028  0.7237
  138SAPE  H10R15009   4.985   4.559   9.632  0.1557  1.6998 -1.5630
  138SAPE  H10S15010   4.827   4.523   9.576 -0.4659 -2.3433  0.7901
  138SAPE  C21115011   4.963   4.513   9.416  0.2006  0.3958  1.0940
  138SAPE  H11R15012   5.054   4.570   9.395 -0.0566  0.8574  1.2299
  138SAPE  C21215013   4.873   4.482   9.320  0.6939  0.7930 -0.0945
  138SAPE  H12R15014   4.910   4.488   9.216  0.6451 -3.2874 -0.4121
  138SAPE  C21315015   4.737   4.420   9.333  0.0399 -0.2993  0.1039
  138SAPE  H13R15016   4.726   4.374   9.433 -2.8604  0.7039  0.2897
  138SAPE  H13S15017   4.737   4.331   9.267 -0.0922 -0.3354  0.1531
  138SAPE  C21415018   4.620   4.511   9.315 -0.4117 -0.3307  0.4064
  138SAPE  H14R15019   4.613   4.592   9.389  1.6411  0.6895 -0.4719
  138SAPE  C21515020   4.533   4.508   9.210  0.0696  0.2739  0.1307
  138SAPE  H15R15021   4.441   4.568   9.211 -1.2231 -1.4914 -3.1940
  138SAPE  C21615022   4.531   4.414   9.099  0.4064  0.0315 -0.1033
  138SAPE  H16R15023   4.425   4.385   9.083  0.6253 -0.5641 -0.5002
  138SAPE  H16S15024   4.589   4.322   9.120  1.8238  1.2673  1.6157
  138SAPE  C21715025   4.574   4.477   8.953  0.2282  0.3702 -0.4362
  138SAPE  H17R15026   4.560   4.392   8.884 -0.6920 -0.1849  0.4172
  138SAPE  H17S15027   4.682   4.501   8.964  0.6626 -2.4612  2.4105
  138SAPE  C21815028   4.488   4.596   8.912 -0.0007  0.2343 -0.0427
  138SAPE  H18R15029   4.478   4.674   8.990 -2.3146  0.0979 -0.1440
  138SAPE  H18S15030   4.384   4.558   8.897  0.6187 -0.5566 -2.7375
  138SAPE  C21915031   4.545   4.658   8.781 -0.1869 -0.4254  0.8279
  138SAPE  H19R15032   4.655   4.656   8.794 -0.5304  0.3034  4.1857
  138SAPE  H19S15033   4.508   4.762   8.770 -0.5754 -0.6457 -0.0157
  138SAPE  C22015034   4.511   4.583   8.652 -0.2636 -0.3316 -0.0119
  138SAPE  H20R15035   4.575   4.493   8.639  0.8846  0.6540 -1.2991
  138SAPE  H20S15036   4.537   4.640   8.560 -0.1317 -1.0555 -0.4276
  138SAPE  H20T15037   4.402   4.558   8.647 -0.2339 -0.6715  0.9562
  138SAPE   C3315038   4.160   4.265   9.792 -0.4001 -0.7354  0.5848
  138SAPE   H3X15039   4.253   4.213   9.760 -1.3033 -1.6277 -0.6543
  138SAPE   H3Y15040   4.197   4.362   9.833 -2.3013  0.0086  0.5885
  138SAPE   C3415041   4.058   4.279   9.677  0.5835 -0.0066  0.2038
  138SAPE   H4X15042   3.960   4.298   9.727  1.3956  0.8680  1.4903
  138SAPE   H4Y15043   4.057   4.181   9.625  0.3119  0.2559 -0.2924
  138SAPE   C3515044   4.079   4.396   9.586  0.2394  0.0365 -0.4135
  138SAPE   H5X15045   4.059   4.492   9.638 -0.2495  0.0590 -0.6340
  138SAPE   H5Y15046   4.002   4.399   9.506 -1.3600  3.5214  1.1531
  138SAPE   C3615047   4.224   4.402   9.525 -0.5635 -0.0945 -0.5685
  138SAPE   H6X15048   4.302   4.389   9.603 -0.6975 -0.8001 -0.5425
  138SAPE   H6Y15049   4.240   4.502   9.479  1.5813 -0.0821  0.1302
  138SAPE   C3715050   4.254   4.299   9.418  0.7668 -0.2715  0.3628
  138SAPE   H7X15051   4.265   4.199   9.466 -0.1061 -2.5974 -4.0472
  138SAPE   H7Y15052   4.345   4.317   9.357 -1.6063 -0.8213 -3.5129
  138SAPE   C3815053   4.145   4.266   9.312 -0.1427  0.3163 -0.5488
  138SAPE   H8X15054   4.095   4.356   9.270 -3.7316 -0.6122  1.5206
  138SAPE   H8Y15055   4.065   4.212   9.367  0.3741 -0.4585 -0.5578
  138SAPE   C3915056   4.206   4.189   9.190  0.3539  0.2603  0.7405
  138SAPE   H9X15057   4.252   4.092   9.215 -0.6367  0.0511  1.8068
  138SAPE   H9Y15058   4.287   4.260   9.161 -0.8028  1.4317  0.2823
  138SAPE  C31015059   4.103   4.164   9.073  0.2460  0.0749  0.5448
  138SAPE  H10X15060   4.026   4.242   9.061  2.3113  2.3150  1.5905
  138SAPE  H10Y15061   4.040   4.073   9.089  1.0741 -0.7103 -0.5682
  138SAPE  C31115062   4.167   4.143   8.938  0.0531 -1.3420  0.1189
  138SAPE  H11X15063   4.260   4.081   8.940  1.2487  0.4407  1.0818
  138SAPE  H11Y15064   4.194   4.245   8.906  3.4894 -2.4655 -0.7898
  138SAPE  C31215065   4.073   4.088   8.821  0.5196  0.1674 -1.4629
  138SAPE  H12X15066   4.128   4.100   8.725 -0.2458  2.5633 -1.6165
  138SAPE  H12Y15067   3.976   4.141   8.812 -1.7805 -3.2154  2.0102
  138SAPE  C31315068   4.034   3.943   8.845 -0.6926 -0.4304  0.1252
  138SAPE  H13X15069   4.012   3.943   8.954 -0.7626  1.2645  0.1349
  138SAPE  H13Y15070   4.103   3.860   8.821 -1.5029 -0.6481 -1.4782
  138SAPE  C31415071   3.906   3.895   8.761  0.1336 -0.8445  0.1814
  138SAPE  H14X15072   3.930   3.885   8.653  2.0474  0.0379  0.4953
  138SAPE  H14Y15073   3.829   3.973   8.780 -0.4360 -1.3964  0.1338
  138SAPE  C31515074   3.853   3.766   8.813 -0.3130 -0.1456 -0.3027
  138SAPE  H15X15075   3.806   3.808   8.904  1.9671  2.2074 -0.1406
  138SAPE  H15Y15076   3.927   3.691   8.848  1.4761  1.9504  0.5238
  138SAPE  C31615077   3.744   3.706   8.725  0.6164  0.3288 -0.1326
  138SAPE  H16X15078   3.687   3.797   8.697  2.3774  1.6312  0.4321
  138SAPE  H16Y15079   3.676   3.643   8.786  2.6797 -1.3505  0.4731
  138SAPE  C31715080   3.793   3.629   8.599  0.0381 -0.2907  0.1416
  138SAPE  H17X15081   3.856   3.546   8.637 -0.1023 -0.4679 -0.0171
  138SAPE  H17Y15082   3.861   3.695   8.540 -1.7361  0.2938 -1.2979
  138SAPE  C31815083   3.683   3.588   8.506  0.3843  0.0395 -0.0501
  138SAPE  H18X15084   3.614   3.526   8.565 -1.9340  1.1389 -1.5428
  138SAPE  H18Y15085   3.716   3.523   8.422 -1.7332  0.4908 -1.2597
  138SAPE  H18Z15086   3.626   3.668   8.455 -0.6488 -1.4601 -1.2888
  139SAPE     N15087   2.628   2.050  10.682 -0.3291 -0.0922  0.0261
  139SAPE   HN115088   2.542   2.046  10.740 -1.6071 -3.0622 -1.9419
  139SAPE   HN215089   2.622   1.970  10.616 -0.5381  0.2256 -0.3459
  139SAPE   HN315090   2.717   2.038  10.735 -0.9996 -3.0138  0.5791
  139SAPE   C1215091   2.645   2.184  10.617  0.0825  0.1762 -0.1270
  139SAPE  H12A15092   2.593   2.267  10.671  1.9876  0.4428  1.3499
  139SAPE  H12B15093   2.605   2.199  10.514 -0.5874  2.1609  0.3870
  139SAPE   C1115094   2.788   2.228  10.623 -0.4177  0.8044 -0.4172
  139SAPE  H11A15095   2.791   2.339  10.614 -1.8938  0.7101 -2.3204
  139SAPE  H11B15096   2.835   2.190  10.530  1.2063  0.3298  0.5702
  139SAPE     P15097   3.005   2.219  10.778  0.1298  0.3727 -0.1588
  139SAPE   O1315098   3.005   2.297  10.899 -0.1341  0.1740  0.4864
  139SAPE   O1415099   3.089   2.095  10.781 -0.4917 -0.2542  0.4716
  139SAPE   O1215100   2.865   2.186  10.731  0.0462  0.1622  0.0119
  139SAPE   O1115101   3.043   2.314  10.655 -0.5406 -0.0645  0.4514
  139SAPE    C115102   3.094   2.272  10.536  0.7037 -0.4286  0.0088
  139SAPE    HA15103   3.103   2.162  10.519 -1.5848 -0.7788  0.9098
  139SAPE    HB15104   3.022   2.298  10.455  0.7939 -0.9480 -0.2412
  139SAPE    C215105   3.231   2.341  10.507 -0.1459  0.0606 -0.6130
  139SAPE    HS15106   3.279   2.336  10.606 -2.6781 -1.6368  0.5893
  139SAPE   O2115107   3.203   2.478  10.474 -0.1583  0.0036  0.4903
  139SAPE   C2115108   3.313   2.556  10.467 -0.1308 -0.6176  0.4185
  139SAPE   O2215109   3.425   2.521  10.499 -0.3610  0.6772  0.5798
  139SAPE   C2215110   3.280   2.700  10.442 -0.3054  0.0457  0.1061
  139SAPE   H2R15111   3.250   2.731  10.544  1.1952  1.7853  0.0330
  139SAPE   H2S15112   3.371   2.759  10.421  0.8403 -1.8563 -0.4077
  139SAPE    C315113   3.320   2.264  10.411  0.1917  0.1585  0.3679
  139SAPE    HX15114   3.422   2.296  10.441  1.4777 -2.4181 -1.0670
  139SAPE    HY15115   3.303   2.304  10.308  0.8187 -0.3106  0.0793
  139SAPE   O3115116   3.311   2.121  10.418  0.2890  0.0602 -0.1151
  139SAPE   C3115117   3.425   2.056  10.385 -0.0043 -0.0268  0.1815
  139SAPE   O3215118   3.519   2.113  10.326 -0.2058  0.7825 -0.0658
  139SAPE   C3215119   3.429   1.911  10.415 -0.2225 -0.2695  0.1279
  139SAPE   H2X15120   3.329   1.863  10.414 -0.1538 -0.4029 -0.4264
  139SAPE   H2Y15121   3.469   1.907  10.519  0.7669  1.4854 -0.1629
  139SAPE   C2315122   3.172   2.722  10.333 -0.0840  0.1809 -0.0809
  139SAPE   H3R15123   3.076   2.671  10.353 -0.7560  1.5356  0.1448
  139SAPE   H3S15124   3.209   2.677  10.238  0.5726 -0.8907  0.6622
  139SAPE   C2415125   3.127   2.866  10.319 -0.0819  0.1774  0.4953
  139SAPE   H4R15126   3.217   2.919  10.282 -0.9850  1.8431  0.6494
  139SAPE   H4S15127   3.113   2.898  10.425 -0.0320  0.6500  0.3575
  139SAPE   C2515128   3.005   2.884  10.236  0.5584  0.2051  0.1503
  139SAPE   H5R15129   2.907   2.871  10.284  1.3934  0.1029  1.8670
  139SAPE   C2615130   3.005   2.900  10.102 -0.2131  0.0592  0.9352
  139SAPE   H6R15131   2.912   2.915  10.045 -0.1961 -1.0553  0.6014
  139SAPE   C2715132   3.131   2.905  10.010  0.3222  0.5959 -0.4879
  139SAPE   H7R15133   3.168   2.801   9.999 -0.4060  0.2996 -0.2271
  139SAPE   H7S15134   3.214   2.963  10.056  1.3874  1.3946 -3.3211
  139SAPE   C2815135   3.102   2.960   9.869  0.0123 -0.1400 -0.1764
  139SAPE   H8R15136   2.994   2.975   9.853 -0.1228  0.1250  0.9009
  139SAPE   C2915137   3.201   3.009   9.793  0.3514 -0.2833  0.9114
  139SAPE   H9R15138   3.172   3.039   9.692 -1.1025  0.1372  1.4400
  139SAPE  C21015139   3.350   3.006   9.820 -0.0811  0.2428  0.0791
  139SAPE  H10R15140   3.360   2.982   9.928 -1.5602  1.3911  0.4753
  139SAPE  H10S15141   3.396   3.107   9.819 -0.8373  0.6170  2.1005
  139SAPE  C21115142   3.436   2.917   9.735 -0.0471 -0.8373 -0.2316
  139SAPE  H11R15143   3.459   2.815   9.769 -1.2669 -0.8871  0.5015
  139SAPE  C21215144   3.474   2.956   9.611  0.0515  0.1180  0.6882
  139SAPE  H12R15145   3.531   2.889   9.545  0.9199  2.4185 -0.9544
  139SAPE  C21315146   3.448   3.083   9.538 -0.1596  0.1038  0.2132
  139SAPE  H13R15147   3.510   3.093   9.446  0.2596  0.7871  0.5657
  139SAPE  H13S15148   3.476   3.166   9.605 -0.0677  0.7654 -0.6393
  139SAPE  C21415149   3.307   3.108   9.485  0.0627 -0.3018 -0.1805
  139SAPE  H14R15150   3.264   3.011   9.456  3.6288 -1.8220 -0.6284
  139SAPE  C21515151   3.240   3.221   9.484  0.9321  0.5531 -0.9669
  139SAPE  H15R15152   3.138   3.224   9.441  1.2000  2.2871 -1.5245
  139SAPE  C21615153   3.288   3.358   9.529  0.4296  0.5008  0.0868
  139SAPE  H16R15154   3.300   3.421   9.438 -1.8845 -1.1801 -1.4588
  139SAPE  H16S15155   3.385   3.356   9.583 -0.4959 -2.0780  1.7388
  139SAPE  C21715156   3.200   3.423   9.632 -0.0260 -0.6568  0.4853
  139SAPE  H17R15157   3.110   3.464   9.580  1.0803  0.4131 -0.6443
  139SAPE  H17S15158   3.249   3.518   9.664  0.3542 -0.7482  0.1821
  139SAPE  C21815159   3.157   3.337   9.752  0.5064  0.3907  0.1971
  139SAPE  H18R15160   3.238   3.269   9.787  2.0438  1.4867 -1.1780
  139SAPE  H18S15161   3.063   3.283   9.724  1.9272 -1.7009 -0.6592
  139SAPE  C21915162   3.124   3.423   9.878  0.2867 -0.0631 -0.0858
  139SAPE  H19R15163   3.199   3.496   9.914 -3.5263  3.4561  1.2405
  139SAPE  H19S15164   3.103   3.354   9.962  1.0472  0.6885  0.7285
  139SAPE  C22015165   2.997   3.507   9.852 -0.5612  0.4744  0.2091
  139SAPE  H20R15166   2.945   3.523   9.949  1.2108  1.0716  1.1023
  139SAPE  H20S15167   2.935   3.443   9.786  0.4498 -1.2301  0.9079
  139SAPE  H20T15168   3.024   3.601   9.798 -2.0006  0.4263 -0.6191
  139SAPE   C3315169   3.524   1.836  10.317  0.2132 -0.4502 -0.3765
  139SAPE   H3X15170   3.626   1.870  10.346  0.1372  0.3469 -1.0404
  139SAPE   H3Y15171   3.502   1.876  10.216 -0.5842 -0.6482 -0.2810
  139SAPE   C3415172   3.512   1.684  10.317  0.5978 -0.0882 -0.4619
  139SAPE   H4X15173   3.405   1.663  10.294 -0.0212 -0.2615  2.3510
  139SAPE   H4Y15174   3.537   1.645  10.418 -0.0938 -0.1125 -0.2962
  139SAPE   C3515175   3.597   1.605  10.213  1.1357  0.5755 -0.3209
  139SAPE   H5X15176   3.574   1.498  10.226  0.8954  0.7516  0.8038
  139SAPE   H5Y15177   3.706   1.616  10.234  1.0298 -0.9821  1.1199
  139SAPE   C3615178   3.557   1.625  10.065  0.0349  0.3272  0.1440
  139SAPE   H6X15179   3.595   1.724  10.033 -1.2779  0.8835  0.2606
  139SAPE   H6Y15180   3.450   1.624  10.036 -0.1202  0.0899  0.7038
  139SAPE   C3715181   3.629   1.516   9.979 -0.3059 -0.6519  0.6309
  139SAPE   H7X15182   3.581   1.526   9.880  2.4603 -2.3448 -0.9392
  139SAPE   H7Y15183   3.604   1.416  10.021 -1.1965 -1.0073 -0.7117
  139SAPE   C3815184   3.780   1.539   9.969 -0.0421  0.0681  0.8187
  139SAPE   H8X15185   3.814   1.540  10.075 -0.3383  2.2355  0.9033
  139SAPE   H8Y15186   3.805   1.642   9.939 -1.5113  0.4421  0.8278
  139SAPE   C3915187   3.848   1.435   9.877 -0.8796  0.1437  0.8394
  139SAPE   H9X15188   3.822   1.330   9.904 -1.2493 -0.1820 -0.6925
  139SAPE   H9Y15189   3.958   1.428   9.889 -1.0984 -2.5501  1.7267
  139SAPE  C31015190   3.804   1.459   9.735 -0.2815  0.5071 -0.1623
  139SAPE  H10X15191   3.850   1.549   9.688  3.2951 -0.3042  1.5767
  139SAPE  H10Y15192   3.694   1.473   9.732 -0.2922  0.9206  1.7252
  139SAPE  C31115193   3.852   1.336   9.647 -0.0985 -0.1168 -0.3057
  139SAPE  H11X15194   3.795   1.242   9.661  2.6574 -1.5107  2.0566
  139SAPE  H11Y15195   3.960   1.317   9.663  0.1644  0.7155 -1.0383
  139SAPE  C31215196   3.862   1.378   9.496  0.6948 -0.3024  0.4983
  139SAPE  H12X15197   3.935   1.462   9.490  1.3376 -0.8634  0.4607
  139SAPE  H12Y15198   3.757   1.407   9.473 -0.0265 -2.3373  1.1037
  139SAPE  C31315199   3.908   1.271   9.396  0.1717 -0.1098 -0.6137
  139SAPE  H13X15200   3.866   1.169   9.412  2.2143 -0.6465  1.7694
  139SAPE  H13Y15201   4.016   1.250   9.413  0.1775 -0.7184 -1.3564
  139SAPE  C31415202   3.890   1.331   9.249 -0.1061 -0.7456 -0.6696
  139SAPE  H14X15203   3.947   1.425   9.234 -1.1011 -0.0900 -0.3135
  139SAPE  H14Y15204   3.783   1.358   9.240 -0.9470 -1.5913  4.8652
  139SAPE  C31515205   3.943   1.241   9.136  0.5948  0.7894 -0.2927
  139SAPE  H15X15206   3.901   1.138   9.133 -0.0842  1.0960 -1.6370
  139SAPE  H15Y15207   4.050   1.217   9.154  0.5536  1.4598  0.8684
  139SAPE  C31615208   3.941   1.304   9.003  0.7348  0.1898  0.0645
  139SAPE  H16X15209   3.965   1.413   9.003 -2.6205  0.9846  0.2399
  139SAPE  H16Y15210   4.021   1.254   8.945  0.0440 -0.9939  0.1224
  139SAPE  C31715211   3.807   1.288   8.933 -0.5872  0.1583  0.7938
  139SAPE  H17X15212   3.734   1.344   8.994  0.4550  0.0514  2.1841
  139SAPE  H17Y15213   3.781   1.180   8.923  1.5544 -0.1867 -1.5067
  139SAPE  C31815214   3.803   1.342   8.786 -0.3972 -0.6103  0.0995
  139SAPE  H18X15215   3.698   1.347   8.752 -0.6187  1.4463  0.9902
  139SAPE  H18Y15216   3.860   1.278   8.716  1.4394  2.9116 -1.7503
  139SAPE  H18Z15217   3.845   1.445   8.790  2.6607 -1.7121 -1.5981
  140SAPE     N15218   5.868   6.492  11.270 -0.1356  0.3599  0.2173
  140SAPE   HN115219   5.929   6.490  11.355  1.8754 -0.7979 -1.1943
  140SAPE   HN215220   5.780   6.543  11.293  0.2965  2.1587 -1.9701
  140SAPE   HN315221   5.846   6.396  11.236  0.2370 -0.3035  1.7887
  140SAPE   C1215222   5.944   6.596  11.180  0.7278 -0.3667 -0.2537
  140SAPE  H12A15223   6.052   6.573  11.174  0.2843 -2.1281 -2.4275
  140SAPE  H12B15224   5.946   6.686  11.245  0.0486 -1.4544  1.3263
  140SAPE   C1115225   5.879   6.620  11.043 -0.3180 -0.1070 -0.7680
  140SAPE  H11A15226   5.946   6.690  10.990 -0.6801 -0.6415 -1.9690
  140SAPE  H11B15227   5.783   6.675  11.054  0.3403  0.9404 -0.1973
  140SAPE     P15228   5.992   6.437  10.903  0.3553 -0.0796 -0.3693
  140SAPE   O1315229   6.057   6.542  10.826  0.3130  0.1451  0.8644
  140SAPE   O1415230   6.076   6.362  10.999  0.1898 -0.1264  0.1501
  140SAPE   O1215231   5.861   6.500  10.965 -0.0066 -0.1342 -0.1051
  140SAPE   O1115232   5.932   6.332  10.802  0.6048  0.1924 -0.3015
  140SAPE    C115233   5.807   6.369  10.735  0.7001  0.7280 -0.0538
  140SAPE    HA15234   5.722   6.335  10.798 -0.1066  0.8277 -1.0745
  140SAPE    HB15235   5.798   6.477  10.709  0.3728  0.8546  0.5484
  140SAPE    C215236   5.805   6.299  10.599  0.7132 -0.2320  0.7045
  140SAPE    HS15237   5.824   6.191  10.617  0.5974 -0.3875 -0.0675
  140SAPE   O2115238   5.911   6.360  10.523 -0.4611  0.5429  0.3708
  140SAPE   C2115239   5.984   6.275  10.454 -0.6758  0.5351  0.6884
  140SAPE   O2215240   5.994   6.154  10.467  0.1873  0.1416  0.1180
  140SAPE   C2215241   6.032   6.354  10.331  0.1444 -0.1526 -0.2727
  140SAPE   H2R15242   5.960   6.435  10.308  1.5506  0.6245 -2.0842
  140SAPE   H2S15243   6.135   6.388  10.353  0.0990 -1.3218  1.8938
  140SAPE    C315244   5.670   6.310  10.515 -0.0301  0.2910  0.1332
  140SAPE    HX15245   5.629   6.414  10.516 -1.5743 -0.2784 -1.1479
  140SAPE    HY15246   5.598   6.239  10.559  1.3250 -2.7447 -2.3609
  140SAPE   O3115247   5.691   6.270  10.378  0.2569  0.4943  0.2426
  140SAPE   C3115248   5.686   6.139  10.362  0.4646  0.1466 -0.1471
  140SAPE   O3215249   5.680   6.054  10.447 -0.4149  0.4023  0.5830
  140SAPE   C3215250   5.701   6.110  10.211 -1.0906  0.2004 -0.4318
  140SAPE   H2X15251   5.630   6.030  10.183 -1.3324  0.4193 -0.4494
  140SAPE   H2Y15252   5.806   6.078  10.192 -1.5059 -0.8082 -1.0490
  140SAPE   C2315253   6.054   6.257  10.210 -0.1884  0.4265 -0.4340
  140SAPE   H3R15254   5.956   6.212  10.183 -1.6393  3.0912  0.1421
  140SAPE   H3S15255   6.120   6.178  10.251  2.0465  2.0290 -0.8655
  140SAPE   C2415256   6.113   6.323  10.083 -0.0602  0.5188 -0.1810
  140SAPE   H4R15257   6.164   6.249  10.018  0.4590  1.3123 -0.6880
  140SAPE   H4S15258   6.200   6.386  10.110  0.8557 -1.1416  0.8115
  140SAPE   C2515259   6.006   6.408  10.013 -0.0324 -0.0048  0.5000
  140SAPE   H5R15260   5.937   6.461  10.080  1.1317  1.2804  0.7178
  140SAPE   C2615261   5.987   6.422   9.878 -0.1927 -0.7865  0.5377
  140SAPE   H6R15262   5.910   6.487   9.833  1.1022  1.4813  1.4814
  140SAPE   C2715263   6.070   6.358   9.767  1.0091 -0.0770 -0.2939
  140SAPE   H7R15264   6.009   6.342   9.675  1.1020 -1.8268 -0.0652
  140SAPE   H7S15265   6.097   6.255   9.798  1.7904  0.1143 -0.3294
  140SAPE   C2815266   6.194   6.429   9.725  0.2467 -0.0556 -0.2441
  140SAPE   H8R15267   6.201   6.534   9.758 -0.1810 -0.1742  0.2300
  140SAPE   C2915268   6.293   6.381   9.648  0.5890 -0.3615 -1.0241
  140SAPE   H9R15269   6.384   6.438   9.625 -0.6539  1.9615 -0.2640
  140SAPE  C21015270   6.287   6.240   9.589  0.4798  0.2413  0.0987
  140SAPE  H10R15271   6.191   6.228   9.535  0.9449 -3.4634 -0.0306
  140SAPE  H10S15272   6.277   6.168   9.673 -0.4105  1.5123  1.0897
  140SAPE  C21115273   6.409   6.180   9.515  0.1008  0.1044  0.0946
  140SAPE  H11R15274   6.408   6.167   9.405  2.9567 -0.2244  0.0479
  140SAPE  C21215275   6.535   6.157   9.568  0.4442  0.0409  0.0127
  140SAPE  H12R15276   6.615   6.113   9.506  0.2864  0.7072 -0.6656
  140SAPE  C21315277   6.568   6.175   9.712  0.2263  0.7070 -1.3080
  140SAPE  H13R15278   6.569   6.075   9.762  4.0306  0.6571 -1.3110
  140SAPE  H13S15279   6.495   6.240   9.765  0.7410  2.3950 -2.6294
  140SAPE  C21415280   6.706   6.224   9.738 -0.0702  0.3779  0.2926
  140SAPE  H14R15281   6.715   6.333   9.729 -1.6087  0.3814 -1.3475
  140SAPE  C21515282   6.823   6.157   9.761  0.0081 -0.1111  0.4047
  140SAPE  H15R15283   6.917   6.213   9.768  0.9326 -0.8786 -4.2064
  140SAPE  C21615284   6.833   6.008   9.775  0.0472  0.1875 -1.0560
  140SAPE  H16R15285   6.740   5.957   9.744  1.0119 -0.9850 -2.1002
  140SAPE  H16S15286   6.834   5.974   9.881 -1.7456  0.7573 -0.8498
  140SAPE  C21715287   6.962   5.944   9.717  0.3137  0.1726 -0.7439
  140SAPE  H17R15288   6.957   5.833   9.723  0.1395  0.1631 -1.0470
  140SAPE  H17S15289   7.060   5.980   9.754  0.4822 -0.1523 -0.8659
  140SAPE  C21815290   6.984   5.974   9.561 -0.3904 -0.2984 -0.6314
  140SAPE  H18R15291   7.079   5.927   9.527  0.2365 -2.6043  3.8819
  140SAPE  H18S15292   7.001   6.084   9.554 -0.4053 -0.0855  1.9395
  140SAPE  C21915293   6.868   5.932   9.472  0.2556 -0.2574  0.2222
  140SAPE  H19R15294   6.784   5.983   9.524  1.7448  0.4771  1.9869
  140SAPE  H19S15295   6.848   5.823   9.481 -1.5341  0.2165  2.4145
  140SAPE  C22015296   6.877   5.976   9.318 -0.4153 -0.1643 -0.3348
  140SAPE  H20R15297   6.777   5.944   9.281  0.3081 -0.1978 -2.3220
  140SAPE  H20S15298   6.962   5.931   9.262 -0.4848 -0.3672 -0.2774
  140SAPE  H20T15299   6.882   6.087   9.320  2.5040 -0.3016  2.2190
  140SAPE   C3315300   5.666   6.230  10.120 -0.1265 -0.2787  0.3000
  140SAPE   H3X15301   5.742   6.307  10.144  0.2009 -0.8702  1.2010
  140SAPE   H3Y15302   5.565   6.268  10.146 -0.0378  1.0952 -1.3057
  140SAPE   C3415303   5.668   6.186   9.978 -0.3375  0.3619  0.1646
  140SAPE   H4X15304   5.634   6.080   9.979 -1.0419  0.5684 -0.8477
  140SAPE   H4Y15305   5.773   6.193   9.943 -0.6225 -2.6521 -1.4703
  140SAPE   C3515306   5.575   6.268   9.880 -0.9485  0.7249 -0.8243
  140SAPE   H5X15307   5.610   6.372   9.864  0.0832  0.3363 -1.1720
  140SAPE   H5Y15308   5.469   6.264   9.912  0.3123 -0.7121  3.4168
  140SAPE   C3615309   5.572   6.213   9.731  0.3969  0.3893  0.0687
  140SAPE   H6X15310   5.493   6.135   9.726 -0.4869  1.2805  0.1841
  140SAPE   H6Y15311   5.667   6.162   9.703 -0.8977 -1.6263 -0.8000
  140SAPE   C3715312   5.536   6.317   9.621 -0.4441 -0.5018 -0.8228
  140SAPE   H7X15313   5.611   6.399   9.622 -1.1977  0.1981  0.0649
  140SAPE   H7Y15314   5.438   6.350   9.662  1.0150  3.0328  0.0507
  140SAPE   C3815315   5.515   6.260   9.483  0.6578 -0.1492 -0.0746
  140SAPE   H8X15316   5.444   6.176   9.498  0.5130  0.3685  2.1764
  140SAPE   H8Y15317   5.608   6.208   9.453 -0.3323 -1.3909 -1.0480
  140SAPE   C3915318   5.458   6.370   9.389  0.0323  0.6990  0.1955
  140SAPE   H9X15319   5.503   6.470   9.403 -0.4033  1.0200 -0.6439
  140SAPE   H9Y15320   5.348   6.372   9.403 -0.0301  0.6867 -0.2721
  140SAPE  C31015321   5.484   6.341   9.242  0.1548  0.1280 -0.1041
  140SAPE  H10X15322   5.416   6.406   9.182 -1.4013 -0.2838  1.1800
  140SAPE  H10Y15323   5.461   6.233   9.223  0.5135 -0.7903  4.2188
  140SAPE  C31115324   5.627   6.380   9.196 -0.0991 -0.3344  0.1628
  140SAPE  H11X15325   5.700   6.325   9.259  0.0671 -0.6641 -0.3187
  140SAPE  H11Y15326   5.642   6.489   9.212  0.1638  0.2402 -3.6473
  140SAPE  C31215327   5.655   6.356   9.047  0.0261  0.3233  0.7389
  140SAPE  H12X15328   5.605   6.425   8.976 -0.3063 -0.0288  0.6300
  140SAPE  H12Y15329   5.608   6.259   9.022 -0.1614  0.6653 -0.2519
  140SAPE  C31315330   5.806   6.340   9.016  0.2450  0.0747 -0.1010
  140SAPE  H13X15331   5.805   6.272   8.928 -3.4842 -0.1443  0.0293
  140SAPE  H13Y15332   5.850   6.283   9.100 -1.2983 -1.4916 -0.3135
  140SAPE  C31415333   5.881   6.468   8.988 -0.1464  0.2969  0.2823
  140SAPE  H14X15334   5.878   6.535   9.077 -2.2420 -1.3805  1.5334
  140SAPE  H14Y15335   5.834   6.525   8.905  2.1225  1.3744 -0.2812
  140SAPE  C31515336   6.017   6.453   8.932  0.1670 -0.2688  0.6994
  140SAPE  H15X15337   6.016   6.406   8.831  0.7618  1.3175 -0.0492
  140SAPE  H15Y15338   6.086   6.383   8.985 -1.6177 -4.3320 -2.0411
  140SAPE  C31615339   6.076   6.591   8.904  0.1878 -0.3797  0.0808
  140SAPE  H16X15340   6.077   6.641   9.003 -2.1889 -0.2675  0.0628
  140SAPE  H16Y15341   6.010   6.647   8.834 -0.6779 -2.5626 -0.8895
  140SAPE  C31715342   6.216   6.577   8.833  1.0513  0.1502  0.4337
  140SAPE  H17X15343   6.285   6.533   8.908 -0.8644 -0.2035  2.0565
  140SAPE  H17Y15344   6.258   6.679   8.822  0.0802  0.5895  0.7510
  140SAPE  C31815345   6.218   6.515   8.692 -0.3558  0.4091  0.2380
  140SAPE  H18X15346   6.210   6.599   8.620 -0.5334  0.2520  0.0736
  140SAPE  H18Y15347   6.144   6.434   8.674  1.8903 -1.4957 -0.6384
  140SAPE  H18Z15348   6.321   6.481   8.670  0.5019  2.2426  1.3137
  141SAPE     N15349   6.427   6.586  10.962  0.0671  0.0746 -0.2601
  141SAPE   HN115350   6.492   6.602  11.042 -0.6219  0.5019  0.2218
  141SAPE   HN215351   6.470   6.625  10.876 -1.8085  0.1021 -1.1924
  141SAPE   HN315352   6.338   6.635  10.983 -0.4768 -0.6623 -0.8198
  141SAPE   C1215353   6.396   6.443  10.940  0.2638  0.8493  0.3996
  141SAPE  H12A15354   6.329   6.435  10.851  2.9941 -1.6334 -1.5312
  141SAPE  H12B15355   6.330   6.409  11.023  0.0039 -2.4445 -1.0418
  141SAPE   C1115356   6.527   6.361  10.911 -0.2410  0.4818  0.1082
  141SAPE  H11A15357   6.499   6.255  10.890  0.2572  0.0915  1.3689
  141SAPE  H11B15358   6.597   6.367  10.997 -1.0467  0.3683  0.7765
  141SAPE     P15359   6.731   6.371  10.739 -0.2644 -0.2860 -0.2549
  141SAPE   O1315360   6.823   6.487  10.735  0.3330 -0.2893 -0.3010
  141SAPE   O1415361   6.776   6.255  10.821  0.5574  0.2043 -0.1625
  141SAPE   O1215362   6.590   6.419  10.797 -0.6636  0.3185 -0.3999
  141SAPE   O1115363   6.685   6.337  10.589 -0.4552  0.3178 -0.2563
  141SAPE    C115364   6.567   6.273  10.568 -0.9152  0.3576  0.4577
  141SAPE    HA15365   6.568   6.177  10.624  1.4070  0.2529  0.2665
  141SAPE    HB15366   6.486   6.338  10.607 -0.3775  0.4580  1.4093
  141SAPE    C215367   6.551   6.244  10.412  0.1965  0.0299  0.5245
  141SAPE    HS15368   6.645   6.195  10.381  0.9781  2.7785 -1.5802
  141SAPE   O2115369   6.515   6.363  10.333 -0.0293 -0.4053 -0.2494
  141SAPE   C2115370   6.573   6.377  10.218  1.0276  0.2718 -0.0753
  141SAPE   O2215371   6.642   6.286  10.172 -0.2752  0.1130  0.7579
  141SAPE   C2215372   6.525   6.501  10.141 -0.4259 -0.1453  0.2313
  141SAPE   H2R15373   6.419   6.520  10.170 -0.4581 -1.5948  1.1128
  141SAPE   H2S15374   6.593   6.582  10.176 -1.1617  0.2739  0.7137
  141SAPE    C315375   6.434   6.145  10.382  0.0171 -0.0807 -0.2229
  141SAPE    HX15376   6.346   6.205  10.414  0.4379  0.9837 -1.0575
  141SAPE    HY15377   6.443   6.064  10.458  3.1857  0.6507  0.2372
  141SAPE   O3115378   6.419   6.090  10.247 -0.2787  0.0271  0.0382
  141SAPE   C3115379   6.516   6.003  10.222  0.3794  0.6261  0.1119
  141SAPE   O3215380   6.596   5.961  10.307 -0.3238  0.0675  0.3364
  141SAPE   C3215381   6.514   5.960  10.076 -0.3419 -0.0678  0.0544
  141SAPE   H2X15382   6.617   5.933  10.045 -0.4431  0.8281 -1.1095
  141SAPE   H2Y15383   6.473   6.036  10.006  0.1027 -0.7204 -0.9350
  141SAPE   C2315384   6.526   6.478   9.992 -0.2938  0.2907 -0.4786
  141SAPE   H3R15385   6.444   6.407   9.972 -0.6032  0.5142 -0.0139
  141SAPE   H3S15386   6.617   6.423   9.959 -1.0263 -0.5716 -1.0745
  141SAPE   C2415387   6.496   6.613   9.916  0.1653  0.9435 -0.3358
  141SAPE   H4R15388   6.392   6.650   9.930  0.3315  0.3683  2.7749
  141SAPE   H4S15389   6.497   6.584   9.809  1.5382 -0.2032 -0.0341
  141SAPE   C2515390   6.573   6.727   9.962  0.3425  0.4197 -0.6346
  141SAPE   H5R15391   6.533   6.782  10.049  2.2205 -1.6484  1.6334
  141SAPE   C2615392   6.685   6.775   9.900 -0.4117 -0.3133  0.0993
  141SAPE   H6R15393   6.734   6.868   9.932 -1.9260  1.1577 -1.7282
  141SAPE   C2715394   6.747   6.718   9.775  0.2552  0.1814  0.5782
  141SAPE   H7R15395   6.766   6.609   9.783  2.1817  0.4488 -0.0123
  141SAPE   H7S15396   6.850   6.760   9.770  2.0895 -4.2883 -1.9935
  141SAPE   C2815397   6.673   6.742   9.644  0.0993 -0.8767 -0.3330
  141SAPE   H8R15398   6.613   6.656   9.613  2.2174 -2.3258 -0.5027
  141SAPE   C2915399   6.684   6.845   9.559  0.1810 -0.4226  0.3287
  141SAPE   H9R15400   6.627   6.828   9.466 -0.8550  0.0268  0.8856
  141SAPE  C21015401   6.766   6.967   9.569  0.4354 -0.0010 -0.1574
  141SAPE  H10R15402   6.873   6.948   9.596 -0.3505 -4.2319  0.4311
  141SAPE  H10S15403   6.722   7.019   9.656 -0.6627 -0.2856 -0.5291
  141SAPE  C21115404   6.760   7.044   9.443  0.0628 -0.1021 -0.3231
  141SAPE  H11R15405   6.655   7.051   9.411 -0.5896  1.7730  2.1793
  141SAPE  C21215406   6.855   7.104   9.370  0.3828  0.2963  0.4751
  141SAPE  H12R15407   6.832   7.154   9.275  0.2838 -1.2611 -0.3359
  141SAPE  C21315408   6.997   7.115   9.408 -0.7308 -0.2993 -0.2025
  141SAPE  H13R15409   7.062   7.039   9.360  0.6185  0.3851  0.4987
  141SAPE  H13S15410   7.009   7.092   9.516  1.3775  0.8951 -0.1588
  141SAPE  C21415411   7.053   7.260   9.379 -0.0089  0.0162  0.4561
  141SAPE  H14R15412   7.060   7.290   9.274  2.3328 -0.0325  0.5690
  141SAPE  C21515413   7.088   7.351   9.470  0.1244  0.3240 -0.0445
  141SAPE  H15R15414   7.105   7.451   9.427 -2.0268  0.5467 -0.4791
  141SAPE  C21615415   7.090   7.347   9.624  0.9876 -0.3799 -0.5159
  141SAPE  H16R15416   7.192   7.364   9.664  0.7786 -0.3284 -0.0070
  141SAPE  H16S15417   7.067   7.241   9.647  0.1458 -0.5785 -2.1522
  141SAPE  C21715418   6.976   7.425   9.691 -1.0451  0.7277  0.0141
  141SAPE  H17R15419   6.881   7.371   9.670  1.3338 -2.8488 -2.1290
  141SAPE  H17S15420   6.977   7.524   9.641  2.3447  0.7053 -0.0974
  141SAPE  C21815421   6.998   7.455   9.844  0.4648 -0.7243  0.8026
  141SAPE  H18R15422   6.936   7.545   9.866 -1.0187 -1.3583 -0.6982
  141SAPE  H18S15423   7.105   7.482   9.849  0.4839 -0.3151 -1.1912
  141SAPE  C21915424   6.969   7.340   9.939  0.4472 -0.2635  0.2654
  141SAPE  H19R15425   7.041   7.255   9.937 -1.6366 -2.1294  1.8682
  141SAPE  H19S15426   6.873   7.291   9.913  0.2849 -2.0055  3.8342
  141SAPE  C22015427   6.968   7.368  10.085 -0.0035 -0.4731 -0.1423
  141SAPE  H20R15428   6.887   7.437  10.118  1.8827  0.9566  1.6317
  141SAPE  H20S15429   7.069   7.399  10.120  2.1983 -2.8526 -4.0518
  141SAPE  H20T15430   6.952   7.281  10.152 -0.8902 -0.0962  0.1502
  141SAPE   C3315431   6.420   5.836  10.066 -1.4392 -0.2041 -0.5662
  141SAPE   H3X15432   6.321   5.852  10.113 -1.1485 -0.4361  0.1262
  141SAPE   H3Y15433   6.466   5.755  10.127 -1.1303 -0.5030 -1.1845
  141SAPE   C3415434   6.409   5.783   9.928  0.5179  0.1360  0.1155
  141SAPE   H4X15435   6.348   5.847   9.861 -2.0974 -0.5056  1.8266
  141SAPE   H4Y15436   6.348   5.691   9.941 -3.4721  2.5298 -0.9180
  141SAPE   C3515437   6.531   5.767   9.851 -0.3410  0.1790  0.4022
  141SAPE   H5X15438   6.625   5.735   9.901 -0.6869 -2.0382 -0.3033
  141SAPE   H5Y15439   6.546   5.862   9.796 -1.0013 -1.5416 -2.9037
  141SAPE   C3615440   6.513   5.672   9.733  0.0216  0.0168  0.5233
  141SAPE   H6X15441   6.429   5.718   9.678  1.6767 -0.5806 -2.5987
  141SAPE   H6Y15442   6.488   5.567   9.761  0.6109 -0.5946 -1.1734
  141SAPE   C3715443   6.628   5.678   9.633 -0.4748 -0.4255  0.4729
  141SAPE   H7X15444   6.727   5.649   9.676 -0.0658 -1.5177 -1.1702
  141SAPE   H7Y15445   6.631   5.783   9.596  0.9968 -0.2413  1.0821
  141SAPE   C3815446   6.584   5.594   9.514  0.0341 -0.2867  0.9166
  141SAPE   H8X15447   6.482   5.556   9.537 -0.3551 -0.3167 -0.7967
  141SAPE   H8Y15448   6.652   5.507   9.503  1.1878  0.7595 -0.3137
  141SAPE   C3915449   6.583   5.667   9.374 -0.0358 -0.8499 -0.2956
  141SAPE   H9X15450   6.691   5.695   9.371 -0.3930  0.7477  1.0218
  141SAPE   H9Y15451   6.539   5.769   9.380 -0.2260 -1.0256  1.6156
  141SAPE  C31015452   6.555   5.571   9.259 -0.4889 -0.2597 -0.0151
  141SAPE  H10X15453   6.445   5.557   9.259 -0.8038  1.9138  2.8651
  141SAPE  H10Y15454   6.601   5.472   9.283  0.6097  0.7927  2.4500
  141SAPE  C31115455   6.614   5.612   9.122 -0.4834 -0.3398  0.7048
  141SAPE  H11X15456   6.724   5.615   9.132 -0.4338  2.0601 -0.1116
  141SAPE  H11Y15457   6.574   5.711   9.090 -0.8717 -1.1491 -1.3712
  141SAPE  C31215458   6.573   5.508   9.020  0.7323  0.7733 -0.0643
  141SAPE  H12X15459   6.470   5.472   9.040  0.4951  0.0447 -2.5317
  141SAPE  H12Y15460   6.637   5.417   9.023  1.1070  0.9421 -2.2890
  141SAPE  C31315461   6.584   5.568   8.881  0.0683 -0.2656  0.5886
  141SAPE  H13X15462   6.684   5.617   8.882 -1.2488  2.5005  0.6799
  141SAPE  H13Y15463   6.500   5.639   8.868  0.2062  0.3543  2.8189
  141SAPE  C31415464   6.588   5.461   8.774  0.4132  0.4259  0.2336
  141SAPE  H14X15465   6.497   5.398   8.771 -0.1998  1.1979  2.2003
  141SAPE  H14Y15466   6.673   5.394   8.801  1.3145  2.0637  1.5860
  141SAPE  C31515467   6.617   5.518   8.632  0.0627 -0.2864  0.5517
  141SAPE  H15X15468   6.678   5.611   8.642 -1.6126  0.7156  1.6181
  141SAPE  H15Y15469   6.524   5.549   8.580  0.4302 -1.7027 -1.0049
  141SAPE  C31615470   6.682   5.421   8.527 -0.4205  0.3338  0.4269
  141SAPE  H16X15471   6.631   5.323   8.538  0.3686  0.0339  1.5564
  141SAPE  H16Y15472   6.784   5.402   8.567 -0.7996  1.9325  2.2443
  141SAPE  C31715473   6.676   5.476   8.378  0.1648  0.0541  0.1738
  141SAPE  H17X15474   6.732   5.572   8.368 -1.2486  0.8026 -0.6909
  141SAPE  H17Y15475   6.572   5.509   8.357 -0.3922 -0.4097  2.0842
  141SAPE  C31815476   6.724   5.391   8.266 -0.1951  0.1327 -1.0404
  141SAPE  H18X15477   6.835   5.386   8.277 -0.0723  0.7574 -1.8668
  141SAPE  H18Y15478   6.705   5.439   8.168 -1.2281  0.3502 -0.7441
  141SAPE  H18Z15479   6.685   5.287   8.272 -0.2523  0.2175  0.3000
  142SAPE     N15480   0.156   6.111  10.913  0.6218  0.1312 -0.2523
  142SAPE   HN115481   0.161   6.025  10.854 -0.7975 -0.3480  0.3042
  142SAPE   HN215482   0.073   6.165  10.880  1.1388  0.1814 -1.4947
  142SAPE   HN315483   0.236   6.173  10.887 -1.1128  2.3209 -0.5374
  142SAPE   C1215484   0.169   6.083  11.057 -0.0120 -0.1365 -0.3948
  142SAPE  H12A15485   0.072   6.036  11.085 -0.8969  1.9062  0.0330
  142SAPE  H12B15486   0.169   6.180  11.112 -1.4026  0.2667 -1.1021
  142SAPE   C1115487   0.293   5.993  11.072  0.6476 -0.5010  0.8297
  142SAPE  H11A15488   0.296   5.971  11.180 -1.5375  0.9054  1.2029
  142SAPE  H11B15489   0.388   6.045  11.047  1.1069 -1.7957 -0.2154
  142SAPE     P15490   0.386   5.760  11.009  0.5125 -0.1987  0.5706
  142SAPE   O1315491   0.436   5.764  11.148 -0.1579  0.4805  0.2529
  142SAPE   O1415492   0.337   5.628  10.965 -0.0526  0.5658  0.6885
  142SAPE   O1215493   0.280   5.871  10.994  0.6022  0.2864  0.7625
  142SAPE   O1115494   0.509   5.791  10.909  0.2276 -0.0434 -0.3127
  142SAPE    C115495   0.499   5.899  10.815 -0.3530  0.3819 -0.0998
  142SAPE    HA15496   0.408   5.961  10.830 -0.8783 -0.2146 -0.7394
  142SAPE    HB15497   0.588   5.962  10.834 -0.2879  0.1693  0.3030
  142SAPE    C215498   0.485   5.837  10.669 -0.2842 -0.1223 -0.1725
  142SAPE    HS15499   0.473   5.921  10.598  0.4397  0.2438  0.1227
  142SAPE   O2115500   0.381   5.740  10.651 -0.2862 -0.3560  0.3255
  142SAPE   C2115501   0.265   5.787  10.666  0.0654 -0.3315  0.8795
  142SAPE   O2215502   0.233   5.904  10.691 -0.6031  0.5839  0.3663
  142SAPE   C2215503   0.162   5.677  10.645 -0.2868 -0.5017  0.2700
  142SAPE   H2R15504   0.208   5.577  10.638 -0.7231 -0.5730 -1.9032
  142SAPE   H2S15505   0.099   5.687  10.736 -1.0152  0.0227 -0.2734
  142SAPE    C315506   0.623   5.759  10.643 -0.2218  0.0241 -0.1774
  142SAPE    HX15507   0.619   5.671  10.711  0.9307  0.5832  0.6234
  142SAPE    HY15508   0.702   5.825  10.684  0.0960 -0.8111  0.5639
  142SAPE   O3115509   0.645   5.725  10.501  1.1812  1.0112  0.3839
  142SAPE   C3115510   0.602   5.607  10.471  0.1984 -0.1537  0.2850
  142SAPE   O3215511   0.535   5.536  10.545 -0.0241 -0.1917  0.4966
  142SAPE   C3215512   0.659   5.570  10.336 -0.0823 -0.0955 -0.1980
  142SAPE   H2X15513   0.768   5.551  10.346 -0.4275 -2.4822 -0.5717
  142SAPE   H2Y15514   0.646   5.660  10.272 -0.7513  0.4251  0.6620
  142SAPE   C2315515   0.085   5.696  10.506 -0.2475 -0.6746  0.5537
  142SAPE   H3R15516   0.040   5.797  10.504  1.2000 -0.0374 -0.7528
  142SAPE   H3S15517   0.001   5.623  10.501 -1.1035  0.2983  0.7230
  142SAPE   C2415518   0.174   5.656  10.385  0.1890  0.0074  0.0181
  142SAPE   H4R15519   0.199   5.548  10.394 -0.3310 -0.2597 -1.5621
  142SAPE   H4S15520   0.273   5.707  10.384  0.4109 -0.3762  1.4575
  142SAPE   C2515521   0.101   5.698  10.259  0.1052 -0.7455  0.1370
  142SAPE   H5R15522  -0.002   5.732  10.279  0.1425 -0.4167 -0.2251
  142SAPE   C2615523   0.138   5.703  10.123  0.0538 -0.3317  0.0814
  142SAPE   H6R15524   0.068   5.737  10.045 -1.4108 -0.3791  1.3275
  142SAPE   C2715525   0.279   5.662  10.070  0.3712 -0.1461  0.2678
  142SAPE   H7R15526   0.264   5.561  10.028  1.1357  1.0039 -2.9017
  142SAPE   H7S15527   0.354   5.640  10.150  0.0947 -1.0841  0.2626
  142SAPE   C2815528   0.346   5.757   9.974 -0.0918 -0.1322 -0.7515
  142SAPE   H8R15529   0.340   5.863  10.004 -0.9877 -0.0694 -1.1162
  142SAPE   C2915530   0.406   5.728   9.855  0.1422 -0.4101  0.1810
  142SAPE   H9R15531   0.447   5.813   9.799 -1.2529  0.5433  0.5589
  142SAPE  C21015532   0.415   5.589   9.796  0.7497  0.1411 -0.0282
  142SAPE  H10R15533   0.319   5.537   9.815 -0.0601  1.6580  0.1094
  142SAPE  H10S15534   0.489   5.532   9.856 -0.0100  0.9339  1.6805
  142SAPE  C21115535   0.456   5.589   9.659 -0.6907 -0.6041  1.1525
  142SAPE  H11R15536   0.547   5.648   9.637 -0.6029 -0.1229  2.7299
  142SAPE  C21215537   0.404   5.536   9.550  0.2850  0.3951 -0.1195
  142SAPE  H12R15538   0.455   5.559   9.455 -0.7816 -0.5239 -0.9176
  142SAPE  C21315539   0.273   5.467   9.527  0.0246 -0.2242  0.3928
  142SAPE  H13R15540   0.219   5.433   9.618  0.3799 -2.6431 -0.2647
  142SAPE  H13S15541   0.298   5.370   9.478  0.0927  0.5429 -1.0903
  142SAPE  C21415542   0.188   5.560   9.447  0.5075 -0.2675  0.1427
  142SAPE  H14R15543   0.162   5.652   9.501  0.8369  0.0744 -0.2729
  142SAPE  C21515544   0.151   5.529   9.321 -0.0064 -0.1498 -0.5028
  142SAPE  H15R15545   0.093   5.599   9.259 -1.6397 -1.4745 -0.5120
  142SAPE  C21615546   0.203   5.411   9.245 -0.4407  0.3945  0.1618
  142SAPE  H16R15547   0.139   5.321   9.257  1.7431 -1.1672  0.3818
  142SAPE  H16S15548   0.310   5.397   9.269 -0.3786 -0.5160 -0.5810
  142SAPE  C21715549   0.196   5.437   9.095  0.3181  0.2253  0.3904
  142SAPE  H17R15550   0.092   5.447   9.055  0.1785 -0.5284  0.5634
  142SAPE  H17S15551   0.231   5.350   9.037 -2.7764 -1.4005  0.8269
  142SAPE  C21815552   0.273   5.557   9.035  0.9665  0.4686 -0.9772
  142SAPE  H18R15553   0.380   5.557   9.064  1.0220  2.2639 -1.1453
  142SAPE  H18S15554   0.216   5.648   9.065 -0.5197  0.4248 -3.5353
  142SAPE  C21915555   0.260   5.562   8.886 -0.3963 -0.4123 -0.0138
  142SAPE  H19R15556   0.279   5.663   8.844  1.3983 -0.6397  0.2144
  142SAPE  H19S15557   0.160   5.525   8.854 -0.9055 -0.6018  1.6997
  142SAPE  C22015558   0.377   5.483   8.815  0.6121  0.5639 -0.2546
  142SAPE  H20R15559   0.387   5.378   8.849  0.4681  0.8372  0.6450
  142SAPE  H20S15560   0.464   5.546   8.840  0.6961 -0.0529  1.0444
  142SAPE  H20T15561   0.371   5.485   8.704 -0.4264  2.9717 -0.1830
  142SAPE   C3315562   0.591   5.445  10.277  0.7231 -0.6017  0.5286
  142SAPE   H3X15563   0.482   5.462  10.289  0.9397 -0.2064  2.0429
  142SAPE   H3Y15564   0.619   5.359  10.343  1.0199 -0.9390 -0.0357
  142SAPE   C3415565   0.629   5.431  10.127 -0.5381 -0.3859 -0.0041
  142SAPE   H4X15566   0.738   5.412  10.125 -0.6186 -0.7966 -0.5780
  142SAPE   H4Y15567   0.611   5.524  10.069 -1.2092 -0.5622 -0.0843
  142SAPE   C3515568   0.565   5.309  10.067 -0.6881  0.7251 -0.4474
  142SAPE   H5X15569   0.463   5.329  10.027 -0.6639 -0.2117 -1.0079
  142SAPE   H5Y15570   0.551   5.242  10.155  1.2408 -0.4101 -0.9604
  142SAPE   C3615571   0.651   5.230   9.970 -0.7158 -0.0807  0.1046
  142SAPE   H6X15572   0.612   5.126   9.965  2.2991 -1.2401 -0.7891
  142SAPE   H6Y15573   0.749   5.235  10.022 -1.4583  1.1630  1.4227
  142SAPE   C3715574   0.654   5.280   9.823 -0.1181  0.4050  0.1631
  142SAPE   H7X15575   0.701   5.379   9.832  2.7103 -0.9661  0.9842
  142SAPE   H7Y15576   0.555   5.290   9.774  0.2913 -1.3948 -1.0882
  142SAPE   C3815577   0.748   5.193   9.740  0.7303 -0.7871  0.0032
  142SAPE   H8X15578   0.712   5.088   9.732 -0.1545 -0.5304  0.6135
  142SAPE   H8Y15579   0.851   5.190   9.783  0.2874 -0.7470  1.0663
  142SAPE   C3915580   0.760   5.243   9.596  0.1914 -0.1268 -0.2024
  142SAPE   H9X15581   0.786   5.351   9.604 -0.2509  0.1234 -1.9107
  142SAPE   H9Y15582   0.661   5.239   9.547 -0.4590  0.6613  1.0436
  142SAPE  C31015583   0.875   5.173   9.516 -0.1484  0.0217 -0.3608
  142SAPE  H10X15584   0.843   5.066   9.512 -2.7081  0.6695  1.7288
  142SAPE  H10Y15585   0.975   5.186   9.561 -0.2354  0.8202 -0.3930
  142SAPE  C31115586   0.896   5.230   9.376  0.3431 -0.3233  0.5399
  142SAPE  H11X15587   0.918   5.337   9.393  0.2937 -0.0067 -1.2436
  142SAPE  H11Y15588   0.806   5.217   9.312  1.3570 -1.2673 -0.7438
  142SAPE  C31215589   1.017   5.155   9.320 -0.3149 -0.1764 -0.4971
  142SAPE  H12X15590   1.007   5.045   9.318  3.3883 -0.5698 -1.1834
  142SAPE  H12Y15591   1.109   5.175   9.380 -0.9483  0.0424  0.3997
  142SAPE  C31315592   1.042   5.181   9.169 -0.0483  0.3130  0.1425
  142SAPE  H13X15593   1.008   5.283   9.139 -0.0698 -0.1608 -1.4948
  142SAPE  H13Y15594   0.977   5.124   9.099 -0.7674 -1.4780  2.2400
  142SAPE  C31415595   1.188   5.162   9.139  0.3181  0.1425  0.1424
  142SAPE  H14X15596   1.226   5.057   9.142  0.9741  0.3902  0.5417
  142SAPE  H14Y15597   1.240   5.213   9.223  0.4526 -1.2128  0.8996
  142SAPE  C31515598   1.220   5.240   9.017 -0.4473  0.5416 -0.3504
  142SAPE  H15X15599   1.197   5.346   9.039 -2.5984 -0.2934  1.6477
  142SAPE  H15Y15600   1.152   5.202   8.938  1.3448 -3.4362 -0.0951
  142SAPE  C31615601   1.367   5.229   8.980 -0.2478  0.1430  0.5543
  142SAPE  H16X15602   1.428   5.216   9.072 -0.2166 -0.5377  0.4375
  142SAPE  H16Y15603   1.398   5.323   8.928  0.7840 -0.2185  0.4955
  142SAPE  C31715604   1.400   5.125   8.875  0.0261  0.2443  0.5092
  142SAPE  H17X15605   1.360   5.150   8.774  2.4009 -1.1363 -0.8106
  142SAPE  H17Y15606   1.359   5.028   8.910 -0.1226 -0.3981 -1.3619
  142SAPE  C31815607   1.553   5.105   8.854  0.6451  0.4580  0.3654
  142SAPE  H18X15608   1.588   5.190   8.791  0.9133  0.4857  0.5562
  142SAPE  H18Y15609   1.577   5.013   8.798 -2.2775 -0.1211 -0.0289
  142SAPE  H18Z15610   1.615   5.117   8.946  1.5962 -0.2139 -0.1759
  143SAPE     N15611   2.652   5.243  11.393 -0.8128  0.9658  0.3199
  143SAPE   HN115612   2.710   5.168  11.438 -3.4765 -0.6911  1.0807
  143SAPE   HN215613   2.712   5.309  11.339 -1.5402  1.8228  0.5528
  143SAPE   HN315614   2.588   5.297  11.454  0.1858  0.9117  1.4238
  143SAPE   C1215615   2.559   5.184  11.300 -0.0578  0.1071  0.3771
  143SAPE  H12A15616   2.498   5.108  11.353  1.4321 -0.3336  1.5070
  143SAPE  H12B15617   2.619   5.137  11.218  1.5288  0.8774  1.0704
  143SAPE   C1115618   2.464   5.291  11.237 -0.6200 -0.3733 -0.6840
  143SAPE  H11A15619   2.414   5.334  11.327 -1.0718  0.3829 -1.2984
  143SAPE  H11B15620   2.386   5.234  11.182 -0.4291 -0.4573 -0.8664
  143SAPE     P15621   2.469   5.452  11.039  0.5316 -0.0036  0.0245
  143SAPE   O1315622   2.334   5.495  11.085  0.8085  0.5628  0.0119
  143SAPE   O1415623   2.555   5.556  10.979 -0.0823  0.0399  0.2114
  143SAPE   O1215624   2.546   5.385  11.163 -0.7449 -0.2594 -0.0750
  143SAPE   O1115625   2.459   5.322  10.951 -0.3560  0.6387  0.0138
  143SAPE    C115626   2.579   5.261  10.903  0.2227  0.5657 -0.4984
  143SAPE    HA15627   2.631   5.326  10.829  0.0641  1.7822  0.4372
  143SAPE    HB15628   2.658   5.253  10.981  1.0146  3.1784 -0.9753
  143SAPE    C215629   2.545   5.121  10.833  0.1540 -0.2511 -0.4778
  143SAPE    HS15630   2.640   5.102  10.777 -0.0423  2.4428 -1.8364
  143SAPE   O2115631   2.424   5.124  10.755 -0.2299  0.3821 -0.7097
  143SAPE   C2115632   2.440   5.193  10.643 -0.1136 -0.3650  0.3058
  143SAPE   O2215633   2.547   5.226  10.593 -0.1057 -0.1177  0.1989
  143SAPE   C2215634   2.301   5.220  10.582 -0.2396 -0.4068 -1.1722
  143SAPE   H2R15635   2.237   5.133  10.607 -0.7712  0.6019  1.0815
  143SAPE   H2S15636   2.260   5.309  10.634 -0.8335 -0.9418 -0.7135
  143SAPE    C315637   2.533   5.008  10.933 -0.0762  0.6822  0.3411
  143SAPE    HX15638   2.437   5.025  10.986 -0.8064 -0.0096 -0.7370
  143SAPE    HY15639   2.610   5.021  11.012 -0.4804  1.7500  0.5713
  143SAPE   O3115640   2.536   4.872  10.884  0.1359 -0.5542  0.1244
  143SAPE   C3115641   2.656   4.811  10.885  0.6461 -0.1012 -0.3670
  143SAPE   O3215642   2.757   4.866  10.917 -0.2706  0.0120  0.1013
  143SAPE   C3215643   2.642   4.671  10.846 -0.2031 -0.5854  0.3945
  143SAPE   H2X15644   2.543   4.653  10.797 -0.4314 -0.9865  0.9884
  143SAPE   H2Y15645   2.638   4.616  10.943 -3.8272  2.0264  1.8448
  143SAPE   C2315646   2.308   5.245  10.424 -0.2199  0.7815  0.3874
  143SAPE   H3R15647   2.356   5.161  10.369 -1.8238 -0.8353  1.3907
  143SAPE   H3S15648   2.378   5.331  10.411  0.1921  0.6023  1.3762
  143SAPE   C2415649   2.164   5.281  10.380 -0.9095  0.4525  0.1019
  143SAPE   H4R15650   2.088   5.200  10.388 -3.0547  2.3795 -0.4158
  143SAPE   H4S15651   2.175   5.292  10.270 -1.1532 -0.3363 -0.0084
  143SAPE   C2515652   2.115   5.417  10.424 -0.2460  0.0452 -0.0383
  143SAPE   H5R15653   2.071   5.426  10.524  1.1614  1.0661  0.5223
  143SAPE   C2615654   2.140   5.539  10.364 -0.3154 -0.2446  0.5574
  143SAPE   H6R15655   2.091   5.628  10.406  1.0617  0.3506  0.9359
  143SAPE   C2715656   2.226   5.572  10.248  0.4857  0.5684 -1.4705
  143SAPE   H7R15657   2.163   5.619  10.169 -0.4345 -1.5765 -2.0688
  143SAPE   H7S15658   2.260   5.483  10.191  0.0089  0.3665 -1.4466
  143SAPE   C2815659   2.339   5.662  10.287 -0.0758 -0.5458 -0.4005
  143SAPE   H8R15660   2.417   5.616  10.349  0.3423  0.8265  0.1077
  143SAPE   C2915661   2.358   5.793  10.257 -0.0558 -0.0426 -0.3434
  143SAPE   H9R15662   2.444   5.839  10.309 -1.2123  3.3880 -1.3376
  143SAPE  C21015663   2.270   5.882  10.178  0.0384  0.4272 -0.2111
  143SAPE  H10R15664   2.221   5.959  10.242 -0.0194 -0.1292  0.4177
  143SAPE  H10S15665   2.193   5.826  10.121  0.2262  0.8312 -0.8622
  143SAPE  C21115666   2.346   5.952  10.071  0.1148  0.0541  0.7423
  143SAPE  H11R15667   2.353   6.061  10.077 -0.1273  0.0652  0.8027
  143SAPE  C21215668   2.416   5.900   9.962  0.4734 -0.4978 -0.1820
  143SAPE  H12R15669   2.449   5.983   9.897 -2.1412  0.7298 -0.0210
  143SAPE  C21315670   2.445   5.757   9.917  0.0436  0.4061  0.1010
  143SAPE  H13R15671   2.353   5.694   9.918  0.9015 -0.8673  0.0065
  143SAPE  H13S15672   2.502   5.710  10.000  2.0378 -2.0092 -2.5385
  143SAPE  C21415673   2.519   5.735   9.789  0.2737  0.5209 -0.5531
  143SAPE  H14R15674   2.461   5.676   9.716 -0.9527  1.4365 -0.3385
  143SAPE  C21515675   2.652   5.742   9.768 -0.3793  0.7787  0.1536
  143SAPE  H15R15676   2.693   5.725   9.668  2.0473  0.7825  1.1219
  143SAPE  C21615677   2.764   5.783   9.857 -0.5971  0.0387  0.2463
  143SAPE  H16R15678   2.844   5.806   9.783 -0.7571  3.7657  1.1115
  143SAPE  H16S15679   2.786   5.702   9.930  1.0441 -0.3729 -0.6742
  143SAPE  C21715680   2.754   5.910   9.933  0.5799  0.3377  0.4568
  143SAPE  H17R15681   2.687   5.886  10.019 -1.2337 -1.2136 -1.3204
  143SAPE  H17S15682   2.694   5.982   9.872  0.0549 -0.4480  0.0352
  143SAPE  C21815683   2.891   5.969   9.983  0.0807  0.0499 -0.0240
  143SAPE  H18R15684   2.966   5.977   9.902  1.3201 -0.6395  1.0411
  143SAPE  H18S15685   2.926   5.898  10.061 -0.6681 -0.2507  0.0398
  143SAPE  C21915686   2.874   6.105  10.055 -0.0850 -0.6763 -0.5919
  143SAPE  H19R15687   2.840   6.176   9.977 -0.7774 -0.9169 -0.5077
  143SAPE  H19S15688   2.975   6.142  10.085 -0.9848  1.0767  0.3110
  143SAPE  C22015689   2.774   6.108  10.172  0.2171 -0.4303 -0.0758
  143SAPE  H20R15690   2.668   6.088  10.146 -1.0213  0.3823  3.9120
  143SAPE  H20S15691   2.771   6.197  10.240  0.5003 -1.5223  1.4002
  143SAPE  H20T15692   2.806   6.019  10.231 -0.7236 -0.6650  0.0920
  143SAPE   C3315693   2.752   4.599  10.774  0.1297  0.0700  1.3680
  143SAPE   H3X15694   2.739   4.490  10.790  0.7130  0.0681  1.8665
  143SAPE   H3Y15695   2.856   4.627  10.802  1.0126  0.7858 -2.4493
  143SAPE   C3415696   2.743   4.610  10.624 -0.0333 -0.4877 -0.2589
  143SAPE   H4X15697   2.749   4.719  10.604 -0.7877 -0.0588  1.6975
  143SAPE   H4Y15698   2.641   4.575  10.597 -0.1432 -0.6375  0.3382
  143SAPE   C3515699   2.849   4.518  10.556 -0.5020  0.6585 -0.7861
  143SAPE   H5X15700   2.855   4.421  10.610  1.1295 -0.0509 -2.1939
  143SAPE   H5Y15701   2.948   4.569  10.557  0.5092 -1.2394  0.6630
  143SAPE   C3615702   2.806   4.493  10.416  0.1889  1.3687  0.8080
  143SAPE   H6X15703   2.717   4.426  10.415  1.4679 -0.3529 -0.7557
  143SAPE   H6Y15704   2.881   4.431  10.362 -0.2040  0.4848  1.2601
  143SAPE   C3715705   2.778   4.615  10.333  0.1268  0.0236 -0.4886
  143SAPE   H7X15706   2.867   4.682  10.344 -0.5132  0.9787 -1.0146
  143SAPE   H7Y15707   2.693   4.672  10.376  1.3101  0.5750  1.1927
  143SAPE   C3815708   2.744   4.588  10.186  0.0703 -0.0522 -0.0089
  143SAPE   H8X15709   2.650   4.530  10.196 -0.1931 -0.1095 -2.6370
  143SAPE   H8Y15710   2.830   4.533  10.144 -0.3643 -0.6634 -0.0977
  143SAPE   C3915711   2.711   4.706  10.096 -0.7733  0.4133 -0.2298
  143SAPE   H9X15712   2.799   4.772  10.085  0.1609 -0.6741  0.5354
  143SAPE   H9Y15713   2.628   4.768  10.137  0.2302  0.0286  2.5443
  143SAPE  C31015714   2.683   4.658   9.954  0.6874  0.1960  0.3449
  143SAPE  H10X15715   2.590   4.598   9.960  0.3285  0.7259  0.1045
  143SAPE  H10Y15716   2.764   4.585   9.934  0.3601 -0.4280  1.2433
  143SAPE  C31115717   2.668   4.760   9.844  0.6866 -0.1509 -0.7946
  143SAPE  H11X15718   2.762   4.813   9.817 -1.2092  2.7841 -1.8411
  143SAPE  H11Y15719   2.595   4.839   9.872  0.4123 -0.8876  0.6277
  143SAPE  C31215720   2.612   4.683   9.718  0.3511  0.0782 -0.4643
  143SAPE  H12X15721   2.509   4.642   9.731  0.9828 -1.4981 -0.2512
  143SAPE  H12Y15722   2.677   4.594   9.706  0.2731 -0.3017  1.6209
  143SAPE  C31315723   2.617   4.781   9.596 -0.6740  0.3681 -0.6269
  143SAPE  H13X15724   2.714   4.834   9.593 -0.4485 -0.0229 -0.2999
  143SAPE  H13Y15725   2.531   4.851   9.605 -0.3034  1.0754 -2.4922
  143SAPE  C31415726   2.595   4.710   9.460  0.3705 -0.2634  0.4873
  143SAPE  H14X15727   2.495   4.664   9.446 -0.0025  0.8644 -0.6424
  143SAPE  H14Y15728   2.656   4.617   9.451  0.5657 -0.0199 -0.8036
  143SAPE  C31515729   2.631   4.809   9.348  0.2790  0.2779 -0.0206
  143SAPE  H15X15730   2.734   4.849   9.355 -0.7488  3.0612 -0.1114
  143SAPE  H15Y15731   2.556   4.891   9.345  0.0501  0.0152 -2.2332
  143SAPE  C31615732   2.620   4.748   9.210 -0.0106 -0.0175  0.6800
  143SAPE  H16X15733   2.525   4.692   9.201  1.3929 -2.3967  0.3171
  143SAPE  H16Y15734   2.704   4.675   9.204 -1.7410 -2.0375  0.4578
  143SAPE  C31715735   2.638   4.861   9.100  0.3794  1.0185 -0.1513
  143SAPE  H17X15736   2.728   4.919   9.128 -0.2702  2.0927 -0.2593
  143SAPE  H17Y15737   2.555   4.934   9.115 -1.0783 -0.7159  0.4882
  143SAPE  C31815738   2.641   4.812   8.951 -0.0018 -0.0009 -0.0069
  143SAPE  H18X15739   2.665   4.896   8.882  0.7571 -0.1077  0.1201
  143SAPE  H18Y15740   2.543   4.771   8.917  1.3121 -2.4980 -0.9284
  143SAPE  H18Z15741   2.716   4.730   8.942 -0.4466 -0.3583 -0.4777
  144SAPE     N15742   5.258   3.481  11.029  0.3393  0.8246  0.1846
  144SAPE   HN115743   5.287   3.556  10.962 -1.2026  1.3028  0.0365
  144SAPE   HN215744   5.274   3.391  10.980  1.1065  0.9672  0.1635
  144SAPE   HN315745   5.156   3.491  11.048  0.6634  4.4298  0.5007
  144SAPE   C1215746   5.346   3.478  11.155 -0.0600 -0.1810  0.3947
  144SAPE  H12A15747   5.320   3.389  11.216  0.8838  0.0120  1.0987
  144SAPE  H12B15748   5.322   3.567  11.218 -1.5022 -0.8058  0.7450
  144SAPE   C1115749   5.488   3.477  11.116  0.6957 -0.1852 -0.1096
  144SAPE  H11A15750   5.553   3.495  11.204  0.1986 -0.0364  0.2342
  144SAPE  H11B15751   5.504   3.567  11.052 -1.5124  0.6996  0.5141
  144SAPE     P15752   5.588   3.343  10.909 -0.1113  0.3469 -0.1418
  144SAPE   O1315753   5.701   3.436  10.882 -0.4581  0.3327  0.0198
  144SAPE   O1415754   5.619   3.200  10.883 -0.3428 -0.4097  0.4817
  144SAPE   O1215755   5.526   3.354  11.052 -0.8259  0.3679  0.7735
  144SAPE   O1115756   5.465   3.385  10.825 -0.0902 -0.1406  0.5195
  144SAPE    C115757   5.429   3.305  10.712  0.6184  0.2244 -0.3070
  144SAPE    HA15758   5.515   3.275  10.649 -0.0705 -0.7854 -0.7705
  144SAPE    HB15759   5.386   3.213  10.758 -2.0364  2.2430  1.4384
  144SAPE    C215760   5.324   3.368  10.611  0.7002 -0.5158  0.6496
  144SAPE    HS15761   5.322   3.313  10.515 -0.6466 -1.8247  1.3973
  144SAPE   O2115762   5.359   3.505  10.594 -0.2829 -0.4336  0.0124
  144SAPE   C2115763   5.461   3.515  10.508  0.5570 -0.2097 -0.1003
  144SAPE   O2215764   5.520   3.420  10.451 -0.1318  0.0911 -0.5602
  144SAPE   C2215765   5.497   3.664  10.491  0.3694 -0.1744  0.0018
  144SAPE   H2R15766   5.449   3.709  10.580  0.8703  2.4706 -1.0070
  144SAPE   H2S15767   5.607   3.664  10.506 -0.2275 -1.7838  5.4232
  144SAPE    C315768   5.176   3.355  10.668 -0.6644 -0.0911 -0.8782
  144SAPE    HX15769   5.152   3.412  10.760 -1.4273  0.9423 -1.7084
  144SAPE    HY15770   5.156   3.249  10.693 -1.0369 -0.2024 -1.6310
  144SAPE   O3115771   5.070   3.380  10.571 -0.0784  0.7359 -0.4825
  144SAPE   C3115772   5.031   3.513  10.565  0.2145 -0.3804 -0.3460
  144SAPE   O3215773   5.071   3.602  10.633  0.1351  0.0751  0.2887
  144SAPE   C3215774   4.919   3.534  10.464  0.1372 -0.8460  0.2866
  144SAPE   H2X15775   4.834   3.546  10.535  1.2924 -2.1293  1.9207
  144SAPE   H2Y15776   4.908   3.442  10.402  3.1151 -0.7750 -0.3905
  144SAPE   C2315777   5.450   3.715  10.357 -0.1994  0.0629 -0.0861
  144SAPE   H3R15778   5.342   3.690  10.352  0.1677 -1.6108 -0.1205
  144SAPE   H3S15779   5.492   3.657  10.272 -2.1550  0.0863 -1.0774
  144SAPE   C2415780   5.481   3.857  10.326  0.1194  0.4620 -0.8498
  144SAPE   H4R15781   5.592   3.865  10.323  0.2508  1.0308  3.1398
  144SAPE   H4S15782   5.448   3.920  10.412 -0.4189 -1.1494  0.1323
  144SAPE   C2515783   5.417   3.892  10.198 -0.1682 -0.7617  0.0635
  144SAPE   H5R15784   5.328   3.958  10.198  1.0083  0.9272 -2.7523
  144SAPE   C2615785   5.449   3.855  10.076 -0.5801  0.1724  0.5474
  144SAPE   H6R15786   5.387   3.889   9.992  0.6136  0.9684 -0.0199
  144SAPE   C2715787   5.561   3.762  10.041  0.1629  0.4650 -0.0591
  144SAPE   H7R15788   5.627   3.736  10.126  0.2897 -0.2695 -0.3798
  144SAPE   H7S15789   5.617   3.819   9.964 -0.4983 -0.6584 -1.4010
  144SAPE   C2815790   5.497   3.629   9.990 -0.0901  0.0343 -0.6425
  144SAPE   H8R15791   5.463   3.562  10.070  1.2568  0.1881  0.0850
  144SAPE   C2915792   5.483   3.586   9.864 -0.5183  0.7870 -0.0293
  144SAPE   H9R15793   5.446   3.485   9.841  0.3559  0.2609  0.8650
  144SAPE  C21015794   5.525   3.654   9.735  0.4952  0.1027 -0.5900
  144SAPE  H10R15795   5.610   3.599   9.689 -0.0507  0.4794 -2.0713
  144SAPE  H10S15796   5.572   3.751   9.763 -0.0111  0.0759  0.3861
  144SAPE  C21115797   5.429   3.666   9.629  0.3737  0.0494 -0.0376
  144SAPE  H11R15798   5.328   3.636   9.661  0.2568  0.2480 -0.2166
  144SAPE  C21215799   5.452   3.702   9.500 -0.4201  0.0521 -0.7111
  144SAPE  H12R15800   5.363   3.729   9.441  1.8552  2.4003 -3.2244
  144SAPE  C21315801   5.589   3.748   9.451  0.0923  0.2113  0.1862
  144SAPE  H13R15802   5.656   3.784   9.532  1.3700 -2.7381  0.5130
  144SAPE  H13S15803   5.568   3.837   9.389 -0.2209  1.8420  2.5513
  144SAPE  C21415804   5.645   3.646   9.357 -0.2581 -0.9078 -0.5730
  144SAPE  H14R15805   5.652   3.545   9.399 -0.5579 -1.3620 -1.5934
  144SAPE  C21515806   5.688   3.654   9.226  0.7406 -0.2028  0.0619
  144SAPE  H15R15807   5.735   3.564   9.183  1.6204 -0.9078  2.4318
  144SAPE  C21615808   5.675   3.784   9.149 -0.0837 -0.4592 -0.5478
  144SAPE  H16R15809   5.774   3.811   9.109 -0.1255  1.4154  0.5811
  144SAPE  H16S15810   5.660   3.871   9.216 -0.2254 -0.7509 -0.1964
  144SAPE  C21715811   5.553   3.776   9.053 -0.3112  0.1485  0.7088
  144SAPE  H17R15812   5.529   3.881   9.030 -0.1726 -0.0434 -0.3209
  144SAPE  H17S15813   5.469   3.725   9.105 -0.8055 -1.2587 -1.3902
  144SAPE  C21815814   5.591   3.696   8.929  0.0110 -0.4553 -0.0015
  144SAPE  H18R15815   5.594   3.586   8.949 -0.4957 -0.4711 -0.0037
  144SAPE  H18S15816   5.691   3.732   8.898 -0.6728  0.1049 -1.6392
  144SAPE  C21915817   5.506   3.736   8.803  0.3117 -0.3961  0.2734
  144SAPE  H19R15818   5.554   3.691   8.714  1.0580  1.0574 -0.0762
  144SAPE  H19S15819   5.494   3.846   8.797  0.4108 -0.3636  0.6317
  144SAPE  C22015820   5.363   3.682   8.825  0.2629 -0.2016  0.3916
  144SAPE  H20R15821   5.288   3.715   8.750 -0.5314  2.9775  2.5175
  144SAPE  H20S15822   5.317   3.715   8.920 -0.0939  1.9582 -0.5060
  144SAPE  H20T15823   5.366   3.571   8.830 -1.0960 -0.2843 -0.3058
  144SAPE   C3315824   4.935   3.653  10.377 -0.3640 -0.0514  0.4145
  144SAPE   H3X15825   4.976   3.741  10.431  1.7826  0.9957 -2.7892
  144SAPE   H3Y15826   4.836   3.672  10.331 -1.0048  0.0252  1.8029
  144SAPE   C3415827   5.036   3.632  10.264 -1.0270  0.6051  0.3001
  144SAPE   H4X15828   4.996   3.543  10.211 -3.3735  0.3290  2.4044
  144SAPE   H4Y15829   5.134   3.601  10.306  0.4336  1.3885 -2.4048
  144SAPE   C3515830   5.055   3.751  10.174  0.1815 -0.3796 -0.8386
  144SAPE   H5X15831   5.103   3.838  10.221 -0.7446  0.7517 -1.9368
  144SAPE   H5Y15832   4.952   3.781  10.144 -0.1549 -3.2437 -2.8078
  144SAPE   C3615833   5.107   3.721  10.034 -0.4911  0.2340 -0.2171
  144SAPE   H6X15834   5.056   3.640   9.978  2.5957 -1.8666 -0.0588
  144SAPE   H6Y15835   5.213   3.688  10.038 -1.0401 -1.7612 -1.7428
  144SAPE   C3715836   5.092   3.855   9.941  0.8451 -0.7548  0.1815
  144SAPE   H7X15837   5.165   3.931   9.974  0.2411 -0.4451  0.8195
  144SAPE   H7Y15838   4.989   3.895   9.958  0.8397  0.4563 -2.3909
  144SAPE   C3815839   5.121   3.826   9.792 -0.2330  0.2262  0.0366
  144SAPE   H8X15840   5.226   3.799   9.770 -0.7983 -2.4621  0.3930
  144SAPE   H8Y15841   5.096   3.918   9.736 -1.2343 -0.2414 -0.3108
  144SAPE   C3915842   5.028   3.725   9.712 -0.1386  0.0492  0.2899
  144SAPE   H9X15843   4.930   3.715   9.762  0.3078 -0.9791  0.9972
  144SAPE   H9Y15844   5.070   3.622   9.714  0.3448  0.2253 -0.4250
  144SAPE  C31015845   5.031   3.755   9.558  0.2250  0.0957 -0.4639
  144SAPE  H10X15846   5.132   3.767   9.514  0.2746  2.3229  0.1700
  144SAPE  H10Y15847   4.971   3.845   9.532  0.1486 -0.0638 -0.8323
  144SAPE  C31115848   4.963   3.647   9.480  0.0521 -0.1660  0.4281
  144SAPE  H11X15849   4.853   3.663   9.486 -0.2142 -1.7385 -0.1586
  144SAPE  H11Y15850   4.981   3.544   9.518  2.9652 -0.3461 -1.2188
  144SAPE  C31215851   5.014   3.647   9.333  0.0023  0.5145  0.3158
  144SAPE  H12X15852   5.110   3.592   9.324 -0.8306 -0.5794 -2.0402
  144SAPE  H12Y15853   5.038   3.749   9.296  1.1979 -0.3822 -1.4219
  144SAPE  C31315854   4.931   3.571   9.226  0.5461  0.1027 -0.0847
  144SAPE  H13X15855   4.827   3.607   9.217  0.8986  1.3843  0.9213
  144SAPE  H13Y15856   4.929   3.461   9.245  1.1457 -0.0090 -0.6561
  144SAPE  C31415857   4.999   3.575   9.082  0.2393  1.1573 -0.2403
  144SAPE  H14X15858   4.942   3.513   9.009  2.0890  0.8176 -1.4272
  144SAPE  H14Y15859   5.102   3.536   9.099 -1.0344 -2.5931 -0.6661
  144SAPE  C31515860   5.012   3.717   9.032  0.1874  0.4475  0.0355
  144SAPE  H15X15861   5.098   3.759   9.089  1.2365  0.4148 -1.5027
  144SAPE  H15Y15862   4.923   3.779   9.055  0.2245  0.8061 -0.7548
  144SAPE  C31615863   5.024   3.717   8.879  0.0034  1.0251 -0.2419
  144SAPE  H16X15864   4.930   3.678   8.833 -1.6883  2.3461  1.9783
  144SAPE  H16Y15865   5.106   3.647   8.852  0.0654  0.8468  0.3846
  144SAPE  C31715866   5.046   3.850   8.817 -0.1155 -0.3185  0.2784
  144SAPE  H17X15867   5.133   3.907   8.857 -0.8036 -0.2145  1.6388
  144SAPE  H17Y15868   4.957   3.913   8.838 -0.3777 -0.5550 -0.1295
  144SAPE  C31815869   5.042   3.825   8.667 -0.0984 -0.2695 -0.2027
  144SAPE  H18X15870   5.118   3.753   8.627 -0.3693 -0.5838 -0.1498
  144SAPE  H18Y15871   5.078   3.919   8.621  0.1899 -1.5917 -2.7719
  144SAPE  H18Z15872   4.941   3.801   8.629 -0.6286 -2.1789  2.2689
  145SAPE     N15873   1.864   4.143  11.390  0.6358 -0.3084  0.0439
  145SAPE   HN115874   1.942   4.078  11.363  0.3575 -0.3685 -0.6297
  145SAPE   HN215875   1.770   4.099  11.393 -0.7995  2.5111 -1.7150
  145SAPE   HN315876   1.857   4.208  11.309  1.2270  0.0324  0.2643
  145SAPE   C1215877   1.894   4.225  11.516 -0.0646  0.0301 -0.3412
  145SAPE  H12A15878   2.004   4.241  11.521  0.0746 -0.7341 -0.7808
  145SAPE  H12B15879   1.864   4.147  11.589  0.1017  0.3419  0.0648
  145SAPE   C1115880   1.817   4.355  11.521  0.0438 -0.6726 -0.7467
  145SAPE  H11A15881   1.811   4.414  11.615  0.2227  0.8235 -1.6528
  145SAPE  H11B15882   1.715   4.314  11.506 -0.0957 -0.4566 -0.3911
  145SAPE     P15883   1.953   4.541  11.405  0.7162 -0.2343  0.0042
  145SAPE   O1315884   1.924   4.644  11.306 -0.1015 -0.2352 -0.1190
  145SAPE   O1415885   1.979   4.578  11.546 -0.1786 -0.3519 -0.0031
  145SAPE   O1215886   1.831   4.443  11.404  0.4291  0.0356 -0.2851
  145SAPE   O1115887   2.067   4.444  11.356 -0.1526  0.5394 -0.2944
  145SAPE    C115888   2.199   4.486  11.336 -0.1072  0.3007  0.8612
  145SAPE    HA15889   2.227   4.585  11.378  0.3732  0.4637  0.1815
  145SAPE    HB15890   2.259   4.407  11.386 -1.5804 -1.1299  0.4122
  145SAPE    C215891   2.250   4.481  11.187  0.3892  0.1841  0.7158
  145SAPE    HS15892   2.360   4.494  11.196  0.4295  0.7617 -0.4973
  145SAPE   O2115893   2.182   4.580  11.113 -0.1858  0.2105 -0.7425
  145SAPE   C2115894   2.234   4.705  11.119 -0.7364  0.1689  0.1809
  145SAPE   O2215895   2.351   4.730  11.153 -0.7286  0.0190  0.0153
  145SAPE   C2215896   2.129   4.801  11.074  0.2277 -0.0654  0.1177
  145SAPE   H2R15897   2.040   4.789  11.138  0.6574 -0.6318  0.6143
  145SAPE   H2S15898   2.170   4.902  11.098 -0.3855 -0.4672  3.0630
  145SAPE    C315899   2.226   4.346  11.122  0.8189 -0.0569 -0.0737
  145SAPE    HX15900   2.123   4.311  11.141  1.4703 -0.9155  1.9774
  145SAPE    HY15901   2.295   4.268  11.162  1.0355  0.3726  0.3878
  145SAPE   O3115902   2.241   4.351  10.973 -0.3448  0.3842 -0.2448
  145SAPE   C3115903   2.357   4.390  10.924 -0.0478  0.0829 -0.6476
  145SAPE   O3215904   2.459   4.403  10.989 -0.2537  0.3200 -0.1075
  145SAPE   C3215905   2.340   4.431  10.775  0.4669  0.1947 -0.5195
  145SAPE   H2X15906   2.327   4.541  10.778  1.0216  0.2421  0.2655
  145SAPE   H2Y15907   2.246   4.381  10.744  1.5001 -1.8280 -0.4873
  145SAPE   C2315908   2.089   4.810  10.919 -0.0747 -0.3806  0.4496
  145SAPE   H3R15909   1.984   4.843  10.923  0.7929  2.2420  5.8404
  145SAPE   H3S15910   2.073   4.702  10.896 -0.3326 -0.9237  3.0820
  145SAPE   C2415911   2.185   4.872  10.814 -0.1825 -0.1772  0.3925
  145SAPE   H4R15912   2.275   4.809  10.834  2.1010  3.0864  0.7741
  145SAPE   H4S15913   2.219   4.973  10.845 -0.0234 -0.0236 -0.2798
  145SAPE   C2515914   2.128   4.870  10.669 -0.4190  1.7454  0.2569
  145SAPE   H5R15915   2.018   4.868  10.670 -0.4039 -1.3650  0.5390
  145SAPE   C2615916   2.197   4.858  10.555  0.1720  0.1066  0.0926
  145SAPE   H6R15917   2.136   4.846  10.463  1.1045 -0.6421 -0.4369
  145SAPE   C2715918   2.349   4.836  10.534  0.1200  0.3760  1.5177
  145SAPE   H7R15919   2.401   4.877  10.623 -0.6100 -0.4430  2.3293
  145SAPE   H7S15920   2.392   4.898  10.453 -0.3815 -0.0410  0.9320
  145SAPE   C2815921   2.381   4.687  10.517  0.1337  0.0309  0.2079
  145SAPE   H8R15922   2.434   4.648  10.605 -1.0911  1.7305  1.7548
  145SAPE   C2915923   2.352   4.612  10.403  0.1054  0.6273  0.2074
  145SAPE   H9R15924   2.386   4.508  10.405  1.6264  1.1085  0.0066
  145SAPE  C21015925   2.285   4.667  10.284  0.9746  0.2594  0.0803
  145SAPE  H10R15926   2.290   4.778  10.283 -0.3777  0.3274 -1.2449
  145SAPE  H10S15927   2.177   4.654  10.304  0.6620  0.2572 -1.5240
  145SAPE  C21115928   2.333   4.629  10.151  0.1682  0.3476  0.3836
  145SAPE  H11R15929   2.441   4.645  10.146  0.5362 -2.3949 -0.9672
  145SAPE  C21215930   2.265   4.602  10.042 -0.1173 -0.1212  0.2869
  145SAPE  H12R15931   2.327   4.580   9.954  0.4239 -1.5253  0.9959
  145SAPE  C21315932   2.110   4.594  10.036  0.1701 -0.8130 -0.3953
  145SAPE  H13R15933   2.090   4.699  10.004  2.9558 -0.7112 -1.9803
  145SAPE  H13S15934   2.069   4.591  10.139  2.3639  1.4429  0.6078
  145SAPE  C21415935   2.057   4.486   9.952  0.1612 -0.5499 -1.1321
  145SAPE  H14R15936   2.052   4.386   9.997  3.8386 -1.0514 -1.6791
  145SAPE  C21515937   2.009   4.497   9.830 -0.1982 -0.0735 -0.1028
  145SAPE  H15R15938   1.987   4.403   9.777 -0.4217 -1.3681  2.2504
  145SAPE  C21615939   1.993   4.622   9.745 -0.8352 -0.6106  0.5647
  145SAPE  H16R15940   1.979   4.710   9.812  1.3178  1.0821 -1.1174
  145SAPE  H16S15941   1.903   4.622   9.680  1.4793 -0.1073 -2.7514
  145SAPE  C21715942   2.115   4.646   9.657  0.1326 -0.9443 -0.3299
  145SAPE  H17R15943   2.131   4.552   9.599 -0.1327 -1.2304  0.0596
  145SAPE  H17S15944   2.208   4.664   9.714 -0.3758 -2.0126  0.8770
  145SAPE  C21815945   2.095   4.759   9.548 -0.8591  0.0627 -0.5659
  145SAPE  H18R15946   2.085   4.850   9.612 -0.0276  1.0484 -1.8087
  145SAPE  H18S15947   1.997   4.760   9.496 -1.4107 -0.0877  0.4633
  145SAPE  C21915948   2.214   4.779   9.449 -0.7253 -0.4418  0.0614
  145SAPE  H19R15949   2.238   4.676   9.414 -2.1091 -0.3685 -1.1624
  145SAPE  H19S15950   2.308   4.821   9.490 -1.4738  0.5131  0.8220
  145SAPE  C22015951   2.176   4.871   9.332  0.7099  0.3686 -0.1749
  145SAPE  H20R15952   2.173   4.972   9.376  0.5288  0.2104  0.1781
  145SAPE  H20S15953   2.074   4.848   9.292  1.1018  0.4318 -1.2267
  145SAPE  H20T15954   2.244   4.877   9.245 -0.0936 -3.7395 -1.2073
  145SAPE   C3315955   2.452   4.362  10.693  0.0028 -0.0722 -0.4822
  145SAPE   H3X15956   2.555   4.390  10.723  0.5803 -0.5857 -1.8997
  145SAPE   H3Y15957   2.455   4.406  10.590 -0.0149 -0.9652 -0.8712
  145SAPE   C3415958   2.442   4.209  10.691  0.6293  0.2077  0.0496
  145SAPE   H4X15959   2.333   4.186  10.686  1.0607 -1.7772 -0.6968
  145SAPE   H4Y15960   2.485   4.162  10.782  1.1640  0.4481 -0.0768
  145SAPE   C3515961   2.527   4.156  10.576  0.5650  0.2940  0.0147
  145SAPE   H5X15962   2.518   4.045  10.567  0.9291  0.1028  1.7663
  145SAPE   H5Y15963   2.636   4.179  10.584  0.4644  0.3573  1.3350
  145SAPE   C3615964   2.482   4.195  10.434  0.0419 -0.3083  0.4443
  145SAPE   H6X15965   2.561   4.156  10.366  0.5869 -1.6720  1.8328
  145SAPE   H6Y15966   2.491   4.304  10.417 -0.0638 -0.4376 -0.4670
  145SAPE   C3715967   2.344   4.148  10.397  0.0417  0.2081 -0.1906
  145SAPE   H7X15968   2.270   4.171  10.477  2.1547 -0.2347  1.9261
  145SAPE   H7Y15969   2.344   4.042  10.363  0.3497  1.0165 -2.7974
  145SAPE   C3815970   2.290   4.211  10.257  0.0307  0.1206  0.7088
  145SAPE   H8X15971   2.241   4.308  10.278  0.3532  0.2118  1.0391
  145SAPE   H8Y15972   2.203   4.151  10.223 -0.4465  1.3782 -0.3238
  145SAPE   C3915973   2.398   4.225  10.145  0.2712  0.0339 -0.2118
  145SAPE   H9X15974   2.462   4.135  10.151  0.4452  0.3232  3.0472
  145SAPE   H9Y15975   2.465   4.308  10.177  0.1948  0.1440 -0.3320
  145SAPE  C31015976   2.344   4.240  10.005 -0.4182  0.0320  0.1232
  145SAPE  H10X15977   2.338   4.349   9.986  1.8342  0.5720  2.3625
  145SAPE  H10Y15978   2.245   4.190   9.994 -0.9120  0.8782  0.6990
  145SAPE  C31115979   2.449   4.188   9.902  0.5233 -0.0470 -0.2101
  145SAPE  H11X15980   2.442   4.078   9.885  2.7080 -0.0416 -1.3697
  145SAPE  H11Y15981   2.549   4.206   9.948  1.1324 -0.0796 -1.4616
  145SAPE  C31215982   2.439   4.250   9.770  0.2684  0.1472  0.4093
  145SAPE  H12X15983   2.541   4.279   9.736 -0.4729  1.2822 -0.9097
  145SAPE  H12Y15984   2.386   4.348   9.772 -1.4114 -0.6286 -2.7634
  145SAPE  C31315985   2.385   4.149   9.671 -0.3814  0.1543 -0.2873
  145SAPE  H13X15986   2.285   4.120   9.709  0.4628 -2.2657  0.1593
  145SAPE  H13Y15987   2.442   4.055   9.654 -0.1348  0.4847 -1.3553
  145SAPE  C31415988   2.355   4.207   9.530  0.6184  0.0791  0.6061
  145SAPE  H14X15989   2.282   4.291   9.534  0.3075 -0.1563 -0.1152
  145SAPE  H14Y15990   2.311   4.116   9.484 -0.6038  0.1744  1.5537
  145SAPE  C31515991   2.475   4.266   9.458  0.0962 -0.2744  0.8190
  145SAPE  H15X15992   2.555   4.190   9.470  0.1348 -0.5394 -1.0449
  145SAPE  H15Y15993   2.503   4.362   9.506  0.9225  1.3838 -2.8546
  145SAPE  C31615994   2.441   4.289   9.313  0.4954  0.0246 -0.2362
  145SAPE  H16X15995   2.351   4.352   9.295  0.2521 -0.2090  0.1297
  145SAPE  H16Y15996   2.418   4.188   9.274 -0.1689  0.0397  0.1055
  145SAPE  C31715997   2.563   4.347   9.235  0.3153 -0.0670  0.9658
  145SAPE  H17X15998   2.640   4.268   9.252  2.6578  2.1084  0.6991
  145SAPE  H17Y15999   2.600   4.445   9.271 -1.0122  2.1042 -3.3480
  145SAPE  C31816000   2.531   4.378   9.082  0.2732  0.3609 -0.0468
  145SAPE  H18X16001   2.498   4.285   9.030 -1.0768 -0.3485  2.0215
  145SAPE  H18Y16002   2.617   4.413   9.020 -1.2846  1.9797 -1.3682
  145SAPE  H18Z16003   2.452   4.456   9.085  0.3914  0.4609  4.8146
  146SAPE     N16004   0.003   3.394  10.649  0.2496  0.0132 -0.0563
  146SAPE   HN116005   0.092   3.341  10.637  1.3661  1.7293  0.5051
  146SAPE   HN216006   0.009   3.496  10.668  1.3507 -0.4322  2.1665
  146SAPE   HN316007  -0.051   3.353  10.728  0.7309  1.3556  0.9868
  146SAPE   C1216008  -0.071   3.378  10.524 -0.0986 -0.4319  0.5167
  146SAPE  H12A16009  -0.075   3.271  10.495 -0.6978 -0.4587  0.7047
  146SAPE  H12B16010  -0.016   3.431  10.444  0.0162  0.2340  1.0275
  146SAPE   C1116011  -0.217   3.438  10.547 -0.5950 -1.6895  0.1739
  146SAPE  H11A16012  -0.272   3.361  10.605 -1.3266 -0.2737  1.3977
  146SAPE  H11B16013  -0.260   3.452  10.445 -2.0868  0.9702  1.1110
  146SAPE     P16014  -0.335   3.609  10.704 -0.0842  0.4549 -0.2274
  146SAPE   O1316015  -0.417   3.490  10.751  0.1126  0.3465  0.5898
  146SAPE   O1416016  -0.275   3.699  10.807  0.2021 -0.3169  0.2083
  146SAPE   O1216017  -0.214   3.562  10.613  0.1520 -0.2209  0.2852
  146SAPE   O1116018  -0.411   3.699  10.597  0.0995  0.0628  0.2022
  146SAPE    C116019  -0.344   3.815  10.548 -0.1727 -0.1495  0.1612
  146SAPE    HA16020  -0.399   3.911  10.560  1.7577  0.8361  1.3491
  146SAPE    HB16021  -0.248   3.832  10.601 -0.1295 -1.0084  0.3578
  146SAPE    C216022  -0.304   3.799  10.397 -0.5968 -0.4773 -0.7931
  146SAPE    HS16023  -0.228   3.718  10.403 -0.1374  0.0131  0.0986
  146SAPE   O2116024  -0.251   3.927  10.354  0.0362  0.2864  0.1859
  146SAPE   C2116025  -0.114   3.939  10.359  0.9394 -0.7861 -0.2346
  146SAPE   O2216026  -0.039   3.855  10.402 -0.4082 -0.0377 -0.4853
  146SAPE   C2216027  -0.066   4.066  10.297  0.5829  0.2654 -0.3342
  146SAPE   H2R16028  -0.096   4.067  10.190  1.1706  0.0920 -0.5036
  146SAPE   H2S16029  -0.108   4.149  10.358 -1.0037 -1.4017  0.9402
  146SAPE    C316030  -0.427   3.757  10.313  0.6123 -0.2473 -0.3353
  146SAPE    HX16031  -0.511   3.827  10.335 -0.3587 -2.1130  2.1316
  146SAPE    HY16032  -0.474   3.662  10.347  2.0327 -0.7579  0.2440
  146SAPE   O3116033  -0.394   3.759  10.177  0.1141 -0.5156  0.7610
  146SAPE   C3116034  -0.344   3.640  10.132 -0.1693 -0.0819  0.1227
  146SAPE   O3216035  -0.336   3.532  10.186 -0.1311  0.0914  0.4913
  146SAPE   C3216036  -0.297   3.663   9.994 -0.3162 -0.4319  0.0593
  146SAPE   H2X16037  -0.373   3.635   9.918 -0.1681 -2.5121  0.6306
  146SAPE   H2Y16038  -0.216   3.587   9.985 -0.3712 -0.3259 -1.4508
  146SAPE   C2316039   0.084   4.085  10.295  0.2891 -0.2983 -0.0377
  146SAPE   H3R16040   0.131   3.988  10.319 -1.6750 -1.0966  0.6625
  146SAPE   H3S16041   0.117   4.149  10.380  0.8930  1.5651 -1.6251
  146SAPE   C2416042   0.151   4.136  10.163 -0.7651 -0.0286 -0.0961
  146SAPE   H4R16043   0.110   4.066  10.087 -2.3722  2.0187 -1.1512
  146SAPE   H4S16044   0.261   4.131  10.169 -0.7640 -0.4605 -0.4407
  146SAPE   C2516045   0.099   4.270  10.144 -0.3535  0.2842 -0.4316
  146SAPE   H5R16046   0.140   4.348  10.210 -0.3575 -1.4405  1.6585
  146SAPE   C2616047   0.010   4.314  10.050  0.3247  0.0068  0.0176
  146SAPE   H6R16048  -0.022   4.419  10.063 -2.4269 -0.4347 -2.6044
  146SAPE   C2716049  -0.065   4.235   9.943 -0.0934 -0.2550  0.3843
  146SAPE   H7R16050  -0.143   4.165   9.983 -1.2067 -0.5990 -2.2974
  146SAPE   H7S16051   0.006   4.161   9.900  1.8896  0.2049  2.7816
  146SAPE   C2816052  -0.136   4.310   9.831  0.0659  0.3491 -0.0537
  146SAPE   H8R16053  -0.199   4.390   9.873  0.2058 -0.9452  2.7557
  146SAPE   C2916054  -0.153   4.283   9.701 -0.8264  0.0912 -0.2150
  146SAPE   H9R16055  -0.200   4.363   9.641  1.2154  1.4813  0.0109
  146SAPE  C21016056  -0.105   4.163   9.627 -0.4047 -0.2725 -0.1152
  146SAPE  H10R16057  -0.169   4.150   9.537 -1.4462 -1.8721  0.8364
  146SAPE  H10S16058  -0.124   4.077   9.695 -2.4338 -0.1565 -0.4783
  146SAPE  C21116059   0.042   4.175   9.594  0.1430 -0.4087  0.1249
  146SAPE  H11R16060   0.109   4.205   9.676 -2.1234  1.6594  1.2831
  146SAPE  C21216061   0.092   4.156   9.470 -0.0093  0.8300 -0.5781
  146SAPE  H12R16062   0.192   4.198   9.452  0.9523 -1.3920 -0.5795
  146SAPE  C21316063   0.034   4.112   9.339  0.7605  0.7221 -0.1246
  146SAPE  H13R16064  -0.066   4.065   9.356 -0.0316  1.4949 -2.5117
  146SAPE  H13S16065   0.093   4.026   9.302  0.5975  1.0447 -1.1389
  146SAPE  C21416066   0.027   4.226   9.242 -0.0526 -0.3923  0.3068
  146SAPE  H14R16067  -0.041   4.302   9.283 -0.4974  0.0396 -1.1780
  146SAPE  C21516068   0.090   4.239   9.123 -0.1368 -0.4423 -0.3620
  146SAPE  H15R16069   0.071   4.329   9.064  0.6805  1.0023  1.5398
  146SAPE  C21616070   0.189   4.150   9.055  0.5004 -1.0406 -0.2039
  146SAPE  H16R16071   0.199   4.193   8.953 -0.0092 -0.2478  0.0740
  146SAPE  H16S16072   0.152   4.047   9.037 -1.0112 -0.5875  0.1790
  146SAPE  C21716073   0.326   4.149   9.130 -0.0452 -0.2366 -0.0202
  146SAPE  H17R16074   0.309   4.100   9.228 -0.2371 -1.2668 -0.5684
  146SAPE  H17S16075   0.365   4.248   9.161  3.0247 -1.8575  1.5151
  146SAPE  C21816076   0.436   4.073   9.049  0.9037 -0.1295 -0.6924
  146SAPE  H18R16077   0.382   3.984   9.009 -1.2580  0.3462  1.0656
  146SAPE  H18S16078   0.513   4.040   9.122 -0.0717  1.2459  1.0182
  146SAPE  C21916079   0.504   4.156   8.940  0.3376  0.3998 -0.3127
  146SAPE  H19R16080   0.432   4.198   8.866 -0.3275 -0.0203  0.0908
  146SAPE  H19S16081   0.581   4.098   8.886  1.7016  2.5356 -0.7366
  146SAPE  C22016082   0.583   4.279   8.985 -0.3974 -0.2079 -0.0287
  146SAPE  H20R16083   0.639   4.269   9.080 -0.3165  1.5001  0.1334
  146SAPE  H20S16084   0.504   4.357   8.992 -0.4659 -0.0581 -1.9851
  146SAPE  H20T16085   0.663   4.303   8.911 -0.6658  0.7476 -0.0236
  146SAPE   C3316086  -0.248   3.803   9.965  0.5563 -0.5582  0.1034
  146SAPE   H3X16087  -0.146   3.813  10.008  0.6254 -1.9717  0.2652
  146SAPE   H3Y16088  -0.322   3.879  10.000  1.4261  0.6436 -0.6076
  146SAPE   C3416089  -0.203   3.814   9.820  0.4139 -0.5469 -0.7926
  146SAPE   H4X16090  -0.113   3.756   9.792  0.3774 -0.2635 -1.4979
  146SAPE   H4Y16091  -0.164   3.917   9.805  0.2505 -0.1707  1.1217
  146SAPE   C3516092  -0.314   3.803   9.719  0.5596  0.2027  0.3181
  146SAPE   H5X16093  -0.407   3.847   9.761 -0.8988 -0.8196 -1.7056
  146SAPE   H5Y16094  -0.334   3.694   9.712 -0.5366  0.2184  2.6260
  146SAPE   C3616095  -0.279   3.872   9.589 -0.3266  0.2315  0.7746
  146SAPE   H6X16096  -0.169   3.887   9.581 -0.3693 -0.1746 -0.6051
  146SAPE   H6Y16097  -0.318   3.976   9.581  2.3554  1.2833  0.7865
  146SAPE   C3716098  -0.331   3.801   9.467  0.0065  0.3085  0.4117
  146SAPE   H7X16099  -0.439   3.794   9.443  0.8768  0.9628 -4.0889
  146SAPE   H7Y16100  -0.299   3.694   9.472  0.0472  0.2069 -1.6266
  146SAPE   C3816101  -0.251   3.853   9.339  0.0336  0.4982 -0.3273
  146SAPE   H8X16102  -0.144   3.868   9.368 -0.4631 -0.1292  1.9612
  146SAPE   H8Y16103  -0.278   3.959   9.321  2.0534  0.8665 -1.3658
  146SAPE   C3916104  -0.267   3.763   9.221 -0.4689  0.1540  0.1602
  146SAPE   H9X16105  -0.367   3.716   9.205 -0.4433 -0.2523  1.1861
  146SAPE   H9Y16106  -0.191   3.683   9.234  0.6671  0.5680 -3.2318
  146SAPE  C31016107  -0.236   3.833   9.084  0.3638  0.3810 -0.6321
  146SAPE  H10X16108  -0.249   3.754   9.007  1.2598  0.0004 -0.3937
  146SAPE  H10Y16109  -0.133   3.870   9.068  0.4749  1.0356  1.4270
  146SAPE  C31116110  -0.322   3.962   9.055 -0.2872  0.2620  0.7509
  146SAPE  H11X16111  -0.321   4.029   9.144 -0.7931 -0.0795  1.0123
  146SAPE  H11Y16112  -0.430   3.938   9.056 -0.9550  3.1147  1.0537
  146SAPE  C31216113  -0.288   4.031   8.914  0.5717 -0.8867 -0.3373
  146SAPE  H12X16114  -0.179   4.052   8.908  0.4172 -0.1869 -0.7033
  146SAPE  H12Y16115  -0.339   4.129   8.925 -0.8057 -1.4655 -1.4316
  146SAPE  C31316116  -0.311   3.955   8.784 -1.3323 -1.1228  1.1160
  146SAPE  H13X16117  -0.420   3.939   8.769 -0.9660 -1.3643 -1.6167
  146SAPE  H13Y16118  -0.263   3.856   8.799 -0.7540 -0.6181  2.6338
  146SAPE  C31416119  -0.253   4.033   8.665 -0.3579  0.1579  0.1111
  146SAPE  H14X16120  -0.144   4.047   8.679  0.0077 -1.8088 -0.5867
  146SAPE  H14Y16121  -0.302   4.132   8.664  1.0088  0.8412 -0.5830
  146SAPE  C31516122  -0.271   3.964   8.524 -0.5604  0.0190 -0.4322
  146SAPE  H15X16123  -0.378   3.953   8.496 -0.3973 -0.3520 -0.9132
  146SAPE  H15Y16124  -0.255   3.857   8.546  1.8357  0.4334  0.0579
  146SAPE  C31616125  -0.201   4.036   8.406 -0.4419 -0.3259 -0.3991
  146SAPE  H16X16126  -0.091   4.045   8.414 -0.5181 -0.8437  1.3745
  146SAPE  H16Y16127  -0.233   4.141   8.390  0.5262  0.2653  1.4410
  146SAPE  C31716128  -0.240   3.961   8.278  0.3613 -0.1178  0.1140
  146SAPE  H17X16129  -0.176   3.993   8.193 -1.1162 -2.1112 -1.8174
  146SAPE  H17Y16130  -0.346   3.989   8.259  0.2131 -0.2504  0.7266
  146SAPE  C31816131  -0.219   3.803   8.285  0.2681 -0.1659 -0.3599
  146SAPE  H18X16132  -0.130   3.794   8.351  0.3519  2.8763  0.0181
  146SAPE  H18Y16133  -0.189   3.761   8.187  0.7875  3.8715 -2.0547
  146SAPE  H18Z16134  -0.305   3.748   8.329  1.6066 -1.0047  1.2697
  147SAPE     N16135   3.129   2.556   6.182  0.3389 -0.3615  0.1781
  147SAPE   HN116136   3.204   2.487   6.162 -1.9558 -3.2140  0.9920
  147SAPE   HN216137   3.169   2.613   6.260 -2.5300  0.2053  1.2849
  147SAPE   HN316138   3.048   2.496   6.205 -0.9769  1.1287 -0.4859
  147SAPE   C1216139   3.106   2.648   6.066 -1.1802  0.5246 -0.3409
  147SAPE  H12A16140   2.998   2.676   6.071 -0.8100  1.9118  0.1335
  147SAPE  H12B16141   3.127   2.588   5.975  2.9605  0.1321  0.7668
  147SAPE   C1116142   3.198   2.781   6.070 -0.1882 -0.5064  0.1330
  147SAPE  H11A16143   3.145   2.864   6.122  0.2797  0.7337 -1.3326
  147SAPE  H11B16144   3.205   2.810   5.963  1.2289  0.1666  0.3891
  147SAPE     P16145   3.382   2.800   6.261 -0.2233 -0.2577 -0.3046
  147SAPE   O1316146   3.512   2.733   6.287 -0.0489 -0.2314  0.5169
  147SAPE   O1416147   3.368   2.945   6.273 -0.1166 -0.3053 -0.7450
  147SAPE   O1216148   3.330   2.761   6.119  0.2274 -0.1575  0.1210
  147SAPE   O1116149   3.266   2.738   6.353 -0.0615 -0.1494 -0.3286
  147SAPE    C116150   3.299   2.720   6.492 -0.4770 -0.3843 -0.0174
  147SAPE    HA16151   3.355   2.804   6.538  1.7423 -0.9863 -1.5469
  147SAPE    HB16152   3.202   2.704   6.544 -0.6544 -0.3640 -0.3369
  147SAPE    C216153   3.381   2.594   6.527  0.1994 -0.2358 -0.0510
  147SAPE    HS16154   3.407   2.545   6.430  0.4790 -0.9311  0.3677
  147SAPE   O2116155   3.305   2.493   6.598 -0.4630  0.1279 -0.1115
  147SAPE   C2116156   3.384   2.386   6.627 -0.0781 -0.2792  0.9500
  147SAPE   O2216157   3.487   2.352   6.572  0.4584 -0.3732  0.3303
  147SAPE   C2216158   3.316   2.303   6.735 -0.8526 -0.0685 -0.6042
  147SAPE   H2R16159   3.336   2.337   6.839  2.8588  0.4543 -1.4447
  147SAPE   H2S16160   3.206   2.315   6.719 -0.8789 -0.2650 -0.5745
  147SAPE    C316161   3.513   2.637   6.609  0.7634  0.1282  0.1261
  147SAPE    HX16162   3.563   2.722   6.558  0.6535 -0.2598 -0.6341
  147SAPE    HY16163   3.595   2.563   6.599  0.2594 -0.7474  2.2481
  147SAPE   O3116164   3.473   2.666   6.743 -0.2737  0.0251 -0.3118
  147SAPE   C3116165   3.478   2.791   6.776  0.4822  0.1166 -0.2183
  147SAPE   O3216166   3.510   2.880   6.700 -0.8088 -0.7304  0.4752
  147SAPE   C3216167   3.452   2.803   6.926 -0.2502 -0.4060 -0.3025
  147SAPE   H2X16168   3.437   2.701   6.968  0.2233 -1.5782 -2.8393
  147SAPE   H2Y16169   3.358   2.860   6.941  1.2948  1.8297  1.1137
  147SAPE   C2316170   3.363   2.155   6.710  0.2281  0.2730 -0.0562
  147SAPE   H3R16171   3.404   2.134   6.609  1.7881 -1.0097  0.8034
  147SAPE   H3S16172   3.269   2.098   6.717 -0.3625  0.9926 -1.9169
  147SAPE   C2416173   3.454   2.110   6.824 -0.9991 -0.1258 -0.1098
  147SAPE   H4R16174   3.477   2.004   6.798 -0.9722 -0.7028  2.1393
  147SAPE   H4S16175   3.398   2.103   6.919 -1.1237 -1.4875 -0.2701
  147SAPE   C2516176   3.588   2.189   6.843  0.0444  1.1892 -0.8114
  147SAPE   H5R16177   3.632   2.219   6.747 -0.8240 -1.1055 -1.9450
  147SAPE   C2616178   3.657   2.215   6.955  0.4830 -0.2270  0.0274
  147SAPE   H6R16179   3.747   2.272   6.926  0.6255 -0.6633 -0.3878
  147SAPE   C2716180   3.629   2.174   7.097  0.2746  0.0268 -0.9657
  147SAPE   H7R16181   3.697   2.088   7.112  1.8813  1.4511  0.1550
  147SAPE   H7S16182   3.526   2.132   7.104  0.0520  0.8470  1.1055
  147SAPE   C2816183   3.641   2.290   7.189 -1.2634  1.0263 -0.3219
  147SAPE   H8R16184   3.739   2.297   7.239  0.0259 -0.9281 -2.4833
  147SAPE   C2916185   3.545   2.377   7.224 -0.5799  0.1495 -0.0001
  147SAPE   H9R16186   3.577   2.458   7.292  2.9932 -0.9401 -0.2601
  147SAPE  C21016187   3.400   2.367   7.190  0.6431  0.0310 -0.3636
  147SAPE  H10R16188   3.358   2.272   7.229 -0.0255  0.7525  0.7004
  147SAPE  H10S16189   3.392   2.369   7.080  1.0080  2.1933 -0.3619
  147SAPE  C21116190   3.326   2.491   7.243  0.3965 -0.0015  0.0276
  147SAPE  H11R16191   3.324   2.573   7.169  2.3492 -0.3551 -0.4695
  147SAPE  C21216192   3.291   2.512   7.374  0.7136 -0.0041 -0.4076
  147SAPE  H12R16193   3.241   2.608   7.393  2.1403  0.6840 -0.1369
  147SAPE  C21316194   3.304   2.429   7.495  0.1098  0.1156  0.1347
  147SAPE  H13R16195   3.374   2.482   7.563 -0.3354  0.2283  0.5006
  147SAPE  H13S16196   3.350   2.332   7.468 -0.2520 -0.2109  0.6826
  147SAPE  C21416197   3.176   2.405   7.568  0.2759 -0.0874 -0.1207
  147SAPE  H14R16198   3.084   2.447   7.526  0.6284  0.7736 -0.0311
  147SAPE  C21516199   3.150   2.320   7.669 -0.2596 -1.1099  0.1749
  147SAPE  H15R16200   3.050   2.319   7.716  0.6844 -1.4304  2.2320
  147SAPE  C21616201   3.253   2.229   7.733  0.0972 -0.4312  0.7772
  147SAPE  H16R16202   3.352   2.236   7.682  1.1693  0.9570  2.9741
  147SAPE  H16S16203   3.230   2.121   7.721  1.1517 -0.5086 -0.6923
  147SAPE  C21716204   3.270   2.265   7.882  0.6437  0.2204 -0.6994
  147SAPE  H17R16205   3.172   2.268   7.933  0.2483  0.9179 -1.4863
  147SAPE  H17S16206   3.310   2.369   7.883  1.6946 -0.1868  0.1565
  147SAPE  C21816207   3.357   2.173   7.964 -0.2717 -0.4802 -0.6211
  147SAPE  H18R16208   3.455   2.149   7.917  0.3220 -1.5659  1.1185
  147SAPE  H18S16209   3.309   2.073   7.969 -0.6295 -0.3138 -0.6870
  147SAPE  C21916210   3.381   2.217   8.113 -0.7441  1.0631  0.9895
  147SAPE  H19R16211   3.433   2.126   8.153 -3.6334 -0.6541  0.9888
  147SAPE  H19S16212   3.280   2.216   8.160 -0.1769 -0.4088  2.2513
  147SAPE  C22016213   3.454   2.350   8.123  0.5075  0.4170  0.0984
  147SAPE  H20R16214   3.380   2.430   8.102  0.6532  0.8963  1.3176
  147SAPE  H20S16215   3.538   2.355   8.051  0.9247 -0.2021  0.5258
  147SAPE  H20T16216   3.498   2.360   8.225  1.9150 -1.3110 -0.3148
  147SAPE   C3316217   3.562   2.890   6.991  0.0177  0.6945 -0.3715
  147SAPE   H3X16218   3.565   2.993   6.950  1.1275  0.7061 -0.2614
  147SAPE   H3Y16219   3.657   2.833   6.982 -2.2255 -3.3367  0.0687
  147SAPE   C3416220   3.550   2.895   7.147  0.2437  0.3934  0.3735
  147SAPE   H4X16221   3.444   2.916   7.171 -0.5646 -1.6944 -1.1913
  147SAPE   H4Y16222   3.610   2.978   7.189  3.0293 -1.0936 -0.5229
  147SAPE   C3516223   3.592   2.768   7.218  0.0284  1.4310  0.1694
  147SAPE   H5X16224   3.690   2.727   7.188 -0.6948 -0.0465 -0.2157
  147SAPE   H5Y16225   3.534   2.679   7.185 -0.6782  1.8177  0.3580
  147SAPE   C3616226   3.569   2.778   7.370  0.3949 -0.6266  0.0206
  147SAPE   H6X16227   3.581   2.677   7.416 -1.8716 -1.0645 -0.3163
  147SAPE   H6Y16228   3.462   2.807   7.375  0.0783 -1.9281  1.2041
  147SAPE   C3716229   3.663   2.879   7.438  0.5435 -0.5475  0.4275
  147SAPE   H7X16230   3.662   2.858   7.547  0.4380  1.0711  0.7435
  147SAPE   H7Y16231   3.634   2.984   7.419  0.1657 -0.9181 -1.0740
  147SAPE   C3816232   3.811   2.878   7.383  1.2059 -0.3607  0.1604
  147SAPE   H8X16233   3.827   2.917   7.280  0.2142 -0.4128 -0.0097
  147SAPE   H8Y16234   3.839   2.772   7.370  2.3289 -0.0639  0.0994
  147SAPE   C3916235   3.911   2.944   7.480  0.0785 -0.1939  0.0169
  147SAPE   H9X16236   3.891   3.051   7.504  0.4483 -0.2407  0.5683
  147SAPE   H9Y16237   4.004   2.948   7.420  0.7106 -0.6531  0.9580
  147SAPE  C31016238   3.936   2.864   7.606 -0.2332  0.7431 -0.6053
  147SAPE  H10X16239   3.988   2.772   7.573 -1.0568  0.3969 -0.9502
  147SAPE  H10Y16240   3.836   2.840   7.648 -0.0503 -0.1590 -0.6838
  147SAPE  C31116241   4.005   2.930   7.721  0.2787 -0.7392  0.1184
  147SAPE  H11X16242   3.944   3.018   7.750  0.4612 -1.1715  1.8899
  147SAPE  H11Y16243   4.096   2.985   7.689 -0.5688  0.3553 -0.4434
  147SAPE  C31216244   4.021   2.832   7.842 -0.6399 -0.5020  0.6568
  147SAPE  H12X16245   4.083   2.751   7.799 -1.4729 -0.5581 -0.4696
  147SAPE  H12Y16246   3.925   2.778   7.854 -0.5652 -1.6484 -3.0481
  147SAPE  C31316247   4.054   2.903   7.976  0.1336  1.0571 -0.4959
  147SAPE  H13X16248   3.965   2.936   8.033  0.5732  0.7866  0.3527
  147SAPE  H13Y16249   4.117   2.994   7.966 -2.3698  2.5646 -3.2435
  147SAPE  C31416250   4.124   2.802   8.075  0.3567 -0.5058 -0.6193
  147SAPE  H14X16251   4.219   2.759   8.037  0.1514 -1.9496  0.4663
  147SAPE  H14Y16252   4.057   2.717   8.102 -1.3700  1.8539  2.8557
  147SAPE  C31516253   4.166   2.879   8.203  0.2260 -0.8544 -0.0552
  147SAPE  H15X16254   4.069   2.896   8.255  0.3408 -1.8289  0.4855
  147SAPE  H15Y16255   4.215   2.972   8.168 -1.6988  0.2486  0.0961
  147SAPE  C31616256   4.254   2.799   8.298  0.1898 -0.7665 -0.0282
  147SAPE  H16X16257   4.358   2.784   8.263  1.3739  1.2735  2.5179
  147SAPE  H16Y16258   4.203   2.701   8.313 -0.2159 -0.4343  0.7705
  147SAPE  C31716259   4.266   2.852   8.445 -0.2674  0.3748  0.2831
  147SAPE  H17X16260   4.286   2.960   8.428 -0.9554  0.1979 -1.8015
  147SAPE  H17Y16261   4.353   2.796   8.486 -0.0387  0.0979 -0.5760
  147SAPE  C31816262   4.139   2.844   8.530 -0.3334  0.2224  0.3950
  147SAPE  H18X16263   4.060   2.885   8.464 -0.1519  1.0212  0.6659
  147SAPE  H18Y16264   4.145   2.895   8.629 -0.6584 -2.5078  1.8702
  147SAPE  H18Z16265   4.119   2.736   8.540  4.5719 -1.0861 -2.2288
  148SAPE     N16266   2.754   6.810   6.669  0.2190 -0.2614 -0.3060
  148SAPE   HN116267   2.652   6.831   6.664 -0.1917 -2.4507 -1.6882
  148SAPE   HN216268   2.792   6.768   6.582  0.9608 -0.9442  0.3383
  148SAPE   HN316269   2.762   6.735   6.741 -0.7063 -2.5359 -2.5174
  148SAPE   C1216270   2.838   6.928   6.716  0.4677 -0.0175 -0.3817
  148SAPE  H12A16271   2.926   6.943   6.649  0.3445 -2.7939 -1.2405
  148SAPE  H12B16272   2.883   6.901   6.814 -1.0614 -3.5098 -0.5689
  148SAPE   C1116273   2.760   7.055   6.729  0.6234  0.1959 -0.2065
  148SAPE  H11A16274   2.825   7.130   6.778 -3.0682  2.0422  2.0769
  148SAPE  H11B16275   2.671   7.037   6.794  0.1427  3.2661  0.0398
  148SAPE     P16276   2.620   7.219   6.578  0.2135  0.0371  0.1127
  148SAPE   O1316277   2.635   7.268   6.437  0.5525  0.1572 -0.3994
  148SAPE   O1416278   2.483   7.182   6.617  0.4326  0.1067  0.0223
  148SAPE   O1216279   2.718   7.097   6.602 -0.5128 -0.1385  0.0786
  148SAPE   O1116280   2.688   7.327   6.677  0.3090 -0.1221 -0.3869
  148SAPE    C116281   2.604   7.398   6.772  0.5883 -0.1719 -0.0814
  148SAPE    HA16282   2.545   7.471   6.712  1.7552 -0.0830 -1.1449
  148SAPE    HB16283   2.538   7.321   6.818 -0.3551  1.6684  1.7429
  148SAPE    C216284   2.685   7.456   6.882 -0.4877 -0.0505  0.1572
  148SAPE    HS16285   2.772   7.502   6.831 -0.9643  0.3863 -0.2756
  148SAPE   O2116286   2.731   7.352   6.968 -0.0199  0.4611 -0.0331
  148SAPE   C2116287   2.849   7.387   7.022 -0.1748 -1.1438  0.1660
  148SAPE   O2216288   2.912   7.491   7.001  0.5840 -0.8053 -0.3217
  148SAPE   C2216289   2.888   7.283   7.134 -0.1948 -0.1212 -0.5656
  148SAPE   H2R16290   2.845   7.302   7.235  0.2898 -3.4079  0.3161
  148SAPE   H2S16291   2.849   7.184   7.102  0.7450 -0.5575 -0.3875
  148SAPE    C316292   2.605   7.572   6.949 -0.6147  0.5389 -0.4256
  148SAPE    HX16293   2.509   7.517   6.961 -2.1807  3.3786  0.6185
  148SAPE    HY16294   2.570   7.659   6.890  0.4240 -1.4752 -4.1039
  148SAPE   O3116295   2.648   7.603   7.085 -0.1987 -0.3130  0.3233
  148SAPE   C3116296   2.731   7.695   7.093  0.4990 -0.6354  0.0777
  148SAPE   O3216297   2.765   7.774   7.001  0.6690 -0.1343  0.6464
  148SAPE   C3216298   2.765   7.712   7.244 -0.4474 -0.5688  0.1722
  148SAPE   H2X16299   2.673   7.733   7.303  0.2642  1.2678  0.6596
  148SAPE   H2Y16300   2.819   7.809   7.249 -1.2284 -0.1522  0.6225
  148SAPE   C2316301   3.044   7.280   7.146  0.3443 -0.2665  0.3442
  148SAPE   H3R16302   3.074   7.386   7.157 -2.8592  0.7120  0.1388
  148SAPE   H3S16303   3.072   7.242   7.045 -0.5422 -2.7155  0.9860
  148SAPE   C2416304   3.097   7.190   7.257  0.3061 -0.1427  0.1134
  148SAPE   H4R16305   3.064   7.233   7.355  0.2989  0.8238 -0.3065
  148SAPE   H4S16306   3.208   7.198   7.261  0.3004 -0.3936  1.1744
  148SAPE   C2516307   3.071   7.042   7.245  0.2771  0.5238  0.2281
  148SAPE   H5R16308   3.117   7.003   7.152  0.1843 -0.8194  0.7368
  148SAPE   C2616309   3.019   6.958   7.339 -0.4562  0.1489  0.0087
  148SAPE   H6R16310   3.006   6.850   7.330  0.5755 -0.0116  0.3790
  148SAPE   C2716311   2.975   7.007   7.470  0.5346  0.4190  0.0737
  148SAPE   H7R16312   2.881   6.952   7.494  0.9750  0.9590  3.2096
  148SAPE   H7S16313   2.940   7.113   7.470  0.3537  0.3616  0.7213
  148SAPE   C2816314   3.081   6.998   7.578 -0.2301 -0.0171 -0.5387
  148SAPE   H8R16315   3.174   7.051   7.553 -1.2839  0.4773 -3.6187
  148SAPE   C2916316   3.083   6.926   7.691 -0.0843 -0.7656 -0.0897
  148SAPE   H9R16317   3.158   6.942   7.769 -0.2858  1.8982 -0.3933
  148SAPE  C21016318   2.968   6.842   7.749 -0.7314 -0.2840 -0.8994
  148SAPE  H10R16319   2.872   6.852   7.694 -1.5309  1.4388  0.7594
  148SAPE  H10S16320   2.938   6.876   7.851  2.4421 -0.4506  0.1652
  148SAPE  C21116321   3.026   6.701   7.759  0.1493 -0.1815  0.4421
  148SAPE  H11R16322   3.058   6.652   7.665  1.9406  0.8597  0.4705
  148SAPE  C21216323   3.051   6.637   7.874 -0.5856 -0.4102 -0.2264
  148SAPE  H12R16324   3.082   6.532   7.874 -0.9240 -0.5169  1.0038
  148SAPE  C21316325   3.037   6.707   8.006 -0.5638  0.2361  0.6933
  148SAPE  H13R16326   2.929   6.700   8.028 -0.3731  1.7219  2.2268
  148SAPE  H13S16327   3.053   6.817   7.999 -2.1075  0.4094 -0.2235
  148SAPE  C21416328   3.118   6.659   8.123  0.4449  0.2939  0.0725
  148SAPE  H14R16329   3.214   6.712   8.136  0.5653  0.5246 -1.5931
  148SAPE  C21516330   3.079   6.588   8.226 -0.0286 -0.5031  0.1046
  148SAPE  H15R16331   3.158   6.573   8.302  2.5398  2.8671 -1.7963
  148SAPE  C21616332   2.943   6.532   8.247 -0.2417 -0.4984 -0.4480
  148SAPE  H16R16333   2.941   6.428   8.208  0.3489 -0.8164  0.3686
  148SAPE  H16S16334   2.857   6.590   8.209 -2.3302  0.2407  5.0711
  148SAPE  C21716335   2.917   6.508   8.401  0.1343 -0.4257  0.5647
  148SAPE  H17R16336   3.001   6.456   8.451 -0.6197 -0.1110  2.1766
  148SAPE  H17S16337   2.843   6.425   8.407  0.2178 -0.6138 -0.7513
  148SAPE  C21816338   2.880   6.633   8.484  0.2290 -0.8620 -0.2708
  148SAPE  H18R16339   2.801   6.695   8.437  1.4517  0.0787 -1.1007
  148SAPE  H18S16340   2.961   6.709   8.483  0.7370 -1.3993 -0.7100
  148SAPE  C21916341   2.849   6.602   8.636 -0.0437 -0.7253  1.0762
  148SAPE  H19R16342   2.948   6.571   8.675  0.2851 -0.7398  0.2395
  148SAPE  H19S16343   2.775   6.519   8.631  1.3915 -1.9167 -1.5548
  148SAPE  C22016344   2.800   6.727   8.709 -0.1796  0.7035 -0.2193
  148SAPE  H20R16345   2.874   6.810   8.705  0.6532  0.0521  1.4915
  148SAPE  H20S16346   2.783   6.700   8.815  1.2934  0.5614 -0.0034
  148SAPE  H20T16347   2.706   6.768   8.665 -0.9115 -0.6745  0.0269
  148SAPE   C3316348   2.859   7.601   7.305  0.3278  0.1974 -0.3906
  148SAPE   H3X16349   2.945   7.581   7.236 -0.5925 -0.4479 -1.3655
  148SAPE   H3Y16350   2.799   7.507   7.306  1.4073 -0.5587  4.3581
  148SAPE   C3416351   2.906   7.623   7.451 -0.7113  0.6197  0.2527
  148SAPE   H4X16352   2.817   7.638   7.515 -0.2982 -1.8615  1.4882
  148SAPE   H4Y16353   2.974   7.707   7.476 -0.8060  0.9827 -0.7056
  148SAPE   C3516354   2.971   7.489   7.499  0.3135  0.0488  0.3309
  148SAPE   H5X16355   3.065   7.468   7.444 -1.7394 -2.4557 -2.3557
  148SAPE   H5Y16356   2.901   7.406   7.475 -1.0390  1.2210  0.1489
  148SAPE   C3616357   3.011   7.511   7.648  0.9408  0.4222 -0.6750
  148SAPE   H6X16358   2.926   7.546   7.709  0.1010 -1.3367 -0.8096
  148SAPE   H6Y16359   3.085   7.593   7.662  1.5786 -0.2558 -0.0773
  148SAPE   C3716360   3.068   7.377   7.705 -0.0801  0.5435 -0.2699
  148SAPE   H7X16361   3.154   7.358   7.637 -0.1272  0.3091 -0.2651
  148SAPE   H7Y16362   2.997   7.292   7.699  1.5771 -0.8279 -0.6286
  148SAPE   C3816363   3.118   7.378   7.852 -0.6966  0.2678 -0.0911
  148SAPE   H8X16364   3.148   7.278   7.890  0.5485  1.0112  0.9072
  148SAPE   H8Y16365   3.035   7.410   7.919 -1.3438 -3.1910  0.8756
  148SAPE   C3916366   3.237   7.469   7.869 -0.0331 -0.3802 -0.1056
  148SAPE   H9X16367   3.233   7.556   7.801 -0.0146 -1.6120 -1.7094
  148SAPE   H9Y16368   3.325   7.409   7.837  2.0554  1.9486  1.1782
  148SAPE  C31016369   3.238   7.525   8.008 -0.6093  0.8366 -0.3998
  148SAPE  H10X16370   3.148   7.587   8.030  1.3254  2.8931  2.0544
  148SAPE  H10Y16371   3.322   7.597   8.018  0.6788 -0.5851 -0.8774
  148SAPE  C31116372   3.266   7.422   8.122 -0.1916 -0.2582 -0.5151
  148SAPE  H11X16373   3.372   7.389   8.115  0.0184  0.2332  0.3187
  148SAPE  H11Y16374   3.190   7.342   8.111 -1.5914  0.7563  1.6748
  148SAPE  C31216375   3.256   7.484   8.266 -0.3216  1.0688 -0.0298
  148SAPE  H12X16376   3.155   7.531   8.276 -1.4392 -1.3550  0.2868
  148SAPE  H12Y16377   3.333   7.563   8.281 -1.2095  2.2667 -1.5395
  148SAPE  C31316378   3.289   7.390   8.380 -0.5106  0.2211 -0.1044
  148SAPE  H13X16379   3.391   7.350   8.367 -0.6579 -0.4829  0.8651
  148SAPE  H13Y16380   3.222   7.301   8.373  1.5940 -1.6358  2.2829
  148SAPE  C31416381   3.286   7.462   8.519  0.0988 -0.1975 -0.2928
  148SAPE  H14X16382   3.191   7.512   8.546 -0.1125 -1.7142  1.8796
  148SAPE  H14Y16383   3.368   7.537   8.526 -0.7987  0.6090  2.0323
  148SAPE  C31516384   3.313   7.372   8.647  0.1890 -0.1077  0.0637
  148SAPE  H15X16385   3.316   7.434   8.739  1.2965  1.7525 -1.2118
  148SAPE  H15Y16386   3.410   7.320   8.638 -0.1279 -0.6874 -0.0388
  148SAPE  C31616387   3.201   7.266   8.650  0.4145  0.0070 -0.3364
  148SAPE  H16X16388   3.220   7.184   8.577  0.8243 -2.0089  1.9510
  148SAPE  H16Y16389   3.109   7.313   8.610 -0.8979 -2.5725 -0.4191
  148SAPE  C31716390   3.159   7.207   8.781 -0.5882  0.1968  0.1579
  148SAPE  H17X16391   3.247   7.149   8.819 -0.1698  0.8946  0.2637
  148SAPE  H17Y16392   3.085   7.126   8.761 -2.3657  1.4009  1.7694
  148SAPE  C31816393   3.093   7.314   8.872 -0.0562 -0.0218 -0.3665
  148SAPE  H18X16394   3.003   7.343   8.814  0.6201  1.1697 -0.8452
  148SAPE  H18Y16395   3.148   7.410   8.885 -2.7843  1.5218  0.4022
  148SAPE  H18Z16396   3.077   7.279   8.976 -1.4770  1.2523 -0.1372
  149SAPE     N16397   2.875   0.787   6.447  0.5505 -0.0277  0.3975
  149SAPE   HN116398   2.954   0.827   6.391 -0.4563  0.5789 -0.6187
  149SAPE   HN216399   2.911   0.708   6.504  0.1540 -0.0146  0.6625
  149SAPE   HN316400   2.797   0.763   6.384  1.8343 -2.7524 -0.2041
  149SAPE   C1216401   2.817   0.894   6.545  0.2079  0.4331 -0.0716
  149SAPE  H12A16402   2.749   0.835   6.610  0.8481  0.4463  0.6198
  149SAPE  H12B16403   2.754   0.958   6.479 -1.6983 -0.6133  0.6852
  149SAPE   C1116404   2.935   0.963   6.621  0.1976  0.4711 -0.6344
  149SAPE  H11A16405   2.998   0.895   6.683 -0.6080 -0.7439 -1.1449
  149SAPE  H11B16406   2.903   1.042   6.692  1.3539  0.4757 -0.0933
  149SAPE     P16407   3.040   1.177   6.497  0.0990  0.2466  0.1683
  149SAPE   O1316408   3.131   1.202   6.382 -0.1273  0.0926  0.0395
  149SAPE   O1416409   2.904   1.234   6.478 -0.1531 -0.2750 -0.2949
  149SAPE   O1216410   3.021   1.021   6.519  0.2005  0.2480 -0.3155
  149SAPE   O1116411   3.103   1.243   6.629 -0.3523 -0.3347  0.4425
  149SAPE    C116412   3.199   1.162   6.702 -0.7013 -0.2124 -0.9108
  149SAPE    HA16413   3.160   1.060   6.722 -0.6270  0.0512  0.6469
  149SAPE    HB16414   3.297   1.137   6.656 -0.4606  0.3592 -0.7089
  149SAPE    C216415   3.215   1.227   6.843 -0.5055 -1.1648  0.6998
  149SAPE    HS16416   3.112   1.224   6.884 -1.7335 -3.3365 -2.3553
  149SAPE   O2116417   3.257   1.366   6.832 -0.0523 -0.1215  0.1830
  149SAPE   C2116418   3.223   1.443   6.934  0.0861 -0.1769 -0.4013
  149SAPE   O2216419   3.140   1.424   7.021  0.4952  0.2574  0.4640
  149SAPE   C2216420   3.324   1.560   6.934  0.0455  0.3716  0.3499
  149SAPE   H2R16421   3.421   1.521   6.897 -0.2002 -0.8088  0.9440
  149SAPE   H2S16422   3.280   1.639   6.870  1.1984  1.1604  0.5141
  149SAPE    C316423   3.307   1.142   6.928 -0.0576  0.2215  0.5778
  149SAPE    HX16424   3.403   1.164   6.875  0.3952  0.1161  1.3440
  149SAPE    HY16425   3.281   1.034   6.928  0.6341  0.0512  1.1454
  149SAPE   O3116426   3.316   1.196   7.057  0.0745  0.2471  0.1631
  149SAPE   C3116427   3.212   1.168   7.142  0.4425  0.2199 -0.0676
  149SAPE   O3216428   3.108   1.108   7.107  0.2464  0.0073 -0.3109
  149SAPE   C3216429   3.243   1.205   7.284  0.2212 -0.1612  0.6329
  149SAPE   H2X16430   3.255   1.315   7.291  0.3032  0.0660 -2.5267
  149SAPE   H2Y16431   3.341   1.157   7.308  0.7091 -0.5499 -1.9872
  149SAPE   C2316432   3.328   1.619   7.072  0.8878  0.5128  0.2326
  149SAPE   H3R16433   3.347   1.535   7.142  0.0155 -0.5000 -0.7197
  149SAPE   H3S16434   3.226   1.655   7.097  0.9719  0.1170  1.1642
  149SAPE   C2416435   3.429   1.729   7.075 -0.5682 -0.4908 -1.2666
  149SAPE   H4R16436   3.397   1.805   7.149 -0.5366 -2.8973  1.3101
  149SAPE   H4S16437   3.429   1.791   6.983  0.5584  1.1184 -0.2002
  149SAPE   C2516438   3.565   1.683   7.107  0.1381 -0.1904 -0.2329
  149SAPE   H5R16439   3.620   1.650   7.018  1.1954  2.2309 -0.5278
  149SAPE   C2616440   3.627   1.689   7.225  0.1405  0.5047  0.1851
  149SAPE   H6R16441   3.727   1.643   7.224  0.8260  1.9585 -1.5247
  149SAPE   C2716442   3.573   1.747   7.354  0.0317 -0.2009 -0.1065
  149SAPE   H7R16443   3.614   1.691   7.442 -0.5325  0.4164  0.5555
  149SAPE   H7S16444   3.463   1.735   7.363  0.1657 -1.2229  0.2828
  149SAPE   C2816445   3.615   1.889   7.369  0.4073 -0.1038 -0.4313
  149SAPE   H8R16446   3.654   1.939   7.279  2.1451 -0.1103  0.2945
  149SAPE   C2916447   3.624   1.957   7.487 -0.4987  0.3781 -0.7173
  149SAPE   H9R16448   3.655   2.063   7.490  0.4406  0.0532  3.6866
  149SAPE  C21016449   3.594   1.899   7.613 -0.0891 -0.2514  0.1345
  149SAPE  H10R16450   3.531   1.809   7.595  0.3427 -0.5626  0.1761
  149SAPE  H10S16451   3.529   1.971   7.667 -1.0548 -1.3023  0.3847
  149SAPE  C21116452   3.713   1.857   7.692 -0.7652 -0.2871 -0.1788
  149SAPE  H11R16453   3.800   1.824   7.634  0.3472  0.0024  1.2869
  149SAPE  C21216454   3.725   1.870   7.821  0.0889 -0.8908  0.2418
  149SAPE  H12R16455   3.824   1.851   7.865  1.7040  0.1166 -2.8304
  149SAPE  C21316456   3.617   1.913   7.921  0.5723 -0.0819  0.8052
  149SAPE  H13R16457   3.533   1.968   7.874  2.5806  1.8690 -0.5909
  149SAPE  H13S16458   3.656   1.997   7.981  2.8339  0.8026 -1.8250
  149SAPE  C21416459   3.558   1.816   8.022 -0.0315  0.1784 -0.4739
  149SAPE  H14R16460   3.453   1.794   7.999  0.3273  0.1277 -2.1071
  149SAPE  C21516461   3.601   1.768   8.140  0.3969  0.5328  0.3500
  149SAPE  H15R16462   3.546   1.691   8.195  1.4961 -0.3107  0.2934
  149SAPE  C21616463   3.730   1.812   8.203  0.1835 -0.0311 -0.0088
  149SAPE  H16R16464   3.805   1.859   8.137 -0.3678 -1.4893 -1.7290
  149SAPE  H16S16465   3.792   1.730   8.244  2.5921  1.8951  0.2862
  149SAPE  C21716466   3.701   1.914   8.319  0.5240 -0.2494  0.8363
  149SAPE  H17R16467   3.628   1.989   8.282  0.5055 -0.7330 -0.1401
  149SAPE  H17S16468   3.800   1.963   8.333  0.7163 -0.4268  0.1207
  149SAPE  C21816469   3.654   1.841   8.447  0.6432 -0.7706 -0.1327
  149SAPE  H18R16470   3.726   1.763   8.480  1.4590  0.0703  0.0947
  149SAPE  H18S16471   3.563   1.790   8.410  0.8101  1.1109 -3.3083
  149SAPE  C21916472   3.636   1.932   8.571 -0.1654 -0.3823 -0.3753
  149SAPE  H19R16473   3.539   1.985   8.584 -0.9463 -2.2848  1.8494
  149SAPE  H19S16474   3.717   2.008   8.559 -0.2935 -0.0771  0.6718
  149SAPE  C22016475   3.634   1.842   8.693  0.5204  0.7396  0.0942
  149SAPE  H20R16476   3.573   1.752   8.669 -0.1285  1.2808 -0.2812
  149SAPE  H20S16477   3.585   1.892   8.779  2.9313 -0.8617  2.4890
  149SAPE  H20T16478   3.738   1.808   8.710 -0.2780 -1.5799  0.5806
  149SAPE   C3316479   3.127   1.171   7.377  0.2330 -0.6322 -0.5840
  149SAPE   H3X16480   3.163   1.174   7.482 -1.4140  0.8763 -0.0300
  149SAPE   H3Y16481   3.097   1.066   7.359 -1.2014  0.3133 -4.0182
  149SAPE   C3416482   3.010   1.264   7.375  0.3861  0.3039  0.2880
  149SAPE   H4X16483   2.944   1.231   7.292 -1.6288  1.0797  1.5398
  149SAPE   H4Y16484   3.039   1.367   7.346  0.0900  0.5050  0.7033
  149SAPE   C3516485   2.937   1.281   7.504  0.2617  1.0200 -0.1307
  149SAPE   H5X16486   2.856   1.356   7.489 -1.3166 -0.9211 -1.4801
  149SAPE   H5Y16487   3.011   1.321   7.577 -2.9881 -1.6306  4.9596
  149SAPE   C3616488   2.870   1.157   7.564 -0.2039  0.6644 -0.0198
  149SAPE   H6X16489   2.937   1.069   7.551 -0.5206  0.8102 -3.1032
  149SAPE   H6Y16490   2.773   1.136   7.514  0.7154  0.7436 -1.9032
  149SAPE   C3716491   2.844   1.170   7.719 -0.7271 -0.1424 -0.1800
  149SAPE   H7X16492   2.748   1.225   7.733  0.1070  1.0472  0.9635
  149SAPE   H7Y16493   2.923   1.234   7.764  1.1800 -0.3132 -3.1408
  149SAPE   C3816494   2.836   1.030   7.781 -0.1476  0.5161 -0.2928
  149SAPE   H8X16495   2.934   0.978   7.777  0.2317  1.0870  1.0518
  149SAPE   H8Y16496   2.758   0.965   7.737  0.5054 -0.5178  0.0674
  149SAPE   C3916497   2.781   1.023   7.923  0.4678 -0.2135  0.6854
  149SAPE   H9X16498   2.672   1.008   7.938  0.6366 -2.5379 -0.1666
  149SAPE   H9Y16499   2.791   1.129   7.954  0.6798 -0.2948  0.8970
  149SAPE  C31016500   2.862   0.931   8.024 -0.6650 -0.0050  0.0158
  149SAPE  H10X16501   2.970   0.955   8.016 -0.6160 -0.3162 -0.2462
  149SAPE  H10Y16502   2.861   0.825   7.992  6.5872  0.0390 -1.1837
  149SAPE  C31116503   2.824   0.958   8.167 -0.3357 -0.1000 -0.5821
  149SAPE  H11X16504   2.728   0.915   8.203 -0.0870  0.4678  0.8186
  149SAPE  H11Y16505   2.817   1.068   8.178  0.7021 -0.1090  0.3657
  149SAPE  C31216506   2.920   0.912   8.278 -0.2255  0.1397  0.5173
  149SAPE  H12X16507   3.027   0.941   8.271  0.1691 -1.4488 -0.2796
  149SAPE  H12Y16508   2.916   0.801   8.269 -2.5524  0.2503 -0.1262
  149SAPE  C31316509   2.872   0.968   8.414  0.4129 -0.6110  0.2560
  149SAPE  H13X16510   2.764   0.940   8.421  0.2080  0.0800 -0.0620
  149SAPE  H13Y16511   2.875   1.079   8.420 -1.3703 -0.3535 -2.7672
  149SAPE  C31416512   2.948   0.902   8.530 -0.3487  0.0714 -0.0967
  149SAPE  H14X16513   3.004   0.809   8.503  1.6687  0.5662  2.2585
  149SAPE  H14Y16514   2.879   0.876   8.612 -0.8474 -0.6134 -0.7201
  149SAPE  C31516515   3.062   0.992   8.575  0.0757  0.3440 -0.4282
  149SAPE  H15X16516   3.034   1.096   8.602  2.1336  0.2498  2.1653
  149SAPE  H15Y16517   3.129   1.010   8.488 -0.7646  2.1199 -0.7243
  149SAPE  C31616518   3.147   0.959   8.693 -1.1178 -0.2231 -0.0131
  149SAPE  H16X16519   3.216   1.040   8.723 -2.8676  0.4218  2.4735
  149SAPE  H16Y16520   3.200   0.866   8.665 -0.9907 -0.4542  0.9927
  149SAPE  C31716521   3.075   0.922   8.818 -0.6028 -0.6849  0.3358
  149SAPE  H17X16522   3.012   0.834   8.795  1.3738 -2.5407  1.7474
  149SAPE  H17Y16523   3.011   1.007   8.849  1.1005  1.0870 -0.8835
  149SAPE  C31816524   3.166   0.886   8.926 -0.1096  0.0396  0.0564
  149SAPE  H18X16525   3.259   0.833   8.895  0.6931  2.3940 -1.7423
  149SAPE  H18Y16526   3.116   0.834   9.010 -2.3399 -2.6097 -2.7898
  149SAPE  H18Z16527   3.207   0.982   8.962 -0.0706  0.1617 -0.3079
  150SAPE     N16528   1.136   2.542   6.538 -0.2432 -0.0283  0.2893
  150SAPE   HN116529   1.037   2.509   6.531 -0.1034 -0.4716  0.4065
  150SAPE   HN216530   1.192   2.471   6.588  0.2940  0.1717 -0.0342
  150SAPE   HN316531   1.137   2.625   6.602  0.4516 -0.5737  0.9855
  150SAPE   C1216532   1.204   2.578   6.403  0.6276  0.2663 -0.4601
  150SAPE  H12A16533   1.147   2.659   6.353  0.4878  0.1308 -0.5179
  150SAPE  H12B16534   1.186   2.492   6.335 -0.4654 -0.8898  1.2583
  150SAPE   C1116535   1.359   2.597   6.414 -0.6493  0.2212 -0.3324
  150SAPE  H11A16536   1.366   2.691   6.472  3.7196  0.9794 -1.8743
  150SAPE  H11B16537   1.406   2.605   6.313  1.8634  0.0102  0.7767
  150SAPE     P16538   1.501   2.370   6.419 -0.3948  0.2147  0.6838
  150SAPE   O1316539   1.456   2.360   6.273 -0.2211 -0.3496 -0.0957
  150SAPE   O1416540   1.647   2.391   6.435 -0.2975  0.2146 -0.4689
  150SAPE   O1216541   1.417   2.486   6.482  0.5432 -0.2081  0.7222
  150SAPE   O1116542   1.454   2.239   6.486 -0.4410  0.2020 -0.1776
  150SAPE    C116543   1.336   2.203   6.558  0.4931 -0.5456  0.1010
  150SAPE    HA16544   1.249   2.264   6.523  0.4348  0.4373  1.8963
  150SAPE    HB16545   1.311   2.101   6.522 -0.4675 -0.2260 -0.1686
  150SAPE    C216546   1.356   2.191   6.712 -0.7479  0.0906 -0.4148
  150SAPE    HS16547   1.258   2.198   6.763 -0.9256  0.0780 -0.7531
  150SAPE   O2116548   1.442   2.299   6.758 -0.3012  0.3536 -0.1489
  150SAPE   C2116549   1.382   2.412   6.768 -0.6159  0.1006 -0.2802
  150SAPE   O2216550   1.267   2.436   6.736  0.7813 -0.0169 -0.2490
  150SAPE   C2216551   1.479   2.504   6.844  0.0697 -0.4995  0.6524
  150SAPE   H2R16552   1.547   2.444   6.908  0.2986  0.6602  1.5133
  150SAPE   H2S16553   1.548   2.542   6.765 -0.2400 -2.0175 -0.3735
  150SAPE    C316554   1.415   2.051   6.743  0.3403  0.6214  0.4125
  150SAPE    HX16555   1.516   2.040   6.699  0.6817 -1.1292  1.6370
  150SAPE    HY16556   1.345   1.981   6.691 -1.1757 -1.4110  4.9378
  150SAPE   O3116557   1.407   2.023   6.881  0.5082  0.0053 -0.6861
  150SAPE   C3116558   1.510   2.033   6.959 -0.3332 -0.4086 -0.6252
  150SAPE   O3216559   1.621   2.084   6.941  0.1167  0.5362 -0.2675
  150SAPE   C3216560   1.488   1.961   7.093 -0.0762 -0.1961 -0.4545
  150SAPE   H2X16561   1.515   1.854   7.083 -1.6346 -0.4439 -2.4756
  150SAPE   H2Y16562   1.378   1.977   7.103 -0.1314  1.9857 -3.6073
  150SAPE   C2316563   1.409   2.619   6.927  0.0846 -0.2322  0.7950
  150SAPE   H3R16564   1.299   2.625   6.920 -0.0685 -2.0829  1.4284
  150SAPE   H3S16565   1.447   2.712   6.879 -0.0316 -0.5125  0.1502
  150SAPE   C2416566   1.449   2.628   7.080 -0.0093  1.0569 -0.8608
  150SAPE   H4R16567   1.405   2.720   7.122 -2.2642  0.4073 -1.7194
  150SAPE   H4S16568   1.559   2.636   7.093 -0.0038  0.8033 -0.7386
  150SAPE   C2516569   1.407   2.494   7.145 -0.2044 -0.2862  0.0092
  150SAPE   H5R16570   1.416   2.410   7.074 -0.6644 -0.3267 -0.0045
  150SAPE   C2616571   1.371   2.478   7.267  0.2662  0.1842 -0.3882
  150SAPE   H6R16572   1.339   2.377   7.299 -1.0984  0.4789 -0.7671
  150SAPE   C2716573   1.365   2.585   7.370  0.1977 -0.4437 -0.5275
  150SAPE   H7R16574   1.326   2.681   7.329 -0.7818  0.9245  3.4134
  150SAPE   H7S16575   1.466   2.617   7.402  0.7757 -0.7751 -1.9903
  150SAPE   C2816576   1.276   2.546   7.491 -1.0954  0.4964 -0.1118
  150SAPE   H8R16577   1.172   2.580   7.495 -0.4474  2.5421  0.2078
  150SAPE   C2916578   1.315   2.461   7.587  0.6152 -0.4541 -0.0116
  150SAPE   H9R16579   1.245   2.455   7.672  0.7393  2.5719  0.3719
  150SAPE  C21016580   1.449   2.386   7.598  0.9975 -0.7333  0.8052
  150SAPE  H10R16581   1.501   2.358   7.505  1.0942 -1.2202  1.0033
  150SAPE  H10S16582   1.430   2.287   7.645 -0.1828 -1.1488 -0.5195
  150SAPE  C21116583   1.544   2.467   7.677  0.5018  0.0929 -0.2170
  150SAPE  H11R16584   1.617   2.510   7.607  0.8149 -0.0065  0.0448
  150SAPE  C21216585   1.555   2.470   7.812 -0.7674  0.0336  0.2643
  150SAPE  H12R16586   1.615   2.550   7.858 -1.1553 -1.0771  2.8309
  150SAPE  C21316587   1.464   2.394   7.906 -0.2095  0.2729  0.1784
  150SAPE  H13R16588   1.397   2.330   7.845  0.7738 -1.7061  1.0997
  150SAPE  H13S16589   1.400   2.469   7.956 -0.8150 -0.2927  0.2643
  150SAPE  C21416590   1.550   2.309   7.990  0.2663  0.4139 -0.4254
  150SAPE  H14R16591   1.615   2.239   7.935  1.4959  0.0318  1.4593
  150SAPE  C21516592   1.550   2.294   8.119  0.4819 -0.0479  0.3906
  150SAPE  H15R16593   1.628   2.237   8.174  0.9114  0.3824  0.2329
  150SAPE  C21616594   1.463   2.371   8.218  0.2712  0.3598  0.2875
  150SAPE  H16R16595   1.391   2.303   8.268 -1.6890  2.2623  0.1731
  150SAPE  H16S16596   1.398   2.454   8.182 -1.1207  1.2420  4.5032
  150SAPE  C21716597   1.544   2.450   8.314  0.8921  0.7300 -0.4956
  150SAPE  H17R16598   1.602   2.373   8.369 -0.3064  0.5227  0.5202
  150SAPE  H17S16599   1.474   2.483   8.394  1.9337  1.0472  0.2821
  150SAPE  C21816600   1.631   2.559   8.254  0.3002 -0.4846  0.4877
  150SAPE  H18R16601   1.577   2.604   8.169  0.7793 -0.9220 -0.0547
  150SAPE  H18S16602   1.715   2.504   8.207  0.5697  1.5512 -1.4800
  150SAPE  C21916603   1.684   2.669   8.344 -0.0921 -0.3625 -0.5417
  150SAPE  H19R16604   1.601   2.741   8.357  0.6122  0.1839  1.0339
  150SAPE  H19S16605   1.780   2.714   8.310  0.2775 -1.5490 -1.0972
  150SAPE  C22016606   1.725   2.608   8.480  0.6167 -0.5039  0.0922
  150SAPE  H20R16607   1.635   2.571   8.532  1.4752 -1.3848  0.9697
  150SAPE  H20S16608   1.742   2.687   8.556 -3.3572  0.1328  0.4123
  150SAPE  H20T16609   1.808   2.535   8.468 -0.1882 -1.2211 -1.3197
  150SAPE   C3316610   1.549   2.031   7.211  0.0294 -0.0354  0.4832
  150SAPE   H3X16611   1.495   2.127   7.229  0.8991  0.1234  2.3892
  150SAPE   H3Y16612   1.656   2.051   7.190  0.2265 -1.4408  0.1340
  150SAPE   C3416613   1.544   1.939   7.337  0.5853 -0.0797  0.4893
  150SAPE   H4X16614   1.600   1.844   7.323  1.6018  0.7568 -1.3938
  150SAPE   H4Y16615   1.441   1.910   7.368  1.2332 -0.1685  2.6606
  150SAPE   C3516616   1.592   2.002   7.467 -0.3916 -0.8026  0.2608
  150SAPE   H5X16617   1.534   2.096   7.472  0.8762  0.1110 -1.4727
  150SAPE   H5Y16618   1.695   2.043   7.458 -0.5867 -0.7655 -2.4335
  150SAPE   C3616619   1.583   1.901   7.581 -0.0574  0.0488  0.2227
  150SAPE   H6X16620   1.649   1.813   7.563 -1.4549 -0.8436 -0.7373
  150SAPE   H6Y16621   1.481   1.856   7.580 -1.2951  2.7515  1.5420
  150SAPE   C3716622   1.600   1.972   7.716  0.4338  0.1165 -0.4340
  150SAPE   H7X16623   1.541   2.066   7.706 -1.5285 -1.2521 -2.2222
  150SAPE   H7Y16624   1.708   1.997   7.728  0.0997  1.6090 -0.4788
  150SAPE   C3816625   1.554   1.890   7.838  0.1192  0.3031  0.2906
  150SAPE   H8X16626   1.579   1.783   7.823 -0.7066  0.2736 -0.8609
  150SAPE   H8Y16627   1.444   1.902   7.841 -0.1443 -1.8044 -0.6145
  150SAPE   C3916628   1.622   1.932   7.968 -0.4498  0.0404  0.6072
  150SAPE   H9X16629   1.612   2.043   7.970 -2.0184 -0.0847  0.1489
  150SAPE   H9Y16630   1.732   1.918   7.972 -0.2267  1.8575  1.8835
  150SAPE  C31016631   1.559   1.857   8.093  0.1306  0.7483  0.0217
  150SAPE  H10X16632   1.552   1.748   8.071 -3.9593  1.4286 -2.6673
  150SAPE  H10Y16633   1.457   1.891   8.120 -0.3486 -1.1692  0.7405
  150SAPE  C31116634   1.627   1.878   8.227  0.3769 -0.4162 -0.7649
  150SAPE  H11X16635   1.653   1.986   8.235  2.6822 -1.0021 -0.0568
  150SAPE  H11Y16636   1.728   1.832   8.226 -0.2260 -1.9880  2.7676
  150SAPE  C31216637   1.549   1.813   8.342  0.2412 -0.3090 -0.9488
  150SAPE  H12X16638   1.502   1.714   8.322  3.2354 -1.9257 -0.2529
  150SAPE  H12Y16639   1.467   1.885   8.363 -0.2843 -0.8542 -1.1114
  150SAPE  C31316640   1.626   1.791   8.476  0.1411 -0.3848 -0.2488
  150SAPE  H13X16641   1.677   1.887   8.498  0.7867 -0.5350 -1.0794
  150SAPE  H13Y16642   1.707   1.716   8.462 -0.0895 -0.6954  0.0563
  150SAPE  C31416643   1.534   1.756   8.596  0.1148  0.6318 -0.6194
  150SAPE  H14X16644   1.510   1.656   8.553  0.9178 -0.3844  1.2672
  150SAPE  H14Y16645   1.440   1.815   8.605  1.1625  2.3223 -0.4829
  150SAPE  C31516646   1.615   1.751   8.730 -0.0724 -0.0758 -0.7076
  150SAPE  H15X16647   1.540   1.710   8.801  0.0753  0.0485 -0.4837
  150SAPE  H15Y16648   1.637   1.853   8.769 -0.0955  0.0790 -1.0885
  150SAPE  C31616649   1.742   1.662   8.733  0.8911  0.3648 -0.5713
  150SAPE  H16X16650   1.726   1.563   8.685 -2.1561  1.8595 -2.8249
  150SAPE  H16Y16651   1.767   1.639   8.838 -2.9749 -1.5234  0.0125
  150SAPE  C31716652   1.869   1.730   8.686  0.4439 -0.2424 -0.9197
  150SAPE  H17X16653   1.846   1.836   8.666 -1.8059 -0.8153 -1.4488
  150SAPE  H17Y16654   1.898   1.695   8.585  1.8045 -0.2632 -0.5302
  150SAPE  C31816655   1.998   1.725   8.766 -0.3540 -0.5653  0.3946
  150SAPE  H18X16656   2.038   1.622   8.751  1.5778  0.1511  0.3823
  150SAPE  H18Y16657   1.979   1.748   8.873 -1.0281  1.2076 -0.0935
  150SAPE  H18Z16658   2.068   1.796   8.717 -3.0920  1.5812 -0.5341
  151SAPE     N16659   4.198   0.068   6.562 -0.5920  0.3577  0.4662
  151SAPE   HN116660   4.269   0.142   6.544  0.2445 -0.5515 -0.0464
  151SAPE   HN216661   4.137   0.101   6.639  0.4591 -0.1906  1.5573
  151SAPE   HN316662   4.248  -0.020   6.587 -0.4029  0.1146 -0.7359
  151SAPE   C1216663   4.132   0.055   6.420  0.4572 -0.4954 -1.0216
  151SAPE  H12A16664   4.090   0.151   6.383 -0.6037 -1.1119 -1.4344
  151SAPE  H12B16665   4.043  -0.009   6.435  0.0794  0.6621  1.8652
  151SAPE   C1116666   4.225   0.004   6.313  0.3034  0.0909  0.0506
  151SAPE  H11A16667   4.294   0.085   6.282  1.0410 -1.0997 -1.4665
  151SAPE  H11B16668   4.153  -0.012   6.230 -2.4196 -2.1266  2.7194
  151SAPE     P16669   4.368  -0.209   6.242 -0.4167 -0.5176 -0.2166
  151SAPE   O1316670   4.308  -0.181   6.109 -0.1865 -0.3324  0.1776
  151SAPE   O1416671   4.514  -0.201   6.269 -0.5715 -0.2827  0.0415
  151SAPE   O1216672   4.303  -0.114   6.347 -0.6747  0.0979 -0.5842
  151SAPE   O1116673   4.323  -0.361   6.280  0.1242  0.4275 -0.3924
  151SAPE    C116674   4.183  -0.387   6.303  0.3901  0.0697  0.1287
  151SAPE    HA16675   4.120  -0.310   6.255  2.9620  0.1851 -3.2408
  151SAPE    HB16676   4.159  -0.489   6.267 -2.3927 -0.1209  2.3924
  151SAPE    C216677   4.164  -0.368   6.448  0.6163  0.5591 -0.5385
  151SAPE    HS16678   4.200  -0.270   6.483 -1.7316  1.0887  0.5033
  151SAPE   O2116679   4.228  -0.485   6.506 -0.1046  0.2146 -0.2528
  151SAPE   C2116680   4.303  -0.451   6.606  0.7276  0.2188 -0.1292
  151SAPE   O2216681   4.337  -0.339   6.641  0.0508  0.3443 -0.2541
  151SAPE   C2216682   4.331  -0.582   6.686 -0.3985 -0.4070  1.1396
  151SAPE   H2R16683   4.348  -0.667   6.617 -2.4956 -0.3628  0.5359
  151SAPE   H2S16684   4.426  -0.570   6.743 -0.0201 -1.4464  0.7355
  151SAPE    C316685   4.010  -0.352   6.488 -0.6768 -0.2536  0.6786
  151SAPE    HX16686   3.958  -0.431   6.429 -2.7198  0.0212  2.0381
  151SAPE    HY16687   3.975  -0.253   6.453  0.4934  0.7182  2.1953
  151SAPE   O3116688   3.990  -0.367   6.629  0.0205  0.0623  0.1583
  151SAPE   C3116689   3.986  -0.252   6.702 -0.3131 -0.0889 -0.1622
  151SAPE   O3216690   4.023  -0.146   6.660 -0.5764 -0.5845  0.1089
  151SAPE   C3216691   3.916  -0.282   6.830  0.1488  0.4951 -0.6408
  151SAPE   H2X16692   3.979  -0.361   6.875 -0.3959 -0.1687 -1.0329
  151SAPE   H2Y16693   3.813  -0.314   6.805  0.2328  0.4554 -0.9378
  151SAPE   C2316694   4.216  -0.616   6.790 -0.0668  0.5935 -0.6570
  151SAPE   H3R16695   4.236  -0.724   6.804  0.8110  1.3190  4.3508
  151SAPE   H3S16696   4.117  -0.595   6.742  0.2436  2.5724 -0.4565
  151SAPE   C2416697   4.218  -0.535   6.920  0.6304  0.7751  0.2927
  151SAPE   H4R16698   4.121  -0.551   6.971 -0.9798  1.6330 -2.4001
  151SAPE   H4S16699   4.216  -0.427   6.898  0.9217  0.5897 -0.6865
  151SAPE   C2516700   4.334  -0.570   7.012 -0.3740 -0.1335  0.0144
  151SAPE   H5R16701   4.427  -0.599   6.959 -1.7017 -1.5719 -1.6034
  151SAPE   C2616702   4.339  -0.575   7.147 -0.4939  0.1032 -0.3715
  151SAPE   H6R16703   4.435  -0.584   7.200 -1.0435 -1.2318  0.4418
  151SAPE   C2716704   4.224  -0.553   7.233 -0.1591 -0.0929 -0.3387
  151SAPE   H7R16705   4.131  -0.524   7.179  0.9959  0.7219 -1.9235
  151SAPE   H7S16706   4.239  -0.461   7.293 -1.6223 -0.2756  0.3463
  151SAPE   C2816707   4.206  -0.686   7.299 -0.3256  0.1350 -0.2053
  151SAPE   H8R16708   4.181  -0.764   7.225  1.6590  0.0758 -0.8201
  151SAPE   C2916709   4.210  -0.717   7.426 -0.7364  0.6937  0.6398
  151SAPE   H9R16710   4.193  -0.824   7.448  3.2982  0.4510  2.9728
  151SAPE  C21016711   4.232  -0.618   7.543  0.4821  0.7719 -0.0300
  151SAPE  H10R16712   4.180  -0.652   7.635  1.4755  0.7104  0.5168
  151SAPE  H10S16713   4.185  -0.521   7.517  1.4867  0.6913 -2.2558
  151SAPE  C21116714   4.375  -0.591   7.575 -0.0051 -1.1796  0.1686
  151SAPE  H11R16715   4.437  -0.557   7.490  0.3589 -0.5292  0.6865
  151SAPE  C21216716   4.444  -0.613   7.691 -0.2303  0.5033 -0.2231
  151SAPE  H12R16717   4.552  -0.596   7.697 -0.0753 -0.7209  0.7476
  151SAPE  C21316718   4.386  -0.655   7.823  0.1050 -0.0498  0.2923
  151SAPE  H13R16719   4.413  -0.759   7.851 -2.0644 -0.3763  1.2993
  151SAPE  H13S16720   4.276  -0.660   7.839  0.5869 -0.6468  3.7124
  151SAPE  C21416721   4.440  -0.575   7.938 -0.5782  0.0342 -0.1523
  151SAPE  H14R16722   4.450  -0.468   7.913  1.0421  0.0305  0.3861
  151SAPE  C21516723   4.473  -0.616   8.060  0.2477  0.0118  0.4406
  151SAPE  H15R16724   4.485  -0.539   8.137  1.3659 -1.1017  1.4055
  151SAPE  C21616725   4.465  -0.759   8.119  0.1262 -0.4339 -0.1284
  151SAPE  H16R16726   4.388  -0.816   8.062 -0.1179 -1.3017  1.0534
  151SAPE  H16S16727   4.434  -0.750   8.225  2.3758  1.1249  0.4249
  151SAPE  C21716728   4.594  -0.841   8.097  0.5211 -0.0614  1.1319
  151SAPE  H17R16729   4.646  -0.797   8.009 -0.9895 -1.5784 -0.5519
  151SAPE  H17S16730   4.571  -0.947   8.074  0.2912 -0.0930  1.5066
  151SAPE  C21816731   4.698  -0.835   8.213 -0.5233  0.7038  0.1709
  151SAPE  H18R16732   4.654  -0.867   8.310 -0.5262 -1.5532 -0.5392
  151SAPE  H18S16733   4.733  -0.730   8.222 -1.6483  0.9870  1.2645
  151SAPE  C21916734   4.825  -0.910   8.182 -1.1076  0.6242  0.1637
  151SAPE  H19R16735   4.839  -0.886   8.074 -2.9833 -1.0088 -0.5039
  151SAPE  H19S16736   4.800  -1.018   8.192 -0.0544  0.4729  1.1068
  151SAPE  C22016737   4.933  -0.862   8.276 -0.2944 -0.3920  0.2278
  151SAPE  H20R16738   5.021  -0.928   8.290 -1.9699 -2.5078  1.0770
  151SAPE  H20S16739   4.973  -0.761   8.251 -1.1521  0.2907  1.6039
  151SAPE  H20T16740   4.886  -0.853   8.376 -2.1780  1.8139 -0.8011
  151SAPE   C3316741   3.922  -0.170   6.946 -0.3806  0.5286 -0.6914
  151SAPE   H3X16742   3.889  -0.072   6.906  0.9358  0.5559 -1.7069
  151SAPE   H3Y16743   4.028  -0.152   6.973 -0.7213  0.0490  1.0158
  151SAPE   C3416744   3.838  -0.210   7.068 -0.5283 -0.4087  0.2926
  151SAPE   H4X16745   3.764  -0.286   7.035  0.1254 -0.9002 -0.0815
  151SAPE   H4Y16746   3.785  -0.120   7.105  0.8490 -0.2655  2.0230
  151SAPE   C3516747   3.936  -0.255   7.181 -0.0537  0.9186 -0.3214
  151SAPE   H5X16748   4.018  -0.181   7.189  1.6362 -0.8433 -1.0113
  151SAPE   H5Y16749   3.986  -0.351   7.154 -0.6550  0.6602 -0.5264
  151SAPE   C3616750   3.852  -0.279   7.307 -0.2337  0.1785 -0.2223
  151SAPE   H6X16751   3.767  -0.348   7.290  1.0780 -1.8106  1.0152
  151SAPE   H6Y16752   3.797  -0.185   7.330 -1.7605 -0.8379  0.3734
  151SAPE   C3716753   3.935  -0.323   7.428 -0.9707 -0.8102 -0.2015
  151SAPE   H7X16754   4.018  -0.251   7.443  0.5617 -2.5022 -0.2916
  151SAPE   H7Y16755   3.987  -0.419   7.406  0.8522 -0.0574  0.7439
  151SAPE   C3816756   3.848  -0.339   7.550  0.4652  0.5036  0.4185
  151SAPE   H8X16757   3.751  -0.390   7.528  1.1335 -0.8963  0.6909
  151SAPE   H8Y16758   3.825  -0.234   7.580  2.2483  1.5101 -1.5334
  151SAPE   C3916759   3.917  -0.421   7.667 -0.3253 -0.0874  0.3918
  151SAPE   H9X16760   3.943  -0.514   7.612 -0.1231  0.5286 -0.5617
  151SAPE   H9Y16761   3.842  -0.454   7.742 -0.1454  1.8350  1.4516
  151SAPE  C31016762   4.039  -0.347   7.717 -0.5139 -0.4273  0.5633
  151SAPE  H10X16763   4.020  -0.239   7.701  1.2143 -0.1919 -0.0562
  151SAPE  H10Y16764   4.116  -0.382   7.644 -1.2743  1.4207 -1.1747
  151SAPE  C31116765   4.069  -0.363   7.860  0.2345  0.6297 -0.4098
  151SAPE  H11X16766   4.112  -0.462   7.885  2.2850  1.3758 -0.8348
  151SAPE  H11Y16767   3.974  -0.360   7.918  0.6311  2.9641  0.1752
  151SAPE  C31216768   4.150  -0.254   7.921  1.0321  0.4571 -1.0774
  151SAPE  H12X16769   4.099  -0.156   7.909  0.3820 -0.1865 -3.9247
  151SAPE  H12Y16770   4.243  -0.235   7.862  0.9670  0.5965 -1.1348
  151SAPE  C31316771   4.197  -0.288   8.052 -0.5386  0.4409  0.0083
  151SAPE  H13X16772   4.275  -0.367   8.046  0.3507  1.3389 -0.4205
  151SAPE  H13Y16773   4.120  -0.318   8.126 -1.7139  4.4783  0.5333
  151SAPE  C31416774   4.272  -0.180   8.121 -0.8967  0.4586  0.2081
  151SAPE  H14X16775   4.217  -0.085   8.132 -0.6778  0.4666  1.3383
  151SAPE  H14Y16776   4.351  -0.149   8.049  1.2630 -0.0067  2.2868
  151SAPE  C31516777   4.347  -0.211   8.249 -0.3641 -0.7849 -0.4775
  151SAPE  H15X16778   4.429  -0.142   8.279  0.8930 -1.8663 -1.3608
  151SAPE  H15Y16779   4.394  -0.312   8.243 -0.9740 -1.1810  1.0100
  151SAPE  C31616780   4.254  -0.212   8.376  0.2392  0.3418 -0.3337
  151SAPE  H16X16781   4.174  -0.289   8.377  0.1550  0.4280  0.2706
  151SAPE  H16Y16782   4.201  -0.115   8.370 -0.9186 -0.1623  1.2410
  151SAPE  C31716783   4.328  -0.199   8.511 -0.1707  0.8533  0.3329
  151SAPE  H17X16784   4.256  -0.194   8.595 -1.5514  0.0975 -0.7759
  151SAPE  H17Y16785   4.384  -0.105   8.495  1.6059 -0.1439  0.5655
  151SAPE  C31816786   4.433  -0.307   8.547  0.8145 -0.2306  0.0375
  151SAPE  H18X16787   4.491  -0.336   8.457  0.7628  1.5374 -0.5849
  151SAPE  H18Y16788   4.374  -0.393   8.586  0.0019  0.2846 -0.0392
  151SAPE  H18Z16789   4.501  -0.279   8.630  0.1586  0.3420  0.3902
  152SAPE     N16790   0.917   3.225   5.960  0.5023  0.6244 -0.8440
  152SAPE   HN116791   0.846   3.295   5.991 -0.9725 -0.8156 -0.9047
  152SAPE   HN216792   0.877   3.147   5.905 -1.3495 -0.5404  2.0026
  152SAPE   HN316793   0.952   3.183   6.049  0.3889 -0.0368 -1.1130
  152SAPE   C1216794   1.023   3.313   5.898 -0.0946  0.6668 -0.3975
  152SAPE  H12A16795   0.969   3.382   5.829 -0.9828 -0.2386 -0.6266
  152SAPE  H12B16796   1.094   3.252   5.837 -0.2006  1.4812 -1.3639
  152SAPE   C1116797   1.095   3.396   6.013  0.6025  0.7273  0.2399
  152SAPE  H11A16798   1.184   3.457   5.986  0.5170  0.4149 -0.7868
  152SAPE  H11B16799   1.137   3.328   6.090 -0.9202  1.5547  1.8369
  152SAPE     P16800   0.948   3.482   6.213  0.0171  0.0106 -0.2605
  152SAPE   O1316801   0.852   3.587   6.227 -0.2962 -0.5684 -0.0428
  152SAPE   O1416802   0.898   3.348   6.217 -0.7214  0.6335  0.0435
  152SAPE   O1216803   1.001   3.494   6.069  0.0458  0.4694  1.0726
  152SAPE   O1116804   1.077   3.505   6.303 -0.1033 -0.2415 -1.0337
  152SAPE    C116805   1.126   3.391   6.381 -0.5939  0.4897 -0.1907
  152SAPE    HA16806   1.113   3.293   6.331  0.2901 -1.6197  3.5385
  152SAPE    HB16807   1.233   3.410   6.407  0.2967 -2.3797 -1.6163
  152SAPE    C216808   1.045   3.366   6.512 -0.1708  0.4517  0.3612
  152SAPE    HS16809   0.949   3.321   6.479 -0.5283  0.5008  1.3280
  152SAPE   O2116810   1.026   3.496   6.580  0.3007 -0.2045  0.1811
  152SAPE   C2116811   0.908   3.524   6.636 -0.0062 -0.0067  0.1292
  152SAPE   O2216812   0.805   3.461   6.618 -0.4947 -0.2541 -0.0061
  152SAPE   C2216813   0.916   3.653   6.714 -0.5065 -0.8724 -0.1845
  152SAPE   H2R16814   0.966   3.728   6.649 -0.3581 -1.9413 -1.3344
  152SAPE   H2S16815   0.816   3.697   6.732  0.4779  0.7003  1.5556
  152SAPE    C316816   1.128   3.275   6.604 -0.1820 -0.0081  0.2626
  152SAPE    HX16817   1.212   3.338   6.638  0.2604 -2.0613  3.2146
  152SAPE    HY16818   1.177   3.196   6.543  0.5758 -1.5624  2.8248
  152SAPE   O3116819   1.045   3.237   6.718  0.0663 -0.0984  0.8013
  152SAPE   C3116820   0.945   3.153   6.702 -0.8629  0.2371 -0.0130
  152SAPE   O3216821   0.914   3.086   6.606 -0.8213 -0.4700  0.0153
  152SAPE   C3216822   0.868   3.134   6.835 -0.1994  0.0605 -0.1250
  152SAPE   H2X16823   0.781   3.203   6.833 -1.7190 -1.7801  0.5597
  152SAPE   H2Y16824   0.931   3.158   6.923 -1.5365  0.5376  0.7136
  152SAPE   C2316825   1.005   3.642   6.840 -0.4194 -0.0084 -0.3277
  152SAPE   H3R16826   0.984   3.733   6.901  0.4015 -1.4992  2.2598
  152SAPE   H3S16827   1.113   3.648   6.813  0.4822  0.3039  3.0999
  152SAPE   C2416828   0.994   3.515   6.929 -0.6224  0.6090  0.2497
  152SAPE   H4R16829   1.075   3.533   7.004 -1.7972  2.1002  1.1927
  152SAPE   H4S16830   1.025   3.429   6.866  1.9379  1.8116 -0.2237
  152SAPE   C2516831   0.865   3.509   7.002 -0.2081 -0.2976  0.3614
  152SAPE   H5R16832   0.773   3.555   6.961 -1.4244 -2.3704  0.6915
  152SAPE   C2616833   0.842   3.429   7.108 -0.3851  0.1899  0.3482
  152SAPE   H6R16834   0.754   3.444   7.173 -0.8465 -2.9581  0.5367
  152SAPE   C2716835   0.941   3.330   7.155 -0.3123  0.6456  0.0610
  152SAPE   H7R16836   1.019   3.303   7.081  0.6187  0.6646  1.0199
  152SAPE   H7S16837   0.890   3.234   7.179  2.6668 -0.7740  0.9674
  152SAPE   C2816838   1.007   3.361   7.284 -0.0290 -0.2086 -1.2378
  152SAPE   H8R16839   1.052   3.461   7.268  1.2816 -0.2243  2.0192
  152SAPE   C2916840   1.008   3.298   7.405 -0.5181 -0.6869  0.2612
  152SAPE   H9R16841   1.078   3.331   7.483  0.4454  0.1198 -0.9173
  152SAPE  C21016842   0.938   3.168   7.442  0.1101 -0.0080 -0.3995
  152SAPE  H10R16843   1.007   3.118   7.514 -0.5640 -0.8659 -0.3427
  152SAPE  H10S16844   0.931   3.099   7.355 -1.9060 -2.8506  1.8790
  152SAPE  C21116845   0.804   3.191   7.504  0.1092  0.5916  0.2026
  152SAPE  H11R16846   0.748   3.282   7.478  1.4003 -0.1334 -5.9404
  152SAPE  C21216847   0.744   3.094   7.572  0.1145  0.1667  0.0224
  152SAPE  H12R16848   0.651   3.113   7.628  0.8536 -1.4725  1.8671
  152SAPE  C21316849   0.804   2.967   7.612  0.5526 -0.2876  0.1954
  152SAPE  H13R16850   0.854   2.919   7.525  2.3210 -0.3107  1.2038
  152SAPE  H13S16851   0.710   2.913   7.636  0.2052  1.0229  1.9136
  152SAPE  C21416852   0.896   2.964   7.729 -0.2583  1.1216 -0.3582
  152SAPE  H14R16853   0.975   3.039   7.738 -0.4049  1.1061  1.1044
  152SAPE  C21516854   0.884   2.869   7.823  0.4913 -0.8454 -0.7705
  152SAPE  H15R16855   0.959   2.867   7.904 -0.5721 -0.6973  0.2404
  152SAPE  C21616856   0.792   2.756   7.836 -0.0496 -0.0624  0.3721
  152SAPE  H16R16857   0.768   2.713   7.736  1.4649  0.4315 -0.2150
  152SAPE  H16S16858   0.693   2.787   7.877 -0.2628  1.4349 -1.2155
  152SAPE  C21716859   0.843   2.642   7.930  0.0472  0.3874  0.1032
  152SAPE  H17R16860   0.773   2.556   7.925  1.9279 -1.2842  1.5178
  152SAPE  H17S16861   0.834   2.688   8.031 -0.9050  0.9736 -0.2440
  152SAPE  C21816862   0.988   2.601   7.896  0.1062  0.4037 -0.4283
  152SAPE  H18R16863   1.051   2.692   7.895 -0.7790  1.0183 -1.8939
  152SAPE  H18S16864   0.983   2.565   7.791  1.1549 -3.7327  0.8447
  152SAPE  C21916865   1.044   2.490   7.993 -0.8925 -0.3210 -0.4135
  152SAPE  H19R16866   1.042   2.530   8.097  0.7677 -1.5737  0.1304
  152SAPE  H19S16867   1.147   2.470   7.957  0.2909  1.8223  1.6144
  152SAPE  C22016868   0.971   2.355   7.986 -0.0647  0.6769  0.4084
  152SAPE  H20R16869   0.879   2.371   8.046 -0.3981 -1.0759  0.3946
  152SAPE  H20S16870   1.023   2.268   8.030 -0.7308  0.4119  0.6813
  152SAPE  H20T16871   0.945   2.332   7.880 -0.0329  2.5420 -0.0246
  152SAPE   C3316872   0.805   2.992   6.854  0.4750 -0.4502  0.5672
  152SAPE   H3X16873   0.890   2.924   6.831  0.5502 -0.5578  1.1466
  152SAPE   H3Y16874   0.720   2.994   6.783  0.9979  2.6679 -0.0391
  152SAPE   C3416875   0.749   2.973   6.997 -0.2244 -0.4271  0.2799
  152SAPE   H4X16876   0.643   2.942   6.982  0.3406 -3.2778  1.8641
  152SAPE   H4Y16877   0.744   3.062   7.063  0.6989 -0.1293 -0.0419
  152SAPE   C3516878   0.822   2.876   7.084 -0.5507  0.1471 -0.1581
  152SAPE   H5X16879   0.920   2.920   7.111  1.5314 -1.9610 -3.9451
  152SAPE   H5Y16880   0.841   2.784   7.025  3.3262  0.1739  0.9117
  152SAPE   C3616881   0.748   2.844   7.214  0.4825  1.0033 -0.3846
  152SAPE   H6X16882   0.652   2.806   7.171  1.7830 -1.9475 -0.8067
  152SAPE   H6Y16883   0.722   2.939   7.265 -2.7409  0.4429 -0.8143
  152SAPE   C3716884   0.807   2.734   7.304 -0.0504 -0.6459 -0.1469
  152SAPE   H7X16885   0.893   2.763   7.367 -0.2160 -1.6214  0.5300
  152SAPE   H7Y16886   0.833   2.646   7.241 -0.8333 -0.6276 -0.5150
  152SAPE   C3816887   0.700   2.666   7.387  0.6927 -0.5705  0.0452
  152SAPE   H8X16888   0.640   2.606   7.315 -1.1635  1.6293 -0.2897
  152SAPE   H8Y16889   0.634   2.732   7.446  1.0248 -1.4149  1.3632
  152SAPE   C3916890   0.769   2.564   7.481  0.3738 -0.5581  0.2077
  152SAPE   H9X16891   0.815   2.615   7.568 -1.3620 -1.0775  1.4727
  152SAPE   H9Y16892   0.850   2.516   7.422  0.2042  1.8613 -2.1117
  152SAPE  C31016893   0.666   2.454   7.533  0.2156  0.0207 -0.4091
  152SAPE  H10X16894   0.648   2.380   7.451 -1.2003  0.7126 -0.7484
  152SAPE  H10Y16895   0.564   2.495   7.551 -0.2567 -1.3903  0.2898
  152SAPE  C31116896   0.709   2.369   7.652  0.9466  0.0606  0.8277
  152SAPE  H11X16897   0.723   2.429   7.744 -0.4650  1.6749  0.0151
  152SAPE  H11Y16898   0.811   2.328   7.633  0.4566 -1.3913  1.2162
  152SAPE  C31216899   0.623   2.239   7.672  0.0015  0.2593 -0.0505
  152SAPE  H12X16900   0.666   2.166   7.743  0.5101  1.5326  0.9780
  152SAPE  H12Y16901   0.620   2.200   7.568 -0.3177  1.7345 -0.6150
  152SAPE  C31316902   0.479   2.264   7.720 -0.5904  0.1745 -0.1446
  152SAPE  H13X16903   0.411   2.177   7.711 -1.0581  0.5379 -0.1504
  152SAPE  H13Y16904   0.434   2.333   7.646  3.4171 -0.2959 -3.2296
  152SAPE  C31416905   0.473   2.331   7.861 -0.0994  0.8306 -0.0098
  152SAPE  H14X16906   0.366   2.344   7.890 -0.5056 -0.1080 -1.0708
  152SAPE  H14Y16907   0.514   2.434   7.858  2.5550 -0.0884  2.4814
  152SAPE  C31516908   0.538   2.242   7.964 -0.6284 -0.1019  1.5046
  152SAPE  H15X16909   0.640   2.211   7.931 -1.5987 -0.6675 -1.0921
  152SAPE  H15Y16910   0.481   2.152   7.992 -1.7444  0.2381  0.3591
  152SAPE  C31616911   0.562   2.316   8.097 -0.5244 -0.7695 -0.0498
  152SAPE  H16X16912   0.467   2.368   8.123 -0.3169 -0.7050  0.5875
  152SAPE  H16Y16913   0.636   2.399   8.092 -0.6662 -0.5411  1.3581
  152SAPE  C31716914   0.620   2.222   8.202 -0.0897  0.0860 -0.3889
  152SAPE  H17X16915   0.731   2.222   8.198 -0.1435 -1.1093 -3.1179
  152SAPE  H17Y16916   0.588   2.117   8.189 -1.4871  0.8077 -3.2392
  152SAPE  C31816917   0.572   2.239   8.348 -0.5954 -0.4988  0.5950
  152SAPE  H18X16918   0.570   2.350   8.358  0.1797 -0.5384  1.1331
  152SAPE  H18Y16919   0.632   2.189   8.426  2.1084  1.2020 -0.3378
  152SAPE  H18Z16920   0.471   2.192   8.351  0.1568 -2.4262 -2.1194
  153SAPE     N16921   4.382   3.584   5.980 -0.5193  0.6141 -0.4334
  153SAPE   HN116922   4.430   3.497   5.948  2.2385  1.7857  0.3853
  153SAPE   HN216923   4.298   3.611   5.926 -0.6792  2.4214  0.6679
  153SAPE   HN316924   4.453   3.659   5.968  1.2993 -0.4756  2.7871
  153SAPE   C1216925   4.337   3.573   6.125  0.0096  0.1121 -0.3206
  153SAPE  H12A16926   4.263   3.492   6.140 -0.9426  0.6182 -2.1671
  153SAPE  H12B16927   4.274   3.662   6.145 -0.0229 -0.4289  2.0865
  153SAPE   C1116928   4.456   3.559   6.221 -0.0965  0.0045  1.2107
  153SAPE  H11A16929   4.421   3.546   6.325 -1.0420 -2.3446  0.6338
  153SAPE  H11B16930   4.522   3.649   6.218  0.7317 -0.6123  0.5720
  153SAPE     P16931   4.669   3.416   6.259 -0.0401 -0.5648 -0.0686
  153SAPE   O1316932   4.714   3.280   6.228  0.0689  0.1687  0.0316
  153SAPE   O1416933   4.757   3.529   6.228 -0.2634  0.4176 -0.3696
  153SAPE   O1216934   4.536   3.446   6.179 -0.2912  0.2867 -1.0006
  153SAPE   O1116935   4.637   3.419   6.416 -0.2076  0.2837 -0.0168
  153SAPE    C116936   4.737   3.382   6.511 -0.6665 -0.1065 -0.0620
  153SAPE    HA16937   4.690   3.370   6.612 -3.0243  0.4123 -1.0691
  153SAPE    HB16938   4.789   3.285   6.497  2.3334  1.2492  1.2904
  153SAPE    C216939   4.839   3.497   6.526  0.8910 -0.3194  0.0813
  153SAPE    HS16940   4.899   3.507   6.433 -0.3117  3.4176 -0.3522
  153SAPE   O2116941   4.932   3.468   6.633 -0.1544  0.0397 -0.4325
  153SAPE   C2116942   5.020   3.375   6.618 -0.3581  0.4193 -0.9656
  153SAPE   O2216943   5.036   3.313   6.518  0.7102  0.4403 -0.1353
  153SAPE   C2216944   5.083   3.349   6.752 -0.0544  0.0595 -0.4889
  153SAPE   H2R16945   5.103   3.442   6.809  1.9116 -1.1147  0.8092
  153SAPE   H2S16946   5.016   3.279   6.806 -1.2793  1.0141 -0.7633
  153SAPE    C316947   4.766   3.631   6.542  0.4286 -0.3076  0.1598
  153SAPE    HX16948   4.694   3.646   6.458  2.1235  2.2892 -0.8755
  153SAPE    HY16949   4.848   3.705   6.541 -1.2091  1.5653 -2.4784
  153SAPE   O3116950   4.697   3.640   6.671 -0.2637 -0.2722  0.1623
  153SAPE   C3116951   4.575   3.698   6.667  0.4484 -0.2088  0.0568
  153SAPE   O3216952   4.518   3.743   6.568  0.3270  0.2392  0.1203
  153SAPE   C3216953   4.519   3.699   6.806  0.1747 -1.1660 -0.0613
  153SAPE   H2X16954   4.592   3.719   6.887 -1.1295 -2.4019  1.4529
  153SAPE   H2Y16955   4.494   3.594   6.833  3.6261 -1.9143  0.4845
  153SAPE   C2316956   5.209   3.267   6.733 -0.3529 -0.3446 -0.0340
  153SAPE   H3R16957   5.287   3.346   6.740 -0.0650 -0.7136  1.1248
  153SAPE   H3S16958   5.230   3.221   6.635 -1.4042  1.0946 -0.9483
  153SAPE   C2416959   5.226   3.150   6.827  0.4215  0.2380 -0.3340
  153SAPE   H4R16960   5.313   3.093   6.787 -0.3118 -0.2500 -1.2416
  153SAPE   H4S16961   5.141   3.079   6.815 -1.0557  1.8788  0.3065
  153SAPE   C2516962   5.235   3.207   6.967  0.0306  0.0346  0.2439
  153SAPE   H5R16963   5.289   3.303   6.973  0.3074  0.0342 -1.8520
  153SAPE   C2616964   5.201   3.142   7.080  0.0951  0.5980  0.4284
  153SAPE   H6R16965   5.201   3.195   7.177  0.3892  0.5670  0.4466
  153SAPE   C2716966   5.143   3.000   7.092  0.8956  0.5009  0.2290
  153SAPE   H7R16967   5.212   2.951   7.164  1.0408 -0.3768 -0.5048
  153SAPE   H7S16968   5.159   2.957   6.991 -0.1013  1.4178 -0.3394
  153SAPE   C2816969   5.005   2.980   7.134 -0.0883  0.1906 -0.4780
  153SAPE   H8R16970   4.929   2.962   7.057  0.2054 -0.1306 -0.6930
  153SAPE   C2916971   4.952   3.004   7.258 -0.0922 -0.8051  0.3531
  153SAPE   H9R16972   4.843   2.989   7.265  0.1407 -2.4286  0.9385
  153SAPE  C21016973   5.032   3.049   7.376 -0.2732 -0.1542 -0.2037
  153SAPE  H10R16974   5.052   3.158   7.376  0.6576 -0.3150 -0.6599
  153SAPE  H10S16975   5.138   3.016   7.366 -0.2566 -0.4491  0.8774
  153SAPE  C21116976   4.965   3.000   7.506 -0.2806  0.8736  0.3344
  153SAPE  H11R16977   4.876   2.936   7.494  1.6080 -1.2004 -3.2378
  153SAPE  C21216978   5.024   3.020   7.628 -0.1747  0.2790 -0.1373
  153SAPE  H12R16979   4.969   3.002   7.722  0.4456  1.3095  0.4342
  153SAPE  C21316980   5.153   3.088   7.657 -0.3084  0.5791  0.3143
  153SAPE  H13R16981   5.224   3.093   7.572 -0.6463 -1.0298 -0.0661
  153SAPE  H13S16982   5.208   3.032   7.735 -1.5439 -1.4389 -0.2339
  153SAPE  C21416983   5.113   3.223   7.709  0.0027 -1.0244  0.2374
  153SAPE  H14R16984   5.108   3.305   7.637 -0.0663 -0.8530  0.4359
  153SAPE  C21516985   5.093   3.261   7.838  0.0326 -0.5419  0.5304
  153SAPE  H15R16986   5.068   3.367   7.855 -1.1653 -0.9901  1.7113
  153SAPE  C21616987   5.095   3.159   7.954  0.1541 -0.0441 -0.1349
  153SAPE  H16R16988   5.168   3.202   8.026 -1.6042 -0.5003  1.9675
  153SAPE  H16S16989   5.132   3.055   7.944 -0.3897 -0.5703  2.8797
  153SAPE  C21716990   4.957   3.146   8.023  0.1702  0.1858 -0.4672
  153SAPE  H17R16991   4.886   3.139   7.938  0.1342 -1.9505 -0.2700
  153SAPE  H17S16992   4.932   3.244   8.071  0.6492  0.9426 -1.7339
  153SAPE  C21816993   4.943   3.042   8.134  0.1081  0.6050  0.3626
  153SAPE  H18R16994   4.962   2.943   8.086 -0.8620  1.7824 -2.5709
  153SAPE  H18S16995   4.836   3.048   8.163  0.4339  1.3971  1.3868
  153SAPE  C21916996   5.043   3.058   8.255  0.1511 -0.0822 -0.0982
  153SAPE  H19R16997   5.147   3.044   8.219 -0.1677  0.2325 -1.1568
  153SAPE  H19S16998   5.024   2.974   8.326 -0.1217 -0.9425 -1.1744
  153SAPE  C22016999   5.039   3.192   8.340  0.2661  0.7708  0.4860
  153SAPE  H20R17000   4.935   3.216   8.371  0.7876  3.4684  0.3073
  153SAPE  H20S17001   5.056   3.277   8.270  1.2077 -0.6382 -1.0273
  153SAPE  H20T17002   5.103   3.187   8.431 -0.5432 -1.3958  0.9616
  153SAPE   C3317003   4.394   3.788   6.817  0.2805  0.0365 -0.7605
  153SAPE   H3X17004   4.319   3.762   6.740 -3.6923  1.4977  2.4282
  153SAPE   H3Y17005   4.425   3.893   6.803  1.6361 -0.1926  0.3815
  153SAPE   C3417006   4.328   3.763   6.950 -0.3687 -0.1640  0.4340
  153SAPE   H4X17007   4.282   3.662   6.945 -4.2063  1.4645  0.5341
  153SAPE   H4Y17008   4.251   3.843   6.956  2.0937  2.6130 -2.8571
  153SAPE   C3517009   4.427   3.770   7.073 -0.7356 -0.3425 -0.3616
  153SAPE   H5X17010   4.486   3.863   7.091 -0.2617 -0.9139  1.1091
  153SAPE   H5Y17011   4.499   3.685   7.070 -1.2907 -0.8254 -0.0443
  153SAPE   C3617012   4.351   3.771   7.208  0.0823  0.4965 -0.0621
  153SAPE   H6X17013   4.281   3.685   7.213  2.2328 -1.2680  0.0828
  153SAPE   H6Y17014   4.293   3.866   7.218 -0.7595 -0.1953  1.7531
  153SAPE   C3717015   4.453   3.771   7.320  0.7139 -0.0379  0.1641
  153SAPE   H7X17016   4.527   3.853   7.304  1.5588 -1.1270 -1.7239
  153SAPE   H7Y17017   4.511   3.677   7.330  0.2022 -0.7157 -2.6657
  153SAPE   C3817018   4.394   3.800   7.459 -0.1501 -0.1118 -0.3992
  153SAPE   H8X17019   4.325   3.718   7.485  1.3097 -1.1427  0.2986
  153SAPE   H8Y17020   4.354   3.903   7.463  1.7984  0.7639 -2.1617
  153SAPE   C3917021   4.514   3.789   7.565 -0.1663  0.2343 -0.1214
  153SAPE   H9X17022   4.593   3.866   7.555 -1.7005  1.8743  0.2619
  153SAPE   H9Y17023   4.563   3.692   7.540 -0.4288  0.0503  0.0853
  153SAPE  C31017024   4.461   3.800   7.708 -0.0407  0.7565 -0.2616
  153SAPE  H10X17025   4.403   3.709   7.734 -0.1684  0.8648 -0.1682
  153SAPE  H10Y17026   4.388   3.883   7.717 -0.5455  0.3962 -0.9876
  153SAPE  C31117027   4.569   3.822   7.821 -0.6764  0.4098 -0.1973
  153SAPE  H11X17028   4.628   3.913   7.795 -0.3724  0.0846 -0.6430
  153SAPE  H11Y17029   4.637   3.735   7.817 -0.5348  0.4652  0.8898
  153SAPE  C31217030   4.514   3.830   7.962 -0.0507  0.2486  0.1664
  153SAPE  H12X17031   4.599   3.846   8.032 -0.4664 -0.6652  0.8942
  153SAPE  H12Y17032   4.476   3.731   7.995 -0.3285  0.8670  1.7627
  153SAPE  C31317033   4.417   3.941   7.996 -0.3993  0.8153  0.8466
  153SAPE  H13X17034   4.333   3.944   7.923 -1.6638  1.7607  2.3149
  153SAPE  H13Y17035   4.478   4.033   7.991 -0.8000  1.0986  1.1646
  153SAPE  C31417036   4.348   3.929   8.132  0.2468  0.2363 -0.2132
  153SAPE  H14X17037   4.310   4.027   8.168 -0.5541  0.0144 -0.4504
  153SAPE  H14Y17038   4.427   3.890   8.199 -0.1792 -0.7723 -0.3002
  153SAPE  C31517039   4.236   3.832   8.144 -0.1561  0.0343 -0.3997
  153SAPE  H15X17040   4.269   3.728   8.126 -0.7043 -0.3889  0.9821
  153SAPE  H15Y17041   4.173   3.845   8.054  0.3470  0.4860 -0.6904
  153SAPE  C31617042   4.150   3.837   8.268 -0.1842  0.0618 -0.2716
  153SAPE  H16X17043   4.052   3.786   8.251  1.0646 -3.7380  3.0576
  153SAPE  H16Y17044   4.124   3.940   8.300 -1.1622  0.3970 -2.0817
  153SAPE  C31717045   4.198   3.750   8.379  0.0093  0.2260  0.4951
  153SAPE  H17X17046   4.308   3.761   8.392  0.0291 -0.4817  0.9435
  153SAPE  H17Y17047   4.189   3.642   8.356  0.3552  0.5150 -1.0272
  153SAPE  C31817048   4.141   3.788   8.516  0.1054  0.0906  0.2964
  153SAPE  H18X17049   4.031   3.786   8.508  0.0718 -1.3973  0.9641
  153SAPE  H18Y17050   4.164   3.895   8.536 -1.8042  0.5575  0.1023
  153SAPE  H18Z17051   4.167   3.720   8.600 -3.1051  1.0874  2.1829
  154SAPE     N17052   1.753   2.937   6.262 -0.9996  0.3905 -0.1232
  154SAPE   HN117053   1.684   3.008   6.294 -1.8960 -0.6982  0.4082
  154SAPE   HN217054   1.838   2.996   6.250 -0.5205 -0.2836 -0.0322
  154SAPE   HN317055   1.733   2.894   6.170  1.7565 -0.1830 -0.4902
  154SAPE   C1217056   1.776   2.831   6.362  0.5816  0.5742  0.0184
  154SAPE  H12A17057   1.810   2.739   6.310 -0.1289  0.2682  0.0914
  154SAPE  H12B17058   1.689   2.839   6.431  0.9777  1.0427  0.4729
  154SAPE   C1117059   1.894   2.871   6.451 -0.0181  0.1466 -0.5546
  154SAPE  H11A17060   1.895   2.791   6.528 -0.0399  0.5082 -0.1747
  154SAPE  H11B17061   1.871   2.961   6.511 -2.0299 -2.4677  2.8015
  154SAPE     P17062   2.118   2.754   6.363  0.2417 -0.1943 -0.5435
  154SAPE   O1317063   2.050   2.625   6.393 -0.0186  0.1073 -0.5152
  154SAPE   O1417064   2.169   2.760   6.226 -0.0024 -0.0306  0.5242
  154SAPE   O1217065   2.020   2.880   6.379  0.3997 -0.3135  0.6113
  154SAPE   O1117066   2.240   2.774   6.463 -0.2214 -0.3838  0.1075
  154SAPE    C117067   2.239   2.708   6.596  0.0462  0.1748  0.2859
  154SAPE    HA17068   2.188   2.609   6.589  1.6320 -0.8232  2.2313
  154SAPE    HB17069   2.339   2.674   6.632 -0.3613 -1.0582  0.2756
  154SAPE    C217070   2.173   2.805   6.703 -0.1001 -0.2654  0.4326
  154SAPE    HS17071   2.066   2.818   6.679  0.4714  0.9758 -1.5994
  154SAPE   O2117072   2.241   2.930   6.705 -0.4873  0.0975 -0.1062
  154SAPE   C2117073   2.169   3.032   6.758 -0.1370  0.4006  0.2388
  154SAPE   O2217074   2.064   3.020   6.811 -0.0300 -0.1498  0.1732
  154SAPE   C2217075   2.253   3.159   6.747 -0.0963  0.0145 -0.2954
  154SAPE   H2R17076   2.346   3.163   6.686  0.1333  2.6480  0.1432
  154SAPE   H2S17077   2.184   3.232   6.700  1.5246  1.4770 -0.4525
  154SAPE    C317078   2.173   2.747   6.845  0.4422  0.5941  0.1927
  154SAPE    HX17079   2.123   2.811   6.921 -0.6344 -0.2168  0.1817
  154SAPE    HY17080   2.280   2.745   6.872  0.7049  0.7715 -0.8209
  154SAPE   O3117081   2.138   2.609   6.849 -0.2396 -0.4136  0.6103
  154SAPE   C3117082   2.018   2.572   6.842 -0.8195  0.8670  0.2124
  154SAPE   O3217083   1.919   2.646   6.849  0.1968 -0.0236  0.6120
  154SAPE   C3217084   2.010   2.425   6.808 -0.1526 -0.4087 -0.4577
  154SAPE   H2X17085   2.097   2.415   6.740 -0.9167  2.9441 -2.0284
  154SAPE   H2Y17086   1.924   2.394   6.744  0.1679 -0.5943 -0.7964
  154SAPE   C2317087   2.276   3.214   6.885  0.7186 -0.1879 -0.0334
  154SAPE   H3R17088   2.190   3.217   6.956  0.9503 -0.9852  0.2930
  154SAPE   H3S17089   2.316   3.315   6.867  3.1151 -1.1476 -0.2760
  154SAPE   C2417090   2.394   3.135   6.949 -0.4773 -0.3168 -0.5936
  154SAPE   H4R17091   2.472   3.129   6.871 -0.5341  2.4180 -0.9290
  154SAPE   H4S17092   2.352   3.036   6.976 -3.3678  0.7177 -1.0481
  154SAPE   C2517093   2.463   3.213   7.060  0.1190 -0.1710 -0.2249
  154SAPE   H5R17094   2.542   3.277   7.016  0.0856  0.6316  0.8413
  154SAPE   C2617095   2.437   3.201   7.193 -0.2504 -0.0823  0.6933
  154SAPE   H6R17096   2.490   3.256   7.273 -0.9486  0.3003  0.8939
  154SAPE   C2717097   2.338   3.095   7.235 -0.4861  0.6531 -0.1832
  154SAPE   H7R17098   2.385   2.994   7.238 -2.6198 -0.3236  1.3148
  154SAPE   H7S17099   2.248   3.080   7.172 -0.7339 -0.5200  0.4396
  154SAPE   C2817100   2.283   3.150   7.363 -0.0678 -0.0853  0.2235
  154SAPE   H8R17101   2.195   3.215   7.354  0.0514 -0.0745 -0.9571
  154SAPE   C2917102   2.339   3.132   7.487 -0.1156 -0.5346 -0.1337
  154SAPE   H9R17103   2.279   3.165   7.573  0.5556 -1.3557  0.6702
  154SAPE  C21017104   2.456   3.043   7.525  0.1011 -0.0598  0.0076
  154SAPE  H10R17105   2.520   3.023   7.437  0.5924  0.7609  0.1776
  154SAPE  H10S17106   2.434   2.944   7.572  2.2956 -0.2384  0.7152
  154SAPE  C21117107   2.530   3.120   7.622 -0.3010  0.3675  0.7558
  154SAPE  H11R17108   2.576   3.217   7.594 -2.5531  1.2354 -0.0800
  154SAPE  C21217109   2.584   3.070   7.737 -0.6616 -0.4546  0.5571
  154SAPE  H12R17110   2.661   3.126   7.791  0.1668 -0.2960 -0.7611
  154SAPE  C21317111   2.574   2.930   7.794 -0.2769  0.3220 -0.0855
  154SAPE  H13R17112   2.677   2.890   7.808  0.5950  0.9638 -3.9308
  154SAPE  H13S17113   2.538   2.861   7.714  0.6366  1.8547 -1.8746
  154SAPE  C21417114   2.479   2.923   7.906  0.5876  0.5386 -0.4249
  154SAPE  H14R17115   2.375   2.950   7.880  0.1745  0.4214  1.0201
  154SAPE  C21517116   2.503   2.918   8.035 -0.7352 -0.1699 -0.2630
  154SAPE  H15R17117   2.418   2.918   8.105 -0.2199  0.2215  0.3671
  154SAPE  C21617118   2.634   2.899   8.106  0.3215 -0.4222 -0.2941
  154SAPE  H16R17119   2.675   2.999   8.127 -1.3584  0.5768 -1.6083
  154SAPE  H16S17120   2.692   2.830   8.041  0.8641 -2.0268  1.8462
  154SAPE  C21717121   2.618   2.816   8.236  0.9200 -0.5892 -0.1558
  154SAPE  H17R17122   2.556   2.724   8.223 -0.6715  0.6914 -1.9072
  154SAPE  H17S17123   2.555   2.878   8.303  1.2783  0.1248 -0.4818
  154SAPE  C21817124   2.753   2.770   8.301 -0.6726 -0.2579  1.4017
  154SAPE  H18R17125   2.834   2.844   8.315  0.4913 -0.7055 -2.3342
  154SAPE  H18S17126   2.798   2.693   8.235 -1.6669 -0.6039  1.1131
  154SAPE  C21917127   2.723   2.690   8.432 -0.3703 -0.2273 -0.3772
  154SAPE  H19R17128   2.671   2.596   8.404  1.8484 -1.0457 -1.8622
  154SAPE  H19S17129   2.651   2.755   8.486 -1.1276 -0.4862 -1.0691
  154SAPE  C22017130   2.845   2.661   8.517  0.1898 -0.1729  0.3027
  154SAPE  H20R17131   2.876   2.753   8.569 -0.1273  1.0071 -1.5408
  154SAPE  H20S17132   2.928   2.619   8.456 -0.0290 -3.0604  1.9041
  154SAPE  H20T17133   2.829   2.586   8.598  0.0793 -0.9048 -0.3872
  154SAPE   C3317134   2.011   2.335   6.934 -0.3394 -0.4901  1.0308
  154SAPE   H3X17135   2.093   2.371   6.999 -0.1206  0.4428  0.2519
  154SAPE   H3Y17136   2.034   2.229   6.908 -0.1344 -0.4600  1.0971
  154SAPE   C3417137   1.868   2.329   6.993 -0.3995 -0.3759 -0.1779
  154SAPE   H4X17138   1.819   2.253   6.929  2.0631 -2.0231 -0.1735
  154SAPE   H4Y17139   1.816   2.428   6.993 -0.6030 -0.4822 -0.4653
  154SAPE   C3517140   1.880   2.272   7.135 -0.1755 -0.8100 -0.1238
  154SAPE   H5X17141   1.949   2.189   7.159 -2.6790 -2.3062  2.1904
  154SAPE   H5Y17142   1.773   2.253   7.161  0.3408 -0.2612  2.6032
  154SAPE   C3617143   1.934   2.373   7.241 -0.5107 -0.1971  0.8132
  154SAPE   H6X17144   1.885   2.471   7.227  3.6959  2.1315  1.4414
  154SAPE   H6Y17145   2.043   2.382   7.218 -0.2671 -0.5832  1.7861
  154SAPE   C3717146   1.921   2.323   7.386  0.5508 -0.0601 -0.7415
  154SAPE   H7X17147   1.955   2.219   7.403 -2.6127 -0.9969  0.2253
  154SAPE   H7Y17148   1.817   2.313   7.423  0.5964 -1.1259 -0.8870
  154SAPE   C3817149   2.008   2.399   7.494 -1.0546 -0.0503  0.2018
  154SAPE   H8X17150   2.000   2.507   7.469 -2.8438  0.0065  0.8956
  154SAPE   H8Y17151   2.110   2.367   7.463 -0.9944 -1.0235  1.3564
  154SAPE   C3917152   1.984   2.372   7.640 -0.5716  0.7963 -0.0635
  154SAPE   H9X17153   1.875   2.375   7.664 -0.4245  0.8627  0.6108
  154SAPE   H9Y17154   2.045   2.439   7.704  0.3517 -1.7804  1.8248
  154SAPE  C31017155   2.029   2.228   7.688 -0.3440  0.2718 -0.9624
  154SAPE  H10X17156   2.140   2.224   7.692 -0.4184 -0.3988  1.5525
  154SAPE  H10Y17157   1.990   2.164   7.607 -3.0400  0.8291 -0.1449
  154SAPE  C31117158   1.954   2.196   7.815 -0.3373 -0.0216  0.0867
  154SAPE  H11X17159   1.966   2.087   7.828 -0.1370 -0.2756 -2.1416
  154SAPE  H11Y17160   1.844   2.208   7.803 -0.4767 -1.1851  0.2216
  154SAPE  C31217161   2.022   2.259   7.939 -0.5644 -0.4442 -0.0999
  154SAPE  H12X17162   2.062   2.358   7.907 -1.0508 -0.4889 -0.8687
  154SAPE  H12Y17163   2.116   2.205   7.963 -1.3828 -1.6389  0.4690
  154SAPE  C31317164   1.930   2.268   8.059  0.0045  0.3449  0.0242
  154SAPE  H13X17165   1.838   2.316   8.018 -0.8391  0.3888  1.9131
  154SAPE  H13Y17166   1.978   2.342   8.126  2.7197 -0.1250 -1.3443
  154SAPE  C31417167   1.906   2.143   8.141 -0.1999 -0.7787  0.3711
  154SAPE  H14X17168   1.953   2.060   8.084 -0.4220 -0.1362 -0.7690
  154SAPE  H14Y17169   1.795   2.133   8.139 -0.6304  1.9243  3.8928
  154SAPE  C31517170   1.953   2.150   8.280  0.3425  0.1969 -0.9374
  154SAPE  H15X17171   2.048   2.207   8.292  0.7450 -0.6762  0.1117
  154SAPE  H15Y17172   1.954   2.043   8.307 -0.8856  0.3145 -0.3776
  154SAPE  C31617173   1.850   2.214   8.372 -0.1572 -0.0456  0.3836
  154SAPE  H16X17174   1.751   2.165   8.358 -0.3067  0.6199 -0.9700
  154SAPE  H16Y17175   1.836   2.322   8.350 -1.2145 -0.7917 -2.8723
  154SAPE  C31717176   1.901   2.204   8.520 -0.1529  0.2105  0.0130
  154SAPE  H17X17177   1.999   2.256   8.516 -0.0473  0.1773  1.7752
  154SAPE  H17Y17178   1.915   2.104   8.566 -1.2683 -0.1795 -0.4798
  154SAPE  C31817179   1.801   2.275   8.619  1.0950  0.0415 -0.6029
  154SAPE  H18X17180   1.837   2.376   8.650  0.8511 -0.3270  0.9200
  154SAPE  H18Y17181   1.788   2.226   8.718 -2.0898  1.4189 -0.2741
  154SAPE  H18Z17182   1.698   2.277   8.577  1.1468 -0.0589 -0.7362
  155SAPE     N17183   2.688   3.413   6.318  0.7425 -0.7859 -0.1571
  155SAPE   HN117184   2.615   3.431   6.245 -2.0283  0.3596  2.7666
  155SAPE   HN217185   2.781   3.431   6.275 -0.3455  2.9034 -1.1980
  155SAPE   HN317186   2.679   3.312   6.342 -1.7137 -0.7826 -0.8697
  155SAPE   C1217187   2.671   3.502   6.438 -0.5019 -0.5078  0.3498
  155SAPE  H12A17188   2.721   3.461   6.528  0.6655 -1.8210 -0.8631
  155SAPE  H12B17189   2.562   3.502   6.455 -0.3514  1.6705  1.6150
  155SAPE   C1117190   2.718   3.650   6.418  0.0902  0.7096  0.6824
  155SAPE  H11A17191   2.829   3.658   6.419  0.1847 -0.1739 -0.7287
  155SAPE  H11B17192   2.684   3.702   6.510 -0.5049  1.0727  0.2580
  155SAPE     P17193   2.525   3.796   6.311  0.0441  0.3082 -0.0399
  155SAPE   O1317194   2.503   3.867   6.178 -0.1500  0.1629 -0.2476
  155SAPE   O1417195   2.411   3.719   6.360 -0.0367  0.3516 -0.0699
  155SAPE   O1217196   2.656   3.703   6.299 -0.3186  0.0999 -0.0828
  155SAPE   O1117197   2.572   3.897   6.421  0.2259  0.4594 -0.0316
  155SAPE    C117198   2.477   3.964   6.494 -0.6827 -0.5666  0.3134
  155SAPE    HA17199   2.493   4.072   6.475  5.4185 -1.3787 -0.4427
  155SAPE    HB17200   2.371   3.938   6.473 -1.1425  2.0674 -0.8007
  155SAPE    C217201   2.518   3.941   6.642  0.5506  0.1764  1.1345
  155SAPE    HS17202   2.622   3.979   6.653  1.1183  0.0471 -2.8304
  155SAPE   O2117203   2.514   3.801   6.669 -0.1371 -0.0716  0.2534
  155SAPE   C2117204   2.594   3.757   6.764 -0.0834 -0.0207 -0.2980
  155SAPE   O2217205   2.682   3.825   6.821  0.1933 -0.0168  0.7846
  155SAPE   C2217206   2.572   3.607   6.806 -0.4214 -0.0937 -0.2591
  155SAPE   H2R17207   2.463   3.583   6.805 -0.0772 -1.6752 -0.9242
  155SAPE   H2S17208   2.628   3.544   6.734  1.9440  1.6113  0.0248
  155SAPE    C317209   2.428   4.014   6.737 -0.2948 -0.2358 -0.2910
  155SAPE    HX17210   2.323   3.980   6.721 -1.5688  1.7052  3.4068
  155SAPE    HY17211   2.421   4.122   6.711  0.7996  0.6545  2.9705
  155SAPE   O3117212   2.465   4.002   6.881 -0.0966 -0.0024 -0.4267
  155SAPE   C3117213   2.566   4.080   6.926 -0.2687  0.8769 -0.1822
  155SAPE   O3217214   2.646   4.143   6.859  0.5556  0.1863  0.2830
  155SAPE   C3217215   2.563   4.073   7.077 -0.0450 -0.3264  0.0464
  155SAPE   H2X17216   2.670   4.067   7.106 -0.0957  0.2179  0.3392
  155SAPE   H2Y17217   2.521   3.976   7.112 -0.4875  0.0172  0.4776
  155SAPE   C2317218   2.607   3.569   6.952  0.7164 -0.2198 -0.6195
  155SAPE   H3R17219   2.717   3.555   6.945  0.7643 -2.6399  3.7493
  155SAPE   H3S17220   2.560   3.469   6.965  2.8943 -1.1270  0.6216
  155SAPE   C2417221   2.573   3.675   7.060 -0.1060 -0.3734 -0.2129
  155SAPE   H4R17222   2.490   3.638   7.124  1.1254 -1.5512  0.7253
  155SAPE   H4S17223   2.527   3.768   7.019 -0.9015 -0.5180  0.3381
  155SAPE   C2517224   2.687   3.714   7.148 -0.4067  0.2345  0.1670
  155SAPE   H5R17225   2.772   3.761   7.098  0.2140 -0.4774  0.5301
  155SAPE   C2617226   2.689   3.714   7.282  0.0093 -0.1280 -0.0915
  155SAPE   H6R17227   2.781   3.742   7.334 -1.3755  2.5022  1.0335
  155SAPE   C2717228   2.578   3.673   7.373  0.2187 -0.3681  0.1143
  155SAPE   H7R17229   2.476   3.683   7.330 -0.0156 -0.8946  0.5497
  155SAPE   H7S17230   2.589   3.746   7.456  1.8902 -1.0997  0.5503
  155SAPE   C2817231   2.600   3.537   7.426  0.1562  0.5861 -0.4464
  155SAPE   H8R17232   2.554   3.456   7.368 -0.6805  1.2218 -0.6806
  155SAPE   C2917233   2.668   3.516   7.542  0.5192  0.2800  0.2954
  155SAPE   H9R17234   2.650   3.414   7.580  0.0850  0.3477  0.2761
  155SAPE  C21017235   2.723   3.620   7.633 -0.7611  0.4147 -0.5040
  155SAPE  H10R17236   2.648   3.694   7.668  0.4141  1.9631 -1.1796
  155SAPE  H10S17237   2.798   3.683   7.580  0.4432  0.0295  0.7186
  155SAPE  C21117238   2.793   3.566   7.755 -0.1555  0.2962  0.0115
  155SAPE  H11R17239   2.903   3.564   7.745 -0.0424 -2.9666  1.3209
  155SAPE  C21217240   2.742   3.503   7.864 -0.0080 -0.1779 -0.9276
  155SAPE  H12R17241   2.818   3.485   7.941 -1.4019  1.3441  0.8452
  155SAPE  C21317242   2.597   3.492   7.903  0.0471 -1.0628  0.1968
  155SAPE  H13R17243   2.521   3.535   7.834  1.1064  0.0282 -0.3102
  155SAPE  H13S17244   2.576   3.557   7.991 -3.7979 -1.1109 -0.5813
  155SAPE  C21417245   2.561   3.351   7.950 -0.4733  0.0396  0.5476
  155SAPE  H14R17246   2.521   3.282   7.874  0.7456 -0.5662  0.4591
  155SAPE  C21517247   2.585   3.296   8.071 -0.4089 -0.4361  0.2598
  155SAPE  H15R17248   2.562   3.189   8.088 -2.6310 -0.2054 -1.0623
  155SAPE  C21617249   2.650   3.376   8.184  0.2192 -0.0706 -0.3857
  155SAPE  H16R17250   2.585   3.358   8.273  0.8335  0.1829  0.1162
  155SAPE  H16S17251   2.639   3.487   8.177  0.4190 -0.0768 -0.8024
  155SAPE  C21717252   2.802   3.349   8.208  0.1322  0.5253  0.0971
  155SAPE  H17R17253   2.862   3.396   8.128  0.3345 -0.5025 -0.3500
  155SAPE  H17S17254   2.811   3.239   8.210 -0.0989  0.5223  1.6133
  155SAPE  C21817255   2.845   3.403   8.348  0.2855  0.2860  0.0485
  155SAPE  H18R17256   2.812   3.508   8.362 -1.6896 -0.6555  2.9114
  155SAPE  H18S17257   2.956   3.397   8.337  0.5726  1.8850  1.6085
  155SAPE  C21917258   2.806   3.320   8.470 -0.1785 -0.0342  0.6001
  155SAPE  H19R17259   2.703   3.353   8.495 -0.6752 -0.5548 -0.6802
  155SAPE  H19S17260   2.879   3.347   8.550  0.7290 -1.7225  0.3624
  155SAPE  C22017261   2.817   3.171   8.461 -0.5784  0.3038  0.1434
  155SAPE  H20R17262   2.913   3.138   8.416 -0.7305  2.1678 -1.6039
  155SAPE  H20S17263   2.733   3.140   8.395  0.3832 -1.5455 -0.2693
  155SAPE  H20T17264   2.814   3.121   8.560 -0.4468 -3.0897 -1.4665
  155SAPE   C3317265   2.500   4.200   7.142 -0.3495  0.2669  0.2591
  155SAPE   H3X17266   2.395   4.203   7.106 -0.5446  2.0198  0.8941
  155SAPE   H3Y17267   2.555   4.292   7.112  2.4627 -0.8468  1.7713
  155SAPE   C3417268   2.501   4.189   7.295  0.1373 -1.0400 -0.2983
  155SAPE   H4X17269   2.418   4.122   7.324 -1.1028  0.2330 -0.8700
  155SAPE   H4Y17270   2.476   4.292   7.326  2.0894 -0.8291  0.6741
  155SAPE   C3517271   2.639   4.152   7.359 -0.0320 -0.1999  0.3493
  155SAPE   H5X17272   2.718   4.226   7.334  1.5050 -1.2737  1.8230
  155SAPE   H5Y17273   2.677   4.057   7.315  0.7685  0.3377 -0.1400
  155SAPE   C3617274   2.629   4.163   7.513  0.2848 -0.2602  0.3636
  155SAPE   H6X17275   2.602   4.265   7.547  1.9682  1.3294 -2.7966
  155SAPE   H6Y17276   2.734   4.149   7.546  0.1779 -0.9377  0.4231
  155SAPE   C3717277   2.556   4.045   7.591 -0.3686  0.1214  0.2597
  155SAPE   H7X17278   2.608   3.950   7.567  0.9347  1.1294 -1.0263
  155SAPE   H7Y17279   2.453   4.044   7.550 -1.2966  0.7599  2.5150
  155SAPE   C3817280   2.570   4.085   7.739  0.0830  0.8837 -0.2215
  155SAPE   H8X17281   2.525   4.184   7.758  1.3318  1.4261 -0.0484
  155SAPE   H8Y17282   2.680   4.084   7.754 -0.0515  1.2650  0.7900
  155SAPE   C3917283   2.501   3.975   7.824  0.4901 -0.4960 -0.9268
  155SAPE   H9X17284   2.543   3.877   7.793  1.3882  0.2495 -2.0858
  155SAPE   H9Y17285   2.392   3.989   7.807 -0.3805 -2.3234  2.6535
  155SAPE  C31017286   2.519   3.998   7.971  0.2899 -0.2001  0.0053
  155SAPE  H10X17287   2.625   4.024   7.991  0.1856 -0.1684  0.5308
  155SAPE  H10Y17288   2.495   3.902   8.023  1.2512  0.3157  1.4630
  155SAPE  C31117289   2.428   4.112   8.027  1.0001  0.6079  0.4628
  155SAPE  H11X17290   2.328   4.079   7.991  0.4161 -0.1310  2.6620
  155SAPE  H11Y17291   2.445   4.210   7.978  0.2687  1.7355  2.3956
  155SAPE  C31217292   2.439   4.126   8.181 -0.5971  0.1983 -0.5704
  155SAPE  H12X17293   2.427   4.023   8.221 -0.1540  0.3925  0.0662
  155SAPE  H12Y17294   2.348   4.175   8.221 -0.6775 -2.0152  2.1393
  155SAPE  C31317295   2.567   4.196   8.228  0.4799 -0.0315 -0.1372
  155SAPE  H13X17296   2.566   4.295   8.177 -1.3184 -1.0890 -2.2511
  155SAPE  H13Y17297   2.664   4.153   8.197  1.5645  1.3122  1.3523
  155SAPE  C31417298   2.549   4.232   8.376 -0.3441  0.4183  0.2563
  155SAPE  H14X17299   2.450   4.280   8.390 -0.6911 -0.2983  0.2835
  155SAPE  H14Y17300   2.628   4.308   8.394  0.4918 -0.1593 -0.9010
  155SAPE  C31517301   2.577   4.117   8.478 -0.4720 -0.2232 -0.1322
  155SAPE  H15X17302   2.671   4.060   8.462  0.7008  1.5516  0.4009
  155SAPE  H15Y17303   2.488   4.050   8.470  1.6005 -2.8744 -2.3036
  155SAPE  C31617304   2.582   4.172   8.620  0.3831  0.2646  0.5860
  155SAPE  H16X17305   2.481   4.205   8.653  0.2559 -0.7770  1.2525
  155SAPE  H16Y17306   2.648   4.260   8.632  1.2343 -0.3936  0.7333
  155SAPE  C31717307   2.618   4.066   8.722  0.0792 -0.3082  0.5251
  155SAPE  H17X17308   2.672   4.102   8.812 -2.4278 -2.9016  3.1881
  155SAPE  H17Y17309   2.694   3.996   8.681 -0.7161 -0.3357 -0.9714
  155SAPE  C31817310   2.504   3.990   8.771 -0.2976 -0.1625  0.2395
  155SAPE  H18X17311   2.433   4.054   8.828 -1.6711 -1.6554  0.2169
  155SAPE  H18Y17312   2.537   3.905   8.835  0.6627  0.2354  0.2923
  155SAPE  H18Z17313   2.447   3.946   8.687 -1.0887  0.2927  0.5311
  156SAPE     N17314   0.737   4.760   6.345 -0.1178  0.3303 -0.1195
  156SAPE   HN117315   0.769   4.752   6.246 -1.3396  1.4612 -0.6277
  156SAPE   HN217316   0.722   4.666   6.386 -0.6066 -0.1859 -1.4352
  156SAPE   HN317317   0.654   4.823   6.343  1.2171  2.1168 -0.2709
  156SAPE   C1217318   0.857   4.803   6.425 -0.4447  0.1505  0.0785
  156SAPE  H12A17319   0.846   4.742   6.517 -1.2759  0.2516  0.0548
  156SAPE  H12B17320   0.857   4.913   6.437  1.9489  0.1099  0.7238
  156SAPE   C1117321   0.994   4.753   6.362  0.5145 -0.2885 -0.1842
  156SAPE  H11A17322   1.071   4.780   6.437  0.2495  1.4655 -0.5198
  156SAPE  H11B17323   1.020   4.820   6.277 -0.2538  0.1514 -0.0706
  156SAPE     P17324   1.092   4.511   6.360 -0.0905 -0.1579  0.6365
  156SAPE   O1317325   1.050   4.380   6.311  0.0524  0.2642 -0.3140
  156SAPE   O1417326   1.227   4.565   6.327 -0.1005  0.1650 -0.1899
  156SAPE   O1217327   0.994   4.621   6.305  0.4982 -0.1181  0.3717
  156SAPE   O1117328   1.063   4.526   6.509  0.1930  0.1569  0.0162
  156SAPE    C117329   0.960   4.452   6.564  0.2533  0.1903  0.0875
  156SAPE    HA17330   0.875   4.429   6.496  0.3346 -0.1791  0.1085
  156SAPE    HB17331   0.994   4.351   6.596  0.9933 -0.0822 -1.5023
  156SAPE    C217332   0.911   4.522   6.687 -0.2977 -0.5494 -0.1530
  156SAPE    HS17333   0.886   4.629   6.669 -0.2871 -0.1389  2.2027
  156SAPE   O2117334   1.011   4.520   6.792 -0.1253 -0.0642 -0.2484
  156SAPE   C2117335   0.978   4.596   6.903  0.3583  0.0823 -1.1491
  156SAPE   O2217336   0.903   4.695   6.898  0.0299  0.3998  0.6573
  156SAPE   C2217337   1.036   4.532   7.037  0.4045  0.4593  0.7124
  156SAPE   H2R17338   0.950   4.531   7.108 -1.5250  0.0393 -1.5361
  156SAPE   H2S17339   1.059   4.424   7.027  1.6157  0.4857  2.8607
  156SAPE    C317340   0.779   4.453   6.732  0.4652  0.6339 -0.1292
  156SAPE    HX17341   0.699   4.454   6.655  0.7038  2.7061 -0.3975
  156SAPE    HY17342   0.730   4.516   6.809  1.4277 -0.7341  1.6498
  156SAPE   O3117343   0.790   4.315   6.774  0.0151  0.2621  0.8809
  156SAPE   C3117344   0.766   4.288   6.904 -0.5268  0.2960 -0.7443
  156SAPE   O3217345   0.733   4.374   6.986  0.8580  0.0139 -0.0244
  156SAPE   C3217346   0.794   4.145   6.933  0.2379 -0.0967  0.6573
  156SAPE   H2X17347   0.905   4.137   6.928  0.2883  1.9827 -2.5456
  156SAPE   H2Y17348   0.753   4.077   6.856  1.8500 -2.2011  1.6008
  156SAPE   C2317349   1.150   4.612   7.099 -0.0981  0.2886  0.7881
  156SAPE   H3R17350   1.112   4.716   7.108 -1.9422 -0.0940 -1.9606
  156SAPE   H3S17351   1.240   4.617   7.033  0.3499  1.2057  1.4588
  156SAPE   C2417352   1.191   4.556   7.234  0.6575  0.2350 -1.1062
  156SAPE   H4R17353   1.291   4.599   7.255  0.8741 -1.0468  0.5716
  156SAPE   H4S17354   1.219   4.449   7.243  1.5641  0.6198  0.9034
  156SAPE   C2517355   1.100   4.595   7.347 -0.0794 -0.1727 -0.3539
  156SAPE   H5R17356   1.044   4.690   7.355 -1.0663 -0.8473  1.1645
  156SAPE   C2617357   1.070   4.512   7.446 -1.0331  0.0136 -0.4658
  156SAPE   H6R17358   1.028   4.557   7.537  0.1339 -0.7640  0.4697
  156SAPE   C2717359   1.114   4.364   7.468 -0.2616 -0.0719 -0.3168
  156SAPE   H7R17360   1.108   4.336   7.576  1.1672  1.9747  0.3183
  156SAPE   H7S17361   1.223   4.350   7.450 -0.4337 -0.8859 -0.7780
  156SAPE   C2817362   1.046   4.257   7.376  0.7662 -0.1372  0.6107
  156SAPE   H8R17363   0.998   4.296   7.285 -2.2575 -1.3160  1.6573
  156SAPE   C2917364   1.025   4.123   7.408  0.4631  0.6581 -0.0818
  156SAPE   H9R17365   0.981   4.050   7.338 -1.3475  0.2538  1.4444
  156SAPE  C21017366   1.064   4.053   7.538  0.1685  0.2353  0.2975
  156SAPE  H10R17367   1.136   4.113   7.597  1.4023 -0.5114 -0.4190
  156SAPE  H10S17368   1.113   3.957   7.513  0.0016 -0.3685  2.2362
  156SAPE  C21117369   0.954   4.023   7.648  0.5997  0.0334  0.8883
  156SAPE  H11R17370   0.851   4.043   7.615  0.7893 -1.1308 -0.4519
  156SAPE  C21217371   0.977   3.951   7.760 -0.1141 -0.1283  0.3869
  156SAPE  H12R17372   0.892   3.931   7.828 -0.8855  0.2290 -0.4657
  156SAPE  C21317373   1.112   3.903   7.813  0.2565 -1.0578 -0.2300
  156SAPE  H13R17374   1.135   3.941   7.915 -0.4475  1.8219 -1.0942
  156SAPE  H13S17375   1.196   3.943   7.753  1.4125 -2.3537  0.4749
  156SAPE  C21417376   1.107   3.752   7.790  0.2558 -0.7420 -0.3515
  156SAPE  H14R17377   1.062   3.721   7.694  1.4801 -1.0155 -0.8486
  156SAPE  C21517378   1.126   3.658   7.886  0.1141  0.2037 -0.5993
  156SAPE  H15R17379   1.128   3.552   7.855 -1.1344 -0.7131  2.2322
  156SAPE  C21617380   1.161   3.659   8.032  0.8511  0.2874 -0.4469
  156SAPE  H16R17381   1.224   3.746   8.058 -1.1692  1.7262 -0.2551
  156SAPE  H16S17382   1.207   3.563   8.064 -1.0486 -0.3362  0.5576
  156SAPE  C21717383   1.035   3.681   8.126 -0.0038 -0.5393 -0.6603
  156SAPE  H17R17384   0.981   3.588   8.096  0.2340 -0.2300 -2.0975
  156SAPE  H17S17385   0.989   3.780   8.105  0.3111  0.0151  1.2341
  156SAPE  C21817386   1.084   3.698   8.268 -0.1096  0.3572  0.2817
  156SAPE  H18R17387   1.102   3.806   8.287  1.8221  0.0099  0.5084
  156SAPE  H18S17388   1.173   3.639   8.295  0.9186  1.0935 -1.4401
  156SAPE  C21917389   0.980   3.649   8.364  0.3089  0.2339 -0.3010
  156SAPE  H19R17390   0.987   3.539   8.358 -1.8861  0.0121  0.7026
  156SAPE  H19S17391   0.875   3.682   8.349 -0.0755 -0.9853 -0.3378
  156SAPE  C22017392   1.022   3.699   8.505  0.5786 -0.5748  0.0555
  156SAPE  H20R17393   1.132   3.686   8.502  0.5019 -1.6547  1.4913
  156SAPE  H20S17394   0.993   3.631   8.588  1.3808 -1.3446 -0.2946
  156SAPE  H20T17395   0.999   3.806   8.525 -0.5781 -1.0240  1.2307
  156SAPE   C3317396   0.733   4.106   7.072 -0.2434 -0.1976  0.1443
  156SAPE   H3X17397   0.622   4.113   7.068 -0.1068  1.5739 -1.2006
  156SAPE   H3Y17398   0.772   4.169   7.155  1.7098  0.7116 -1.4366
  156SAPE   C3417399   0.759   3.963   7.105  0.4652 -0.9604  0.1557
  156SAPE   H4X17400   0.869   3.952   7.090  0.4697 -1.4628  0.5282
  156SAPE   H4Y17401   0.707   3.899   7.030 -0.1910  0.4295 -0.5859
  156SAPE   C3517402   0.724   3.925   7.248  0.1413 -0.2468 -0.3089
  156SAPE   H5X17403   0.616   3.913   7.272  0.7253 -1.3273  1.9085
  156SAPE   H5Y17404   0.760   4.006   7.316  1.2590  0.6197 -1.9067
  156SAPE   C3617405   0.801   3.801   7.291  0.1868  0.1367  0.3529
  156SAPE   H6X17406   0.908   3.823   7.309 -0.0888 -0.8027  3.5116
  156SAPE   H6Y17407   0.782   3.715   7.223 -0.5749 -1.4201  2.4837
  156SAPE   C3717408   0.749   3.771   7.430 -0.7208  0.9473 -0.4432
  156SAPE   H7X17409   0.638   3.762   7.429 -0.5556 -1.7147  1.1083
  156SAPE   H7Y17410   0.778   3.852   7.499 -2.4918  1.1336  0.1283
  156SAPE   C3817411   0.806   3.642   7.496  0.7681 -0.4347 -0.3114
  156SAPE   H8X17412   0.917   3.646   7.491  0.7519 -0.4089 -0.6556
  156SAPE   H8Y17413   0.771   3.552   7.441 -0.0197 -0.3991  0.1321
  156SAPE   C3917414   0.785   3.637   7.648 -0.8243  0.4360 -0.9183
  156SAPE   H9X17415   0.676   3.633   7.669 -0.3149 -0.0261  1.8168
  156SAPE   H9Y17416   0.824   3.735   7.683  0.5081 -0.2638 -0.3789
  156SAPE  C31017417   0.844   3.515   7.713 -0.4946  0.1836  0.4503
  156SAPE  H10X17418   0.954   3.531   7.708 -0.5184 -0.3998 -2.5776
  156SAPE  H10Y17419   0.814   3.430   7.649  1.0710  2.0450 -2.8524
  156SAPE  C31117420   0.791   3.475   7.841 -0.4681 -0.2970  0.1696
  156SAPE  H11X17421   0.684   3.446   7.832 -0.5807 -0.1341  0.9515
  156SAPE  H11Y17422   0.800   3.566   7.904 -2.5856  0.9081 -1.1888
  156SAPE  C31217423   0.885   3.365   7.899 -0.3713  0.2839  0.3865
  156SAPE  H12X17424   0.989   3.403   7.892 -0.2424 -0.2135 -0.4714
  156SAPE  H12Y17425   0.883   3.282   7.826 -0.1907  2.2938 -1.9688
  156SAPE  C31317426   0.858   3.311   8.041 -0.0822  0.0569 -0.4638
  156SAPE  H13X17427   0.748   3.296   8.043 -0.0052 -0.6482  4.1618
  156SAPE  H13Y17428   0.876   3.395   8.112 -1.4411  0.8163 -0.9979
  156SAPE  C31417429   0.942   3.192   8.064  0.4483 -0.8130 -0.9399
  156SAPE  H14X17430   1.047   3.225   8.051 -0.0883  2.6601  2.4629
  156SAPE  H14Y17431   0.925   3.121   7.980  0.0455 -1.3320 -0.4158
  156SAPE  C31517432   0.938   3.137   8.205 -0.1003 -0.0233  0.4324
  156SAPE  H15X17433   0.850   3.178   8.259 -0.6706 -0.5394 -0.0885
  156SAPE  H15Y17434   1.026   3.156   8.269 -0.2721 -0.0242  0.6714
  156SAPE  C31617435   0.913   2.991   8.198 -0.2950  0.3593 -0.7021
  156SAPE  H16X17436   1.000   2.925   8.182 -0.6974 -0.0887 -1.0455
  156SAPE  H16Y17437   0.831   2.976   8.125 -0.5960  1.2762 -0.5599
  156SAPE  C31717438   0.858   2.945   8.334 -0.2257  0.2575 -0.0501
  156SAPE  H17X17439   0.773   3.009   8.366 -1.0030 -1.0804  0.5810
  156SAPE  H17Y17440   0.931   2.948   8.418  1.5162  2.5193 -1.5489
  156SAPE  C31817441   0.799   2.801   8.329  0.2442 -0.4656 -0.0246
  156SAPE  H18X17442   0.721   2.798   8.250  0.9435  0.5904 -0.7726
  156SAPE  H18Y17443   0.764   2.755   8.423  0.3768  0.3619  0.4307
  156SAPE  H18Z17444   0.880   2.732   8.296  2.6022  2.4769 -0.6993
  157SAPE     N17445   4.323   5.720   6.156  0.5479 -0.5225  0.2731
  157SAPE   HN117446   4.284   5.673   6.240  1.5915 -0.7920  0.6148
  157SAPE   HN217447   4.391   5.795   6.179  0.5627 -0.7626  1.0242
  157SAPE   HN317448   4.244   5.766   6.107  0.6699  0.8948  1.3844
  157SAPE   C1217449   4.391   5.619   6.065 -0.9394 -0.1143  0.4159
  157SAPE  H12A17450   4.413   5.664   5.965  1.1409 -1.0344  0.4456
  157SAPE  H12B17451   4.319   5.535   6.053 -1.1632  0.2053 -0.5308
  157SAPE   C1117452   4.518   5.568   6.133 -0.3346 -0.1491 -0.5430
  157SAPE  H11A17453   4.554   5.478   6.078 -3.4654 -1.0228 -1.2728
  157SAPE  H11B17454   4.510   5.531   6.238  2.3431  0.4757 -0.0614
  157SAPE     P17455   4.760   5.654   6.189  0.3152  0.0324 -0.2696
  157SAPE   O1317456   4.815   5.515   6.174 -0.1726  0.0271  0.2971
  157SAPE   O1417457   4.846   5.773   6.152  0.4101  0.9246 -0.1980
  157SAPE   O1217458   4.616   5.671   6.125  0.1201  0.0895 -0.0730
  157SAPE   O1117459   4.740   5.671   6.347  0.5874  0.1241  0.4324
  157SAPE    C117460   4.672   5.782   6.400 -0.0288 -0.3299  0.4494
  157SAPE    HA17461   4.602   5.827   6.327 -0.4940 -1.4130  0.2253
  157SAPE    HB17462   4.607   5.726   6.471  0.9002 -0.3136  1.3313
  157SAPE    C217463   4.765   5.886   6.466 -0.5429 -0.2012 -0.1004
  157SAPE    HS17464   4.836   5.922   6.389  3.3131 -2.9500  1.9249
  157SAPE   O2117465   4.847   5.817   6.560 -0.2617  0.4724 -0.1342
  157SAPE   C2117466   4.935   5.885   6.622  0.3177 -0.7861 -0.3646
  157SAPE   O2217467   4.981   5.996   6.598 -0.1399 -0.0901  0.1724
  157SAPE   C2217468   4.982   5.811   6.737 -0.9004 -0.2492 -0.5120
  157SAPE   H2R17469   4.937   5.712   6.760 -0.1195 -0.0928  1.8353
  157SAPE   H2S17470   5.089   5.790   6.720 -0.8099  0.2400 -0.5551
  157SAPE    C317471   4.683   6.008   6.525  0.0788  0.6069  0.8986
  157SAPE    HX17472   4.637   6.060   6.438 -1.6313 -1.4982  0.4918
  157SAPE    HY17473   4.751   6.086   6.564 -0.8600  0.6054  2.5802
  157SAPE   O3117474   4.581   5.965   6.612  0.2401  0.0582 -0.0342
  157SAPE   C3117475   4.597   6.003   6.737  0.0015  0.6836  0.5688
  157SAPE   O3217476   4.676   6.083   6.780  0.5160  0.7261  0.3099
  157SAPE   C3217477   4.498   5.912   6.818 -0.1722 -0.6683  0.7797
  157SAPE   H2X17478   4.427   5.877   6.739  2.3688  3.2924 -3.5419
  157SAPE   H2Y17479   4.441   5.986   6.878  1.4357  2.9048 -1.8879
  157SAPE   C2317480   4.971   5.911   6.858  1.0489 -0.7604 -0.4699
  157SAPE   H3R17481   4.866   5.926   6.891  1.1430 -1.1881  0.0215
  157SAPE   H3S17482   5.014   6.011   6.836 -1.3453  0.9521  2.2502
  157SAPE   C2417483   5.063   5.870   6.980 -0.4156 -0.4459 -0.3807
  157SAPE   H4R17484   5.068   5.955   7.051  1.2357 -0.2239 -0.7425
  157SAPE   H4S17485   5.166   5.858   6.941 -0.4435  0.5609 -0.7808
  157SAPE   C2517486   5.025   5.745   7.055 -0.5556 -0.6194  0.0768
  157SAPE   H5R17487   4.932   5.757   7.113  0.3771  0.0197  1.4801
  157SAPE   C2617488   5.095   5.638   7.084  0.3237 -0.2002  0.5385
  157SAPE   H6R17489   5.038   5.561   7.138  0.6560 -0.5784  0.3465
  157SAPE   C2717490   5.240   5.608   7.058 -0.4823  0.5323  0.5728
  157SAPE   H7R17491   5.298   5.653   7.142 -1.4227 -1.5773  2.4017
  157SAPE   H7S17492   5.279   5.654   6.965  0.5292 -0.7226  0.3718
  157SAPE   C2817493   5.271   5.463   7.059  0.3694 -0.3062 -0.1644
  157SAPE   H8R17494   5.281   5.417   6.959  0.0536 -1.1213  0.1694
  157SAPE   C2917495   5.286   5.375   7.162 -0.2349  0.4804  0.1215
  157SAPE   H9R17496   5.283   5.267   7.142 -1.8550  0.6328 -0.5626
  157SAPE  C21017497   5.290   5.412   7.309  0.7802  0.8741 -0.1865
  157SAPE  H10R17498   5.231   5.342   7.372  2.5182 -0.7116 -0.2853
  157SAPE  H10S17499   5.248   5.514   7.323  1.3455  0.8796  1.5723
  157SAPE  C21117500   5.439   5.408   7.346 -0.7656  0.0556 -0.1640
  157SAPE  H11R17501   5.499   5.458   7.269 -1.3041  0.6539 -0.2029
  157SAPE  C21217502   5.500   5.341   7.446 -0.2876 -0.2528  0.0678
  157SAPE  H12R17503   5.606   5.360   7.466 -0.2130  1.2297 -1.5883
  157SAPE  C21317504   5.436   5.256   7.553 -0.3040 -0.2618 -0.1588
  157SAPE  H13R17505   5.505   5.170   7.568  0.2376  0.1389 -0.3127
  157SAPE  H13S17506   5.344   5.210   7.512 -0.5126  0.7323 -0.8291
  157SAPE  C21417507   5.420   5.346   7.672  0.2450  0.1535  0.4968
  157SAPE  H14R17508   5.410   5.453   7.653  0.7914  0.0456 -0.4323
  157SAPE  C21517509   5.403   5.310   7.796  0.0464 -0.3756 -0.4688
  157SAPE  H15R17510   5.388   5.385   7.876 -0.3485 -0.4466 -0.4744
  157SAPE  C21617511   5.398   5.168   7.851 -0.2605 -0.6931 -0.2952
  157SAPE  H16R17512   5.502   5.145   7.885 -0.6548  2.0069  2.9845
  157SAPE  H16S17513   5.362   5.100   7.771 -0.0084  0.2683 -1.2318
  157SAPE  C21717514   5.314   5.162   7.976 -0.1684  0.1807  0.0082
  157SAPE  H17R17515   5.212   5.165   7.934  0.9252 -2.1953 -3.0293
  157SAPE  H17S17516   5.338   5.234   8.057  0.0030 -1.7405  1.7187
  157SAPE  C21817517   5.327   5.022   8.034  0.3049  0.5585 -0.4620
  157SAPE  H18R17518   5.420   5.017   8.094  0.9250  1.6646 -1.3191
  157SAPE  H18S17519   5.335   4.947   7.953  1.7018  1.8564 -1.5423
  157SAPE  C21917520   5.203   4.987   8.126  0.2935  0.2510  0.0226
  157SAPE  H19R17521   5.189   4.877   8.130 -1.1307  0.4755  2.2384
  157SAPE  H19S17522   5.113   5.031   8.078 -0.4724  0.3818  1.5482
  157SAPE  C22017523   5.214   5.049   8.263  0.0738 -0.0833 -0.1931
  157SAPE  H20R17524   5.223   5.160   8.265  0.4774 -0.1263  1.1208
  157SAPE  H20S17525   5.300   5.007   8.319 -0.8914  0.9226  2.1227
  157SAPE  H20T17526   5.119   5.034   8.319 -0.8140 -1.5501 -2.0566
  157SAPE   C3317527   4.548   5.795   6.906 -0.0340 -0.5138  0.2275
  157SAPE   H3X17528   4.649   5.757   6.881 -0.4117  0.3365 -2.8227
  157SAPE   H3Y17529   4.473   5.713   6.895 -0.0510 -0.3850 -0.6659
  157SAPE   C3417530   4.521   5.825   7.049 -1.1029 -0.1338  0.2382
  157SAPE   H4X17531   4.522   5.731   7.108 -1.4940  0.4586  1.2065
  157SAPE   H4Y17532   4.423   5.876   7.056 -0.5903  0.5109  4.6333
  157SAPE   C3517533   4.627   5.913   7.111  0.2831  0.1198 -0.2154
  157SAPE   H5X17534   4.639   6.007   7.052  1.2648  0.7582  0.9646
  157SAPE   H5Y17535   4.726   5.864   7.102  0.9778  1.2702  1.0889
  157SAPE   C3617536   4.606   5.940   7.262  0.1950  0.2480  0.3307
  157SAPE   H6X17537   4.571   5.852   7.320 -0.8487  0.9454  0.7686
  157SAPE   H6Y17538   4.525   6.016   7.261 -0.1088 -0.0693  0.5360
  157SAPE   C3717539   4.721   6.006   7.332 -0.2242 -0.0831 -0.5492
  157SAPE   H7X17540   4.749   6.105   7.290 -1.8481  1.1696  1.1965
  157SAPE   H7Y17541   4.814   5.947   7.329 -0.4540 -0.4619 -0.3143
  157SAPE   C3817542   4.694   6.037   7.477  0.7917 -0.0664 -0.2051
  157SAPE   H8X17543   4.614   5.967   7.511 -1.1315  0.8498 -2.6642
  157SAPE   H8Y17544   4.641   6.135   7.479  0.7766  0.0183 -3.1052
  157SAPE   C3917545   4.814   6.026   7.574  0.1043 -0.3123  0.2123
  157SAPE   H9X17546   4.903   6.082   7.536 -0.3333 -0.0245 -0.3952
  157SAPE   H9Y17547   4.848   5.920   7.572  0.5325 -0.2279  2.1322
  157SAPE  C31017548   4.794   6.070   7.716 -0.5417  0.1236  0.0663
  157SAPE  H10X17549   4.697   6.028   7.750  0.5693 -3.3741 -0.8869
  157SAPE  H10Y17550   4.779   6.180   7.715  0.6712  0.2996 -0.2934
  157SAPE  C31117551   4.891   6.037   7.831 -0.0103  0.1911 -0.8408
  157SAPE  H11X17552   4.884   5.927   7.844 -0.7678  0.2252 -0.9459
  157SAPE  H11Y17553   4.848   6.088   7.920 -1.3115  0.7013 -1.7624
  157SAPE  C31217554   5.038   6.073   7.792 -0.5755  0.4041 -0.8913
  157SAPE  H12X17555   5.040   6.184   7.786  0.0771  0.5000  0.8041
  157SAPE  H12Y17556   5.069   6.025   7.697  1.0390  1.6245 -0.9970
  157SAPE  C31317557   5.147   6.031   7.898 -1.0360 -0.2534 -1.1854
  157SAPE  H13X17558   5.124   6.083   7.993 -0.0710  0.5480 -1.3817
  157SAPE  H13Y17559   5.244   6.073   7.863  0.0565 -2.6746 -1.2189
  157SAPE  C31417560   5.145   5.885   7.921  0.2602  0.0193  0.0254
  157SAPE  H14X17561   5.142   5.828   7.825  1.1205  0.3928 -0.2343
  157SAPE  H14Y17562   5.054   5.856   7.977  0.4478  0.4694  0.5638
  157SAPE  C31517563   5.271   5.837   8.004 -0.0827 -0.2870 -0.0416
  157SAPE  H15X17564   5.275   5.898   8.097 -1.2304  0.6317 -0.5733
  157SAPE  H15Y17565   5.363   5.860   7.945  0.3689 -0.8658  0.4346
  157SAPE  C31617566   5.258   5.687   8.045  0.2765  0.5955 -0.5750
  157SAPE  H16X17567   5.277   5.633   7.950  2.5313  2.3846 -1.1918
  157SAPE  H16Y17568   5.158   5.665   8.089  0.6827  1.8303  1.0609
  157SAPE  C31717569   5.365   5.650   8.146 -0.4501  0.0577 -0.7224
  157SAPE  H17X17570   5.359   5.719   8.233 -1.9516  0.0273 -0.7889
  157SAPE  H17Y17571   5.463   5.676   8.102 -0.0550 -0.0072  0.1189
  157SAPE  C31817572   5.362   5.500   8.191  1.2684  0.0882 -0.4772
  157SAPE  H18X17573   5.465   5.483   8.227  1.8274  1.0655 -1.5710
  157SAPE  H18Y17574   5.335   5.437   8.103 -0.5594  1.1493 -0.6998
  157SAPE  H18Z17575   5.302   5.475   8.281  0.1346 -3.2751 -2.0587
  158SAPE     N17576   0.644   3.228   6.273  0.1052  0.2504  0.2249
  158SAPE   HN117577   0.650   3.166   6.356 -2.2868 -0.0913  0.2002
  158SAPE   HN217578   0.569   3.191   6.211  1.4806  0.6476 -1.6839
  158SAPE   HN317579   0.735   3.230   6.224  1.0829 -2.2541  1.8426
  158SAPE   C1217580   0.612   3.371   6.304 -0.2762  0.4215  0.3336
  158SAPE  H12A17581   0.621   3.426   6.208  2.1835 -0.0230  0.2879
  158SAPE  H12B17582   0.683   3.410   6.379  2.5400 -1.8900 -1.0312
  158SAPE   C1117583   0.473   3.389   6.365  0.2859  0.3420  0.6119
  158SAPE  H11A17584   0.475   3.332   6.460  0.9164 -0.4893  0.1113
  158SAPE  H11B17585   0.396   3.354   6.294  0.1896 -1.3673  1.5441
  158SAPE     P17586   0.357   3.621   6.316  0.5081  0.0603 -0.2435
  158SAPE   O1317587   0.377   3.757   6.363  0.1870 -0.2297 -0.0147
  158SAPE   O1417588   0.382   3.598   6.175  0.2987 -0.5875  0.4747
  158SAPE   O1217589   0.452   3.525   6.402 -0.1292  0.3969 -0.6629
  158SAPE   O1117590   0.215   3.560   6.355 -0.0393  0.3488  0.3470
  158SAPE    C117591   0.196   3.512   6.492  0.1635 -0.2349  0.7565
  158SAPE    HA17592   0.116   3.435   6.496  0.9539 -1.1414 -0.7696
  158SAPE    HB17593   0.281   3.452   6.530  0.3651 -1.6439 -1.8741
  158SAPE    C217594   0.173   3.629   6.589 -0.7994  0.0032 -0.8323
  158SAPE    HS17595   0.262   3.684   6.625 -0.4600 -1.9222  1.3464
  158SAPE   O2117596   0.113   3.568   6.710  0.1291 -0.3993  0.1107
  158SAPE   C2117597   0.193   3.506   6.789 -0.0243  0.0953 -0.0974
  158SAPE   O2217598   0.313   3.506   6.792  0.1914  0.0035 -0.6661
  158SAPE   C2217599   0.098   3.437   6.891 -0.1675  0.5056  0.6791
  158SAPE   H2R17600   0.162   3.372   6.954  0.2352 -0.6527 -0.8886
  158SAPE   H2S17601   0.063   3.518   6.959  0.6038  0.1753  1.4742
  158SAPE    C317602   0.075   3.737   6.530 -0.0502 -0.5954 -0.5303
  158SAPE    HX17603   0.008   3.681   6.462  2.3828 -0.8461 -2.8295
  158SAPE    HY17604   0.141   3.798   6.464 -0.6810  0.7022  0.0109
  158SAPE   O3117605   0.022   3.820   6.634 -0.0287 -0.0129  0.7081
  158SAPE   C3117606  -0.105   3.792   6.674 -0.7023 -0.1042 -0.5896
  158SAPE   O3217607  -0.166   3.699   6.630 -0.0392  1.2844  0.5914
  158SAPE   C3217608  -0.150   3.881   6.789  0.2012  0.6155 -0.0739
  158SAPE   H2X17609  -0.257   3.863   6.809  0.1414  1.5792  0.5153
  158SAPE   H2Y17610  -0.136   3.986   6.755 -0.2208  1.1843  1.4331
  158SAPE   C2317611  -0.021   3.370   6.831  0.4056  0.0218  0.3119
  158SAPE   H3R17612   0.010   3.313   6.742  2.6955  0.6023  0.7123
  158SAPE   H3S17613  -0.089   3.452   6.798  0.5608 -0.0823 -0.2656
  158SAPE   C2417614  -0.098   3.273   6.926 -0.1543  0.0939  0.2010
  158SAPE   H4R17615  -0.035   3.183   6.935 -0.9694 -0.4340  0.6696
  158SAPE   H4S17616  -0.182   3.233   6.866  0.6227 -1.0338 -0.1458
  158SAPE   C2517617  -0.150   3.336   7.048  0.0476 -0.5221  0.6411
  158SAPE   H5R17618  -0.224   3.415   7.029  0.3484 -0.5801 -0.8698
  158SAPE   C2617619  -0.120   3.307   7.175 -0.2769 -0.0854  0.3618
  158SAPE   H6R17620  -0.169   3.369   7.251  2.8149  1.9494  0.8180
  158SAPE   C2717621  -0.032   3.194   7.226 -0.0692  0.5179  0.0600
  158SAPE   H7R17622   0.026   3.215   7.318  1.2285 -2.7421  0.0705
  158SAPE   H7S17623   0.048   3.175   7.151  0.6293  1.7071  0.5004
  158SAPE   C2817624  -0.119   3.073   7.249 -0.2324  0.1161  0.2561
  158SAPE   H8R17625  -0.153   3.013   7.164 -0.0697  1.0155 -0.4557
  158SAPE   C2917626  -0.166   3.033   7.371  0.5721 -0.0783 -0.2942
  158SAPE   H9R17627  -0.217   2.936   7.377  1.1191 -0.4603 -1.6345
  158SAPE  C21017628  -0.137   3.104   7.507  0.0698 -0.0223  0.7916
  158SAPE  H10R17629  -0.228   3.090   7.568 -0.3604  0.6187  0.3058
  158SAPE  H10S17630  -0.133   3.212   7.483 -1.6975 -0.6652 -2.8393
  158SAPE  C21117631  -0.011   3.051   7.579  0.0141 -0.0766 -0.3373
  158SAPE  H11R17632   0.087   3.089   7.545 -0.1443 -0.8828 -1.7426
  158SAPE  C21217633  -0.008   2.986   7.692  0.3741 -0.1138  0.6415
  158SAPE  H12R17634   0.083   2.952   7.743  0.1765 -0.3741  0.8251
  158SAPE  C21317635  -0.139   2.954   7.762 -0.7736  0.1937  0.4709
  158SAPE  H13R17636  -0.130   2.863   7.825  0.9983 -0.1850 -0.2859
  158SAPE  H13S17637  -0.215   2.928   7.685 -0.1273 -1.2029  0.2811
  158SAPE  C21417638  -0.174   3.056   7.870  0.1011 -0.1913  0.6376
  158SAPE  H14R17639  -0.260   3.122   7.848  0.8511  0.2773 -0.9826
  158SAPE  C21517640  -0.112   3.068   7.990  0.1293 -0.5310 -0.4263
  158SAPE  H15R17641  -0.143   3.147   8.061  3.0515  0.1482  0.1853
  158SAPE  C21617642  -0.001   2.977   8.052  0.3405 -0.3298  0.6022
  158SAPE  H16R17643   0.054   3.025   8.135 -2.4732  2.5481  0.9130
  158SAPE  H16S17644   0.080   2.961   7.978 -0.1422 -0.5946  0.1228
  158SAPE  C21717645  -0.054   2.843   8.109 -0.6120 -0.4269 -0.1569
  158SAPE  H17R17646   0.031   2.774   8.129  0.9448  1.6397  0.5590
  158SAPE  H17S17647  -0.120   2.793   8.034 -0.3878  1.9135 -1.9748
  158SAPE  C21817648  -0.127   2.863   8.244  0.7266  0.1311 -1.0225
  158SAPE  H18R17649  -0.211   2.936   8.239  0.9895  0.4621 -0.5821
  158SAPE  H18S17650  -0.045   2.893   8.312 -0.2978 -0.7692  0.6436
  158SAPE  C21917651  -0.176   2.729   8.306  0.2319  0.4223  0.1797
  158SAPE  H19R17652  -0.090   2.659   8.312 -1.5211 -1.8149 -0.0689
  158SAPE  H19S17653  -0.245   2.680   8.234  0.5158 -0.5878  0.5866
  158SAPE  C22017654  -0.254   2.753   8.438 -0.9034  0.0246 -0.4465
  158SAPE  H20R17655  -0.191   2.821   8.500  1.5521 -1.3527 -1.3424
  158SAPE  H20S17656  -0.258   2.664   8.505  1.5592 -0.1667 -0.4880
  158SAPE  H20T17657  -0.354   2.798   8.421 -0.8797 -0.1590 -1.0690
  158SAPE   C3317658  -0.070   3.873   6.922 -0.1471  0.2855  0.1717
  158SAPE   H3X17659   0.033   3.907   6.900  0.1042  0.6866  1.8891
  158SAPE   H3Y17660  -0.068   3.769   6.962 -1.0066  0.5712  0.9889
  158SAPE   C3417661  -0.127   3.974   7.016 -0.6343  0.9261  0.0189
  158SAPE   H4X17662  -0.238   3.973   7.020 -0.6231 -1.5394  0.8088
  158SAPE   H4Y17663  -0.085   4.073   6.986 -0.1970  0.0585 -2.2742
  158SAPE   C3517664  -0.076   3.968   7.164 -0.0044 -0.7274 -0.1284
  158SAPE   H5X17665   0.033   3.955   7.151  0.2360 -0.2470  1.3993
  158SAPE   H5Y17666  -0.115   3.878   7.217 -0.4996 -0.1117  0.5588
  158SAPE   C3617667  -0.096   4.097   7.247 -0.3444 -0.4799 -0.0666
  158SAPE   H6X17668  -0.205   4.119   7.247 -0.4959 -1.2171  1.2319
  158SAPE   H6Y17669  -0.037   4.180   7.202 -2.0553 -0.3558 -2.1694
  158SAPE   C3717670  -0.050   4.087   7.393 -0.7841  0.4283  0.0719
  158SAPE   H7X17671   0.060   4.070   7.387 -0.2975  3.1421  0.6446
  158SAPE   H7Y17672  -0.064   4.187   7.440 -0.1947  1.1447 -1.2550
  158SAPE   C3817673  -0.130   3.986   7.483 -0.6659  0.3643  0.5097
  158SAPE   H8X17674  -0.108   3.880   7.459 -2.0963  0.2716 -0.5026
  158SAPE   H8Y17675  -0.234   3.989   7.443 -0.1982 -0.5362 -0.8006
  158SAPE   C3917676  -0.121   4.014   7.629  0.6453 -0.2291  0.2886
  158SAPE   H9X17677  -0.203   3.961   7.681  0.8779 -0.7730  0.1089
  158SAPE   H9Y17678  -0.142   4.122   7.644 -4.4809 -1.2867  1.5775
  158SAPE  C31017679   0.018   3.984   7.705 -0.1080  0.2375  0.3191
  158SAPE  H10X17680   0.105   4.028   7.653 -0.9469  1.8157  0.2237
  158SAPE  H10Y17681   0.042   3.876   7.694  4.2619  1.0918  0.7279
  158SAPE  C31117682   0.016   4.032   7.850  0.1092 -0.8697  0.5630
  158SAPE  H11X17683  -0.078   3.992   7.893 -1.0792  3.7669  2.5863
  158SAPE  H11Y17684   0.007   4.139   7.879  2.1252 -0.1368 -1.3321
  158SAPE  C31217685   0.136   3.982   7.933  0.6646 -0.0715 -0.4333
  158SAPE  H12X17686   0.236   3.998   7.888 -0.1556  0.3864 -2.1457
  158SAPE  H12Y17687   0.123   3.872   7.931 -1.7541  0.1934 -0.7908
  158SAPE  C31317688   0.136   4.024   8.083 -0.5585 -0.0373 -0.2341
  158SAPE  H13X17689   0.037   3.994   8.123 -0.6027 -0.2349 -0.4885
  158SAPE  H13Y17690   0.167   4.131   8.082 -0.3441 -0.0816  0.9224
  158SAPE  C31417691   0.232   3.945   8.170  0.1786  0.0501  0.2339
  158SAPE  H14X17692   0.334   3.954   8.127 -0.0511  0.9783 -0.1123
  158SAPE  H14Y17693   0.191   3.842   8.181 -0.8790  0.5636  1.2238
  158SAPE  C31517694   0.231   3.993   8.316 -0.1142 -0.1099  0.1230
  158SAPE  H15X17695   0.132   4.002   8.365  0.2164 -0.9744  0.9653
  158SAPE  H15Y17696   0.269   4.097   8.314  0.5010 -0.3318  0.1381
  158SAPE  C31617697   0.318   3.915   8.413 -0.1726 -0.1313 -0.1638
  158SAPE  H16X17698   0.419   3.883   8.380  0.8326  1.2639  1.4559
  158SAPE  H16Y17699   0.267   3.819   8.431 -1.2422  0.5469  0.4699
  158SAPE  C31717700   0.322   3.980   8.559 -0.0923  0.1271 -0.1134
  158SAPE  H17X17701   0.220   4.017   8.583 -0.0370  2.0033 -2.5632
  158SAPE  H17Y17702   0.383   4.072   8.551  0.5518 -0.1534  1.4821
  158SAPE  C31817703   0.349   3.887   8.673  0.1620 -0.0252  0.3127
  158SAPE  H18X17704   0.456   3.858   8.683  0.6414  1.8850  1.0215
  158SAPE  H18Y17705   0.287   3.795   8.668  0.0417  0.0019  1.1285
  158SAPE  H18Z17706   0.325   3.946   8.764  0.7690  0.5701  0.0874
  159SAPE     N17707   5.547   0.336   6.338 -0.0964 -0.6965  0.2361
  159SAPE   HN117708   5.638   0.291   6.316 -0.5200 -0.5716 -1.8982
  159SAPE   HN217709   5.576   0.435   6.351 -1.3266 -0.3543  0.4658
  159SAPE   HN317710   5.509   0.297   6.427  1.4851  2.6538  2.4826
  159SAPE   C1217711   5.457   0.321   6.226 -0.1159 -0.2724  1.1581
  159SAPE  H12A17712   5.493   0.368   6.132 -2.8097 -0.7748 -0.1824
  159SAPE  H12B17713   5.362   0.375   6.250 -0.4838  0.0123 -0.8535
  159SAPE   C1117714   5.425   0.171   6.188  0.2712 -0.2428 -0.7976
  159SAPE  H11A17715   5.349   0.170   6.106 -1.3050 -0.8421  0.6324
  159SAPE  H11B17716   5.371   0.123   6.272  4.4638 -1.3260  1.4093
  159SAPE     P17717   5.540  -0.056   6.124 -0.1622  0.0486  0.3335
  159SAPE   O1317718   5.432  -0.109   6.035  0.0749  0.2022 -0.2442
  159SAPE   O1417719   5.678  -0.101   6.087  0.0314  0.8964  0.0917
  159SAPE   O1217720   5.542   0.101   6.147 -0.2466 -0.1581  0.4049
  159SAPE   O1117721   5.512  -0.115   6.271  0.1146 -0.2067 -0.2176
  159SAPE    C117722   5.585  -0.071   6.379  0.2682 -0.0896 -0.2260
  159SAPE    HA17723   5.640   0.025   6.364  0.0758  0.0817  0.1780
  159SAPE    HB17724   5.511  -0.047   6.458 -0.8486 -0.1609 -1.2497
  159SAPE    C217725   5.676  -0.192   6.436 -0.7544 -0.7450 -0.1771
  159SAPE    HS17726   5.760  -0.208   6.365 -0.9969  1.7572 -1.0844
  159SAPE   O2117727   5.603  -0.315   6.444 -0.0836  0.2590 -0.2673
  159SAPE   C2117728   5.528  -0.330   6.554  0.1537 -0.0675  0.2386
  159SAPE   O2217729   5.492  -0.247   6.633 -0.2400  0.5206  0.0630
  159SAPE   C2217730   5.500  -0.477   6.565  0.8923  0.2303 -0.3650
  159SAPE   H2R17731   5.406  -0.502   6.512  1.1449 -1.1493 -0.1984
  159SAPE   H2S17732   5.576  -0.545   6.521  2.3720  1.5637  0.1018
  159SAPE    C317733   5.760  -0.147   6.561 -0.1396  0.1287  0.2901
  159SAPE    HX17734   5.686  -0.099   6.629  0.8450  1.5435  0.3777
  159SAPE    HY17735   5.830  -0.068   6.529  0.3693 -0.3752  0.1469
  159SAPE   O3117736   5.828  -0.265   6.621  0.2140 -0.2451  0.2905
  159SAPE   C3117737   5.855  -0.253   6.750  0.1241 -0.0376  0.2706
  159SAPE   O3217738   5.841  -0.144   6.809  0.2085  0.1574  0.0445
  159SAPE   C3217739   5.906  -0.381   6.809  0.5365 -0.2797  0.1818
  159SAPE   H2X17740   6.004  -0.395   6.759  1.5367  2.2674  1.3401
  159SAPE   H2Y17741   5.840  -0.459   6.766  0.2139 -1.3070  2.4505
  159SAPE   C2317742   5.488  -0.523   6.714  0.2239  0.3091 -0.8430
  159SAPE   H3R17743   5.407  -0.471   6.769 -0.3655  0.7231 -2.0785
  159SAPE   H3S17744   5.586  -0.516   6.766 -0.7468 -1.8198  1.3405
  159SAPE   C2417745   5.457  -0.680   6.711  0.4892  0.4086 -0.3998
  159SAPE   H4R17746   5.550  -0.726   6.671  1.1253  0.3717  1.0707
  159SAPE   H4S17747   5.376  -0.686   6.636 -1.7864 -0.3767  2.0347
  159SAPE   C2517748   5.400  -0.760   6.829  0.1172 -0.0399  0.1155
  159SAPE   H5R17749   5.367  -0.860   6.796 -1.5529  0.3282  0.6035
  159SAPE   C2617750   5.394  -0.731   6.958 -0.3377  0.4550 -0.0443
  159SAPE   H6R17751   5.354  -0.801   7.033  0.1835 -0.0948 -0.2802
  159SAPE   C2717752   5.438  -0.610   7.029  0.6821 -0.4072 -0.4056
  159SAPE   H7R17753   5.378  -0.598   7.121 -0.2928 -0.6775 -0.9951
  159SAPE   H7S17754   5.414  -0.525   6.961  1.1687 -1.1023 -1.4540
  159SAPE   C2817755   5.587  -0.609   7.048 -0.1525 -0.0928 -0.1089
  159SAPE   H8R17756   5.654  -0.583   6.966  0.2559 -0.5956  0.0635
  159SAPE   C2917757   5.652  -0.613   7.164 -0.0963  0.5582 -0.0222
  159SAPE   H9R17758   5.761  -0.600   7.162  0.1545 -1.3871 -2.2620
  159SAPE  C21017759   5.578  -0.614   7.297  0.5253  0.4331  0.7594
  159SAPE  H10R17760   5.522  -0.710   7.304  0.0061  0.6665 -0.1782
  159SAPE  H10S17761   5.502  -0.534   7.305  0.6587  0.7147 -0.7304
  159SAPE  C21117762   5.669  -0.590   7.411  0.1863 -0.8997  0.0277
  159SAPE  H11R17763   5.761  -0.534   7.390 -1.4633  1.4655 -1.1276
  159SAPE  C21217764   5.647  -0.645   7.534 -0.6857 -0.0078 -0.5946
  159SAPE  H12R17765   5.720  -0.625   7.614 -0.3614  1.5542 -1.2727
  159SAPE  C21317766   5.539  -0.746   7.573 -0.5611  0.2627  0.6902
  159SAPE  H13R17767   5.565  -0.783   7.674  0.8734  0.7443  0.5092
  159SAPE  H13S17768   5.532  -0.834   7.505 -0.9020 -0.9858  2.3066
  159SAPE  C21417769   5.408  -0.672   7.594  0.0196  0.2764 -0.1314
  159SAPE  H14R17770   5.403  -0.592   7.670  0.6429 -0.8989  1.1733
  159SAPE  C21517771   5.301  -0.683   7.513 -1.2475  0.2325 -0.0302
  159SAPE  H15R17772   5.214  -0.621   7.536 -1.8646 -0.6625  0.0613
  159SAPE  C21617773   5.288  -0.768   7.393 -0.1633  0.4150 -0.9030
  159SAPE  H16R17774   5.384  -0.817   7.365 -0.2353 -1.4525  1.9573
  159SAPE  H16S17775   5.270  -0.693   7.313  2.5691  2.2637  0.1349
  159SAPE  C21717776   5.168  -0.865   7.415 -0.0371  0.2149 -0.2366
  159SAPE  H17R17777   5.125  -0.889   7.316 -0.5980 -1.7192  0.4612
  159SAPE  H17S17778   5.081  -0.819   7.467  0.4220  1.8598 -0.8912
  159SAPE  C21817779   5.211  -1.001   7.477 -0.2831 -0.0369 -0.5822
  159SAPE  H18R17780   5.279  -0.979   7.562 -1.2541 -0.0793  0.2141
  159SAPE  H18S17781   5.266  -1.062   7.403 -2.2995 -0.2771 -1.9144
  159SAPE  C21917782   5.093  -1.084   7.529 -0.2493 -0.2632  0.2700
  159SAPE  H19R17783   5.035  -1.109   7.438  1.1155  2.6860 -1.4872
  159SAPE  H19S17784   5.026  -1.009   7.575 -0.6327  0.0359 -0.7562
  159SAPE  C22017785   5.139  -1.209   7.604 -0.0701  0.2213  0.8281
  159SAPE  H20R17786   5.060  -1.277   7.646  0.3669  0.0762  1.4310
  159SAPE  H20S17787   5.197  -1.169   7.690  0.9649  0.2938  0.0936
  159SAPE  H20T17788   5.200  -1.269   7.533 -0.0696  1.5725 -0.3240
  159SAPE   C3317789   5.918  -0.374   6.960  0.4140 -0.3139  0.3840
  159SAPE   H3X17790   5.875  -0.466   7.005 -1.9941  1.4895  1.8909
  159SAPE   H3Y17791   5.855  -0.293   7.002 -2.9718 -2.6809  0.0724
  159SAPE   C3417792   6.061  -0.365   7.014 -0.1419 -0.1624 -0.1076
  159SAPE   H4X17793   6.096  -0.260   7.001 -1.4445  0.4768  1.3795
  159SAPE   H4Y17794   6.120  -0.427   6.943  0.9832  0.2510  0.4710
  159SAPE   C3517795   6.078  -0.405   7.157 -0.6660  0.4829  0.5639
  159SAPE   H5X17796   6.182  -0.372   7.180 -0.3901  1.2518 -1.6537
  159SAPE   H5Y17797   6.058  -0.514   7.172 -1.0426  0.5610  0.6145
  159SAPE   C3617798   5.995  -0.321   7.252 -0.4264  0.0911 -0.1986
  159SAPE   H6X17799   5.890  -0.324   7.218 -0.6856  1.0663  0.5090
  159SAPE   H6Y17800   6.010  -0.211   7.246  1.4292 -0.1137  0.2713
  159SAPE   C3717801   6.011  -0.366   7.398  1.0465  0.6125 -0.1826
  159SAPE   H7X17802   6.117  -0.368   7.430  0.5211 -3.5875  1.6650
  159SAPE   H7Y17803   5.982  -0.473   7.393  0.6623  0.7904 -3.0504
  159SAPE   C3817804   5.918  -0.285   7.493  0.5396 -0.5467  0.5534
  159SAPE   H8X17805   5.815  -0.299   7.453  1.3844  0.6584 -2.2126
  159SAPE   H8Y17806   5.939  -0.179   7.469 -0.2788 -1.2621 -3.7593
  159SAPE   C3917807   5.938  -0.306   7.639 -0.3463 -0.5253  0.8001
  159SAPE   H9X17808   5.881  -0.225   7.690 -1.2132 -1.8932  2.0513
  159SAPE   H9Y17809   6.044  -0.287   7.665 -0.3945  1.3136 -0.2734
  159SAPE  C31017810   5.893  -0.448   7.679 -0.5189 -0.3500 -0.1341
  159SAPE  H10X17811   5.915  -0.517   7.595  1.9184 -0.6577  0.7145
  159SAPE  H10Y17812   5.784  -0.445   7.696 -0.7327 -0.2151 -1.4913
  159SAPE  C31117813   5.952  -0.496   7.810 -0.4647 -0.2151 -0.3704
  159SAPE  H11X17814   6.062  -0.490   7.800 -0.3829 -0.9421  0.0213
  159SAPE  H11Y17815   5.924  -0.603   7.820 -0.2322 -0.2509 -0.0788
  159SAPE  C31217816   5.910  -0.401   7.933  0.3214 -0.0035 -0.4422
  159SAPE  H12X17817   5.944  -0.298   7.908 -0.3707  0.1487 -0.7762
  159SAPE  H12Y17818   5.973  -0.432   8.018 -1.0313 -1.6762 -0.0275
  159SAPE  C31317819   5.768  -0.401   7.969 -0.8013  0.0604 -0.4969
  159SAPE  H13X17820   5.733  -0.506   7.984 -3.5748  1.1107  0.5700
  159SAPE  H13Y17821   5.714  -0.361   7.881  0.3665  1.8269 -0.4258
  159SAPE  C31417822   5.718  -0.330   8.094  0.0022  0.4652  0.0878
  159SAPE  H14X17823   5.610  -0.355   8.095  0.0200  0.3971  0.3234
  159SAPE  H14Y17824   5.736  -0.222   8.073  1.5219  0.0529 -0.8318
  159SAPE  C31517825   5.799  -0.375   8.212  0.7768  0.1271 -0.4705
  159SAPE  H15X17826   5.894  -0.318   8.218  0.8367 -0.2972  4.4937
  159SAPE  H15Y17827   5.820  -0.484   8.205  1.2025  0.0743  1.4721
  159SAPE  C31617828   5.735  -0.363   8.350 -0.3806 -0.2508 -1.1844
  159SAPE  H16X17829   5.656  -0.439   8.371  0.2289 -0.0476  2.1963
  159SAPE  H16Y17830   5.697  -0.260   8.370  0.7194 -0.0383 -0.0964
  159SAPE  C31717831   5.825  -0.367   8.483  0.1843  0.2549 -0.2981
  159SAPE  H17X17832   5.898  -0.283   8.482  0.2926  0.2633  2.9267
  159SAPE  H17Y17833   5.893  -0.455   8.472 -1.6954 -1.4593  1.2624
  159SAPE  C31817834   5.751  -0.397   8.615 -1.0615  0.2614 -0.6927
  159SAPE  H18X17835   5.824  -0.396   8.699  1.0849  2.7700 -2.4948
  159SAPE  H18Y17836   5.717  -0.502   8.623 -0.8220  0.2169 -0.2040
  159SAPE  H18Z17837   5.664  -0.329   8.621  0.3528  2.2755 -2.3461
  160SAPE     N17838   0.060   5.728   6.456 -0.4062  0.3435 -0.4924
  160SAPE   HN117839  -0.041   5.710   6.438 -0.5249 -1.0388  1.3714
  160SAPE   HN217840   0.060   5.787   6.541 -0.7792  0.2087 -0.3990
  160SAPE   HN317841   0.105   5.783   6.380 -0.0290  2.8366  1.4732
  160SAPE   C1217842   0.139   5.598   6.487  0.0762 -0.1163 -0.0558
  160SAPE  H12A17843   0.214   5.638   6.559  2.1441  0.9181 -2.7176
  160SAPE  H12B17844   0.193   5.554   6.401  1.0971 -2.7584  1.8636
  160SAPE   C1117845   0.056   5.489   6.565 -0.3603 -0.3502 -0.0895
  160SAPE  H11A17846  -0.006   5.546   6.638 -0.8644 -0.3269 -0.5315
  160SAPE  H11B17847   0.120   5.414   6.616 -2.3384 -1.2455  1.1758
  160SAPE     P17848  -0.174   5.460   6.449  0.0140  0.0886 -0.3441
  160SAPE   O1317849  -0.168   5.601   6.409  0.1791 -0.0497 -0.0848
  160SAPE   O1417850  -0.228   5.359   6.356  0.8811 -0.2897 -0.5984
  160SAPE   O1217851  -0.025   5.421   6.467 -0.8431 -0.4916 -0.3650
  160SAPE   O1117852  -0.226   5.442   6.597 -0.2148 -0.4802  0.0943
  160SAPE    C117853  -0.246   5.311   6.651 -0.0905 -0.5026 -0.6469
  160SAPE    HA17854  -0.345   5.275   6.619 -0.3394  0.5230 -1.0576
  160SAPE    HB17855  -0.162   5.244   6.623 -0.0084 -0.4928 -0.4265
  160SAPE    C217856  -0.247   5.321   6.814  0.3098 -0.1511  0.2319
  160SAPE    HS17857  -0.268   5.219   6.853  1.8030 -1.2174 -1.7049
  160SAPE   O2117858  -0.348   5.420   6.862  0.5055  0.1319  0.4333
  160SAPE   C2117859  -0.406   5.376   6.976 -0.2779 -0.0482 -0.0442
  160SAPE   O2217860  -0.372   5.290   7.050 -0.0547 -0.3539 -0.0401
  160SAPE   C2217861  -0.545   5.444   6.996  0.6200 -0.1218 -0.2655
  160SAPE   H2R17862  -0.551   5.543   6.946 -1.5087  0.5716  1.3139
  160SAPE   H2S17863  -0.625   5.384   6.947  0.8382  1.7237 -2.9980
  160SAPE    C317864  -0.104   5.359   6.867 -0.1552  0.2603  0.3934
  160SAPE    HX17865  -0.098   5.468   6.846 -1.0273 -0.0591 -1.6621
  160SAPE    HY17866  -0.026   5.318   6.799  0.6376  0.9136  0.8930
  160SAPE   O3117867  -0.080   5.343   7.008 -0.5997 -0.1052  0.2729
  160SAPE   C3117868  -0.052   5.222   7.053 -0.1499 -0.6018  0.2192
  160SAPE   O3217869  -0.032   5.119   6.983 -0.1266 -0.3692  0.7921
  160SAPE   C3217870  -0.054   5.217   7.205 -0.1822  0.6214  0.1591
  160SAPE   H2X17871  -0.087   5.318   7.236 -0.5824  1.3846 -2.6202
  160SAPE   H2Y17872   0.050   5.188   7.233 -1.0706  0.8488  3.9907
  160SAPE   C2317873  -0.575   5.461   7.146 -0.1003 -0.6882 -0.8608
  160SAPE   H3R17874  -0.567   5.363   7.196  0.6481 -1.0928 -1.7385
  160SAPE   H3S17875  -0.677   5.502   7.159  1.0036  2.0330 -0.2105
  160SAPE   C2417876  -0.484   5.564   7.215  0.1031  0.3973  0.3632
  160SAPE   H4R17877  -0.498   5.665   7.170 -1.0183 -0.2603 -0.8180
  160SAPE   H4S17878  -0.374   5.549   7.205 -0.1819 -3.2688  1.9262
  160SAPE   C2517879  -0.516   5.582   7.359 -0.7611 -0.5613  0.6474
  160SAPE   H5R17880  -0.575   5.666   7.397  0.1675  0.4900 -0.1857
  160SAPE   C2617881  -0.459   5.501   7.449  0.4098  0.0956  0.2278
  160SAPE   H6R17882  -0.485   5.517   7.555 -0.9328  0.7886 -0.2035
  160SAPE   C2717883  -0.364   5.386   7.422  0.0459  0.5700 -0.0052
  160SAPE   H7R17884  -0.260   5.425   7.433  1.1884 -2.0886 -1.1492
  160SAPE   H7S17885  -0.364   5.365   7.313  0.0467  0.6882 -0.0292
  160SAPE   C2817886  -0.401   5.264   7.507  0.1242 -0.3579  0.6333
  160SAPE   H8R17887  -0.464   5.192   7.453 -0.0179 -0.8804  1.4838
  160SAPE   C2917888  -0.366   5.247   7.637  0.8477  0.4393  0.2417
  160SAPE   H9R17889  -0.386   5.151   7.687 -1.7978  1.2915  0.8795
  160SAPE  C21017890  -0.285   5.346   7.725 -0.0657  0.0478 -0.2698
  160SAPE  H10R17891  -0.330   5.446   7.742  0.1443  0.5681 -2.5986
  160SAPE  H10S17892  -0.188   5.373   7.677 -0.9456  1.7899 -1.1458
  160SAPE  C21117893  -0.251   5.283   7.862  0.4438  0.3964 -0.6192
  160SAPE  H11R17894  -0.340   5.238   7.907  1.2657  0.8809  1.5131
  160SAPE  C21217895  -0.131   5.273   7.924 -0.3896  0.0957  0.0062
  160SAPE  H12R17896  -0.127   5.222   8.022 -0.5270 -0.2374 -0.1606
  160SAPE  C21317897   0.006   5.319   7.872  0.1082 -0.7123  0.9295
  160SAPE  H13R17898  -0.006   5.392   7.790  1.3107  0.3843  1.7073
  160SAPE  H13S17899   0.074   5.236   7.843  0.8044  0.1963 -0.0768
  160SAPE  C21417900   0.082   5.396   7.981  1.0382  0.1074  0.3511
  160SAPE  H14R17901   0.082   5.357   8.084 -0.8859  2.4290  1.2675
  160SAPE  C21517902   0.133   5.518   7.965 -0.3063 -0.5732  0.3104
  160SAPE  H15R17903   0.205   5.551   8.041  2.1208  0.9415 -2.5446
  160SAPE  C21617904   0.132   5.611   7.847 -0.2306 -0.1053 -0.3054
  160SAPE  H16R17905   0.143   5.714   7.886 -0.0704  0.1056 -0.9013
  160SAPE  H16S17906   0.040   5.606   7.785  0.4071 -2.1476 -1.1225
  160SAPE  C21717907   0.252   5.591   7.746 -0.0773 -0.1116  0.3134
  160SAPE  H17R17908   0.256   5.485   7.714  2.1591  0.3481 -1.0079
  160SAPE  H17S17909   0.341   5.618   7.808  0.2507  0.4711 -0.4078
  160SAPE  C21817910   0.241   5.676   7.615 -0.2379 -0.0812 -0.0982
  160SAPE  H18R17911   0.145   5.658   7.562  0.0217  1.6270 -1.1792
  160SAPE  H18S17912   0.315   5.624   7.550  1.5960  0.7510  1.2608
  160SAPE  C21917913   0.267   5.830   7.618  0.0364  0.0486  0.3291
  160SAPE  H19R17914   0.371   5.844   7.653 -0.2971  3.9928 -0.0682
  160SAPE  H19S17915   0.198   5.866   7.697 -0.0435 -1.6683  1.0804
  160SAPE  C22017916   0.245   5.888   7.476 -0.2713 -0.0175 -0.2720
  160SAPE  H20R17917   0.312   5.832   7.407  1.2775  1.1696  0.2566
  160SAPE  H20S17918   0.276   5.994   7.471 -0.1797 -0.0941 -1.5125
  160SAPE  H20T17919   0.142   5.890   7.436 -0.1083  0.4845 -0.6669
  160SAPE   C3317920  -0.137   5.100   7.262 -0.4037  0.3838  0.5027
  160SAPE   H3X17921  -0.139   5.022   7.182 -0.2472 -0.3543  1.2160
  160SAPE   H3Y17922  -0.240   5.139   7.279 -0.6955 -0.0330 -0.2583
  160SAPE   C3417923  -0.091   5.029   7.390 -0.5189  0.2193  0.4396
  160SAPE   H4X17924  -0.077   5.112   7.462  3.2568  0.3150 -0.2580
  160SAPE   H4Y17925   0.008   4.977   7.386 -0.0952  1.0583 -0.2991
  160SAPE   C3517926  -0.192   4.924   7.433  0.0275  0.0573 -0.0812
  160SAPE   H5X17927  -0.212   4.853   7.349  1.2451  1.7051 -1.8021
  160SAPE   H5Y17928  -0.295   4.964   7.439 -0.0756 -0.2663  0.3619
  160SAPE   C3617929  -0.152   4.842   7.555  0.2520 -0.7188 -0.0387
  160SAPE   H6X17930  -0.084   4.760   7.525  0.0392 -0.6473 -0.7233
  160SAPE   H6Y17931  -0.242   4.785   7.584  0.2791 -0.8246 -0.1618
  160SAPE   C3717932  -0.101   4.929   7.674  0.1195 -0.3177 -0.4658
  160SAPE   H7X17933  -0.180   4.996   7.715  2.8738  1.8649  1.5072
  160SAPE   H7Y17934  -0.018   4.997   7.645 -0.1544  0.7039  1.0535
  160SAPE   C3817935  -0.075   4.840   7.799  0.1410  0.3335  0.0522
  160SAPE   H8X17936   0.016   4.780   7.775 -1.3294 -1.1897 -1.8785
  160SAPE   H8Y17937  -0.162   4.773   7.812  0.6274  0.2374  3.0077
  160SAPE   C3917938  -0.045   4.918   7.938  1.0375 -0.5858  1.0916
  160SAPE   H9X17939  -0.136   4.978   7.956  0.2403 -1.9596  1.7105
  160SAPE   H9Y17940   0.043   4.986   7.926  2.3777 -2.2223  1.3896
  160SAPE  C31017941  -0.031   4.830   8.056  0.7324 -0.4623 -0.5283
  160SAPE  H10X17942   0.042   4.748   8.040 -0.3344 -1.3116 -1.0971
  160SAPE  H10Y17943  -0.119   4.768   8.083  0.4040  0.4628  0.5501
  160SAPE  C31117944   0.015   4.905   8.181 -0.4079 -0.0174 -0.0325
  160SAPE  H11X17945  -0.070   4.966   8.218  0.1506  0.4584  0.4670
  160SAPE  H11Y17946   0.108   4.965   8.171 -2.1534  2.9815  1.2599
  160SAPE  C31217947   0.046   4.802   8.292  0.0273 -0.0338 -0.1285
  160SAPE  H12X17948   0.118   4.726   8.254 -2.4286 -1.6456 -1.6394
  160SAPE  H12Y17949  -0.045   4.740   8.294 -0.1780  0.2157 -1.2764
  160SAPE  C31317950   0.083   4.843   8.439 -0.2555 -0.2780 -0.4315
  160SAPE  H13X17951   0.192   4.866   8.435 -0.3378  0.0521 -0.8017
  160SAPE  H13Y17952   0.068   4.756   8.508  0.0233  1.2378  1.5973
  160SAPE  C31417953   0.011   4.966   8.493 -0.0183  0.0069  0.4850
  160SAPE  H14X17954  -0.098   4.947   8.488 -0.1976  1.0163  0.4538
  160SAPE  H14Y17955   0.035   5.057   8.433  0.8145 -0.2913  0.3515
  160SAPE  C31517956   0.047   4.987   8.639 -1.0159 -0.0666 -0.6463
  160SAPE  H15X17957   0.158   4.985   8.637 -0.9710  1.7933 -3.1874
  160SAPE  H15Y17958   0.006   4.904   8.700  0.1806 -1.1774 -1.3129
  160SAPE  C31617959   0.017   5.131   8.693  0.2491  0.0098 -0.6728
  160SAPE  H16X17960  -0.090   5.152   8.670 -0.4821 -1.6474  1.0920
  160SAPE  H16Y17961   0.093   5.207   8.666 -1.5263  1.9196 -0.4582
  160SAPE  C31717962   0.056   5.135   8.842 -0.2645 -0.3323 -0.1258
  160SAPE  H17X17963   0.000   5.051   8.889  1.6185 -0.9967  0.9835
  160SAPE  H17Y17964   0.019   5.227   8.892 -0.5620 -0.6697  0.2901
  160SAPE  C31817965   0.204   5.108   8.871 -0.1496  0.1881  0.0983
  160SAPE  H18X17966   0.246   5.018   8.822  0.2873 -1.9172  4.1219
  160SAPE  H18Y17967   0.223   5.089   8.979  1.5306 -0.0232 -0.2148
  160SAPE  H18Z17968   0.264   5.196   8.839  0.6695 -0.2270  0.4876
  161SOPE     N17969   5.490   0.415  10.693  0.5920 -0.2922  0.3234
  161SOPE   HN117970   5.542   0.326  10.708  2.1521  0.3451 -1.1134
  161SOPE   HN217971   5.402   0.417  10.747 -0.8666 -0.2850 -1.9766
  161SOPE   HN317972   5.456   0.418  10.595  0.5484  1.9233  0.3960
  161SOPE   C1217973   5.572   0.539  10.714 -0.4820 -0.3333  0.4726
  161SOPE  H12A17974   5.673   0.515  10.674  0.2953  0.5450  1.8962
  161SOPE  H12B17975   5.585   0.563  10.821  0.8672  0.4469  0.1344
  161SOPE   C1117976   5.508   0.655  10.634  0.3885 -0.0241 -0.1162
  161SOPE  H11A17977   5.542   0.640  10.529  0.7935 -0.1794  0.0345
  161SOPE  H11B17978   5.553   0.752  10.662  0.5637 -0.7401  2.2064
  161SOPE     P17979   5.269   0.764  10.641  0.2231  0.3933 -0.1306
  161SOPE   O1317980   5.322   0.877  10.719 -0.3737  0.4385  0.0810
  161SOPE   O1417981   5.143   0.708  10.687  0.1697  0.3537 -0.4316
  161SOPE   O1217982   5.366   0.649  10.648 -0.1043  0.6092 -0.1866
  161SOPE   O1117983   5.243   0.800  10.490  0.6664  0.5416 -0.6783
  161SOPE    C117984   5.223   0.704  10.385  0.0073 -0.1644  0.4344
  161SOPE    HA17985   5.124   0.726  10.341 -0.2675 -1.8117  0.2064
  161SOPE    HB17986   5.209   0.608  10.438 -2.5853  0.4092  0.8727
  161SOPE    C217987   5.339   0.705  10.282 -0.1580  0.9358  0.4155
  161SOPE    HS17988   5.428   0.663  10.334 -2.0642 -1.7415  1.6428
  161SOPE   O2117989   5.359   0.836  10.229 -0.1897  0.1738 -0.0019
  161SOPE   C2117990   5.467   0.895  10.284  0.1333 -0.6480 -0.7491
  161SOPE   O2217991   5.542   0.852  10.372 -0.3677  0.0758 -0.0676
  161SOPE   C2217992   5.486   1.035  10.222  0.0061 -0.4081 -0.0604
  161SOPE   H2R17993   5.446   1.106  10.299 -0.7891  0.9238 -1.6593
  161SOPE   H2S17994   5.425   1.050  10.131  0.8514  2.4282 -0.2124
  161SOPE    C317995   5.303   0.611  10.162 -0.3070 -0.3119  0.4457
  161SOPE    HX17996   5.221   0.664  10.110  1.9506  2.3140 -0.5437
  161SOPE    HY17997   5.260   0.514  10.197  1.6919 -0.6120  2.1970
  161SOPE   O3117998   5.412   0.591  10.073  0.6895 -0.3926  0.2255
  161SOPE   C3117999   5.501   0.505  10.098 -0.0417  0.3661 -0.1323
  161SOPE   O3218000   5.501   0.422  10.192  0.3096 -0.3208 -0.5443
  161SOPE   C3218001   5.619   0.546  10.006  0.5351  0.3651  0.6576
  161SOPE   H2X18002   5.640   0.650  10.039  1.2754  0.4939 -0.1872
  161SOPE   H2Y18003   5.573   0.556   9.905  1.1278 -0.2303  0.3262
  161SOPE   C2318004   5.637   1.065  10.190 -0.3275  0.3035 -0.2518
  161SOPE   H3R18005   5.702   1.042  10.277  0.0897  1.1859 -0.3315
  161SOPE   H3S18006   5.647   1.172  10.163 -1.6014  0.0492 -1.8440
  161SOPE   C2418007   5.694   0.996  10.063  0.7224 -0.2140 -0.5853
  161SOPE   H4R18008   5.660   0.890  10.073 -0.5497  0.4946  3.5662
  161SOPE   H4S18009   5.654   1.038   9.969 -0.8700  1.4603  0.8292
  161SOPE   C2518010   5.849   1.009  10.062  1.1176 -0.6715  0.2764
  161SOPE   H5R18011   5.884   1.112  10.086  1.5285 -1.1931  1.9907
  161SOPE   H5S18012   5.889   0.951  10.147  0.5565 -0.1143  0.9325
  161SOPE   C2618013   5.909   0.982   9.930 -0.4144  0.0121  0.5691
  161SOPE   H6R18014   5.859   1.043   9.852  0.0853  0.4666  0.5975
  161SOPE   H6S18015   6.019   0.998   9.932 -0.3244  0.2851 -3.4994
  161SOPE   C2718016   5.908   0.836   9.883 -0.4627  0.4124 -0.5159
  161SOPE   H7R18017   5.953   0.778   9.966 -1.0736 -0.6498 -0.9218
  161SOPE   H7S18018   5.806   0.799   9.862 -1.5495  2.8917  0.1836
  161SOPE   C2818019   5.989   0.813   9.761  0.2936 -0.5183  0.8471
  161SOPE   H8R18020   6.097   0.817   9.786  0.3058 -0.4000  0.7817
  161SOPE   H8S18021   5.976   0.707   9.729  0.2792  0.9426 -4.4420
  161SOPE   C2918022   5.951   0.903   9.641 -0.3712  0.2555  0.2556
  161SOPE   H9118023   5.851   0.949   9.639 -0.0385  0.9788 -0.0444
  161SOPE  C21018024   6.044   0.947   9.548 -0.2422  0.3036  0.6873
  161SOPE  H10118025   6.000   1.020   9.479 -0.8143  0.2119  0.9468
  161SOPE  C21118026   6.188   0.911   9.529  0.1279 -0.6236  0.0411
  161SOPE  H11R18027   6.224   0.846   9.612  0.4878  0.4873  0.7662
  161SOPE  H11S18028   6.250   1.003   9.542 -1.3072  0.0478  2.6124
  161SOPE  C21218029   6.233   0.834   9.402  0.1150 -0.1305  0.1535
  161SOPE  H12R18030   6.174   0.741   9.387  0.4559 -0.2061 -0.7538
  161SOPE  H12S18031   6.335   0.791   9.410  0.5797  1.4227  3.5544
  161SOPE  C21318032   6.232   0.920   9.268 -0.2975  0.7305 -0.2414
  161SOPE  H13R18033   6.331   0.970   9.267 -1.0012  2.1694 -3.2514
  161SOPE  H13S18034   6.147   0.991   9.265 -0.6130  0.2712 -3.5344
  161SOPE  C21418035   6.224   0.829   9.142 -0.0984 -1.1796  0.0572
  161SOPE  H14R18036   6.295   0.748   9.169  0.3905 -0.3111  1.4185
  161SOPE  H14S18037   6.273   0.878   9.055  0.5297 -1.2237  0.3800
  161SOPE  C21518038   6.081   0.762   9.120 -0.0754  0.0909 -0.0430
  161SOPE  H15R18039   6.002   0.840   9.113 -0.5282 -0.4391 -0.8863
  161SOPE  H15S18040   6.051   0.710   9.214 -1.7111 -0.4312 -0.8368
  161SOPE  C21618041   6.058   0.665   8.999 -0.5639  0.2618 -0.5798
  161SOPE  H16R18042   5.954   0.626   8.996 -0.4814  0.1163 -1.8698
  161SOPE  H16S18043   6.130   0.580   9.004  1.2772  1.8981  1.4955
  161SOPE  C21718044   6.056   0.743   8.867  1.1292 -0.1554  0.5610
  161SOPE  H17R18045   6.157   0.790   8.875  2.3662 -2.3298 -1.4896
  161SOPE  H17S18046   5.973   0.816   8.861  0.9919 -0.4826 -2.8345
  161SOPE  C21818047   6.051   0.649   8.746 -0.8115  0.6876  0.1406
  161SOPE  H18R18048   6.096   0.549   8.766 -1.4634  0.6644  1.5196
  161SOPE  H18S18049   6.103   0.687   8.656  1.0471 -2.3324 -0.1423
  161SOPE  H18T18050   5.948   0.634   8.709  0.1563 -0.5264 -2.1530
  161SOPE   C3318051   5.739   0.456  10.007  0.0332 -0.3726 -0.4202
  161SOPE   H3X18052   5.706   0.350  10.011 -1.0464 -0.0155  0.3168
  161SOPE   H3Y18053   5.794   0.481  10.100  0.4041  1.2867 -1.0673
  161SOPE   C3418054   5.833   0.485   9.894 -0.4047 -0.3552  0.4047
  161SOPE   H4X18055   5.935   0.464   9.932  0.4346  0.8953 -1.1205
  161SOPE   H4Y18056   5.821   0.591   9.864  0.9080 -0.7241 -1.5161
  161SOPE   C3518057   5.801   0.396   9.776  0.5176  0.4289 -0.4845
  161SOPE   H5X18058   5.696   0.425   9.752  0.5505  0.8747 -0.0888
  161SOPE   H5Y18059   5.798   0.287   9.801 -1.6322  1.0275  2.0474
  161SOPE   C3618060   5.897   0.426   9.659  0.8042  0.2037  0.2794
  161SOPE   H6X18061   5.998   0.390   9.688  1.1645  0.1018 -1.1064
  161SOPE   H6Y18062   5.896   0.537   9.653 -0.3196  0.1426 -0.7998
  161SOPE   C3718063   5.846   0.362   9.534  0.1900  0.5704  0.6437
  161SOPE   H7X18064   5.754   0.412   9.498 -0.2826 -0.3814  0.5080
  161SOPE   H7Y18065   5.839   0.254   9.561  0.2708  0.2141 -0.7348
  161SOPE   C3818066   5.943   0.363   9.409  0.1549  0.2417 -0.4021
  161SOPE   H8X18067   6.026   0.293   9.435 -0.5253 -0.0925  0.9041
  161SOPE   H8Y18068   5.979   0.467   9.394  3.5493 -0.6394  1.0588
  161SOPE   C3918069   5.874   0.314   9.282  0.9899  0.3493 -0.0512
  161SOPE   H9X18070   5.780   0.373   9.274 -0.8044 -2.5056 -0.6685
  161SOPE   H9Y18071   5.832   0.212   9.297  1.8514  0.2276  1.6825
  161SOPE  C31018072   5.956   0.320   9.150 -0.0130 -0.1216 -0.1898
  161SOPE  H10X18073   6.064   0.293   9.156 -0.1949 -0.9436 -0.4797
  161SOPE  H10Y18074   5.955   0.423   9.109  0.0962 -0.6495 -1.5547
  161SOPE  C31118075   5.897   0.234   9.036  0.2573 -0.4966  0.7413
  161SOPE  H11X18076   5.790   0.259   9.023  0.2061 -1.0685  0.0576
  161SOPE  H11Y18077   5.900   0.126   9.061  2.4314 -0.8632 -0.9589
  161SOPE  C31218078   5.961   0.268   8.896  0.0586 -0.3683 -0.2667
  161SOPE  H12X18079   6.068   0.239   8.903  0.9026  2.3211 -1.2907
  161SOPE  H12Y18080   5.956   0.378   8.882 -3.0961 -0.6885 -2.1475
  161SOPE  C31318081   5.902   0.181   8.794 -0.2047  0.0377 -0.0589
  161SOPE  H13X18082   5.794   0.193   8.770 -0.9224 -0.9566  2.5184
  161SOPE  H13Y18083   5.905   0.082   8.844  2.7513  1.7987  3.4539
  161SOPE  C31418084   5.981   0.196   8.661 -0.1377  0.0524 -0.2186
  161SOPE  H14X18085   5.966   0.108   8.595 -1.2931 -0.3671  0.5812
  161SOPE  H14Y18086   6.088   0.196   8.691 -0.6103 -1.1193  1.6098
  161SOPE  C31518087   5.941   0.321   8.578  0.5081 -0.2236  0.6766
  161SOPE  H15X18088   5.926   0.406   8.648 -0.3048  1.7759 -1.8533
  161SOPE  H15Y18089   5.842   0.306   8.528 -0.3583 -0.4850  2.4160
  161SOPE  C31618090   6.048   0.349   8.476  0.6090  0.3688 -0.0023
  161SOPE  H16X18091   6.056   0.257   8.414 -2.6246 -0.5108  0.8045
  161SOPE  H16Y18092   6.137   0.369   8.539 -0.4951  0.4430  1.5485
  161SOPE  C31718093   6.039   0.475   8.388  0.0422  0.7390 -0.5029
  161SOPE  H17X18094   6.048   0.561   8.458  1.3166 -0.6044  1.0160
  161SOPE  H17Y18095   5.936   0.460   8.349  0.6144  0.5282 -1.9313
  161SOPE  C31818096   6.144   0.491   8.278  0.2871 -0.3239  0.1288
  161SOPE  H18X18097   6.248   0.496   8.317  0.4909 -3.1794  0.0239
  161SOPE  H18Y18098   6.124   0.586   8.224  0.2504  0.5991  1.7565
  161SOPE  H18Z18099   6.137   0.409   8.203 -0.0063  0.1480 -0.3674
  162SOPE     N18100   3.784   0.203  11.192 -0.0482  0.2688 -0.0298
  162SOPE   HN118101   3.775   0.205  11.296 -0.8409  1.7199 -0.1191
  162SOPE   HN218102   3.807   0.293  11.145 -1.8062  2.0430  2.3903
  162SOPE   HN318103   3.691   0.171  11.158  0.6865  0.0133 -1.8691
  162SOPE   C1218104   3.891   0.104  11.156  0.5470 -0.6395 -0.2527
  162SOPE  H12A18105   3.850   0.004  11.182 -1.5121 -0.2478 -1.8532
  162SOPE  H12B18106   3.977   0.128  11.222 -1.2181  0.5007  1.7205
  162SOPE   C1118107   3.916   0.125  11.005 -0.4315  0.3352  0.3340
  162SOPE  H11A18108   3.822   0.121  10.945 -0.7332  0.4103  0.8059
  162SOPE  H11B18109   3.978   0.040  10.969 -1.9527 -0.7263  0.1751
  162SOPE     P18110   4.125   0.270  10.937 -0.1964 -0.0036  0.0629
  162SOPE   O1318111   4.201   0.147  10.986  0.3646  0.3969 -0.1405
  162SOPE   O1418112   4.175   0.404  10.980 -0.6765  0.2203 -0.0789
  162SOPE   O1218113   3.978   0.254  10.991  0.2125 -0.3879 -0.6290
  162SOPE   O1118114   4.107   0.273  10.785 -0.2990  1.1343  0.1008
  162SOPE    C118115   4.069   0.157  10.710  0.2389 -0.1883  0.9576
  162SOPE    HA18116   3.964   0.129  10.737 -0.4959  1.6686  0.1555
  162SOPE    HB18117   4.138   0.075  10.739  1.4981 -0.5979 -2.9493
  162SOPE    C218118   4.076   0.170  10.551 -0.2739 -0.0206  0.0740
  162SOPE    HS18119   4.124   0.079  10.509 -1.1983 -0.1317 -0.7699
  162SOPE   O2118120   4.156   0.285  10.525 -0.6200 -0.4835 -0.0614
  162SOPE   C2118121   4.286   0.266  10.541  0.0780 -0.0249 -0.1775
  162SOPE   O2218122   4.340   0.157  10.549 -0.1175 -0.4421  0.1406
  162SOPE   C2218123   4.365   0.395  10.533  0.1462 -0.5070 -0.0769
  162SOPE   H2R18124   4.474   0.381  10.547  0.3895 -0.9088 -2.2384
  162SOPE   H2S18125   4.331   0.460  10.617  2.1113 -0.9861  1.1281
  162SOPE    C318126   3.943   0.186  10.482 -0.2389  0.4472 -0.4868
  162SOPE    HX18127   3.888   0.278  10.512 -0.4126  0.3719 -0.5763
  162SOPE    HY18128   3.878   0.099  10.505 -0.0190 -0.1469 -2.0708
  162SOPE   O3118129   3.952   0.203  10.342  0.4014  0.3367  0.8753
  162SOPE   C3118130   3.972   0.094  10.272 -0.8764  0.3643 -0.4533
  162SOPE   O3218131   4.002  -0.016  10.305  0.0783  0.5465  0.3802
  162SOPE   C3218132   3.951   0.134  10.121  0.0265 -0.5534  0.1623
  162SOPE   H2X18133   4.040   0.186  10.080 -2.2748  1.7651 -2.1114
  162SOPE   H2Y18134   3.871   0.209  10.109  0.2869 -0.3393 -0.2313
  162SOPE   C2318135   4.346   0.458  10.393  0.0330  0.3379  0.3303
  162SOPE   H3R18136   4.389   0.560  10.386  1.2152 -0.1862 -0.0744
  162SOPE   H3S18137   4.237   0.475  10.379  0.4150  1.2128 -1.7691
  162SOPE   C2418138   4.404   0.365  10.284  0.3224  0.0592 -0.0500
  162SOPE   H4R18139   4.387   0.261  10.319  1.2394 -0.4638 -1.0800
  162SOPE   H4S18140   4.344   0.386  10.193 -1.1692 -1.6546  0.5255
  162SOPE   C2518141   4.557   0.398  10.264 -0.3930 -0.0103 -0.0602
  162SOPE   H5R18142   4.596   0.422  10.365  0.8662 -0.4690 -0.4284
  162SOPE   H5S18143   4.617   0.308  10.238 -0.8032 -0.2436 -0.2100
  162SOPE   C2618144   4.593   0.512  10.170  0.2787  0.1076  0.4343
  162SOPE   H6R18145   4.523   0.596  10.187  1.0347  1.0466 -1.0210
  162SOPE   H6S18146   4.696   0.545  10.198 -0.0194  1.4025  0.0446
  162SOPE   C2718147   4.595   0.474  10.022  0.0480  0.2700  0.0581
  162SOPE   H7R18148   4.666   0.394   9.994  1.5862  1.1067  1.4277
  162SOPE   H7S18149   4.502   0.415  10.012  0.2040 -0.0051  0.2250
  162SOPE   C2818150   4.590   0.589   9.923 -0.2365 -0.1723 -0.3823
  162SOPE   H8R18151   4.588   0.563   9.815  0.4576  4.0931 -1.5116
  162SOPE   H8S18152   4.497   0.649   9.936  0.0053  0.4221 -1.3012
  162SOPE   C2918153   4.703   0.681   9.957 -0.8303 -0.7753 -0.2516
  162SOPE   H9118154   4.703   0.732  10.055  1.6126  0.3896 -0.8245
  162SOPE  C21018155   4.813   0.692   9.878  0.2773  0.3649 -0.2985
  162SOPE  H10118156   4.893   0.758   9.917  1.9182 -1.4056 -0.6141
  162SOPE  C21118157   4.848   0.619   9.754  0.6044 -0.0191  0.7226
  162SOPE  H11R18158   4.755   0.568   9.722  0.5281  0.4184  0.2288
  162SOPE  H11S18159   4.925   0.541   9.770  0.1557 -0.9742 -1.5748
  162SOPE  C21218160   4.882   0.713   9.633  0.4131  0.6225  0.1542
  162SOPE  H12R18161   4.796   0.777   9.605 -1.2628 -1.4827  0.3545
  162SOPE  H12S18162   4.889   0.648   9.543  0.2142 -0.4263  0.8867
  162SOPE  C21318163   5.014   0.788   9.651  0.4175  0.0135 -0.0370
  162SOPE  H13R18164   5.101   0.724   9.676 -1.0722 -2.2723 -0.5580
  162SOPE  H13S18165   4.995   0.853   9.739  1.1395 -1.6228  1.3525
  162SOPE  C21418166   5.048   0.886   9.539 -0.3377 -0.3581 -0.0905
  162SOPE  H14R18167   5.104   0.973   9.579  1.0951 -1.5255  0.4939
  162SOPE  H14S18168   4.953   0.886   9.480  0.1885  2.0439 -0.9924
  162SOPE  C21518169   5.156   0.828   9.446  0.1417 -0.2384 -0.6129
  162SOPE  H15R18170   5.160   0.717   9.442 -0.7912 -0.3584  1.2726
  162SOPE  H15S18171   5.253   0.864   9.487 -1.6405  0.8536  2.7586
  162SOPE  C21618172   5.122   0.879   9.313  0.5361 -0.5712  0.1210
  162SOPE  H16R18173   5.112   0.990   9.318  2.8583 -0.3475  0.5011
  162SOPE  H16S18174   5.028   0.832   9.278  0.2388  0.9794 -1.2115
  162SOPE  C21718175   5.216   0.844   9.195  0.5783 -0.2930 -0.1710
  162SOPE  H17R18176   5.230   0.734   9.198 -0.9401 -0.4863  0.3636
  162SOPE  H17S18177   5.316   0.890   9.208  0.1335  0.5473  0.3105
  162SOPE  C21818178   5.172   0.875   9.049  1.0051  0.0540  0.0913
  162SOPE  H18R18179   5.074   0.830   9.022 -0.2469  1.8572  1.4945
  162SOPE  H18S18180   5.243   0.827   8.979  0.0522  0.9893 -1.5420
  162SOPE  H18T18181   5.168   0.984   9.029  1.6813  0.0264 -0.2079
  162SOPE   C3318182   3.913   0.022  10.018  0.6622  0.7799  0.4199
  162SOPE   H3X18183   3.831  -0.039  10.060 -0.6902  0.2964 -2.8076
  162SOPE   H3Y18184   4.003  -0.043  10.012 -1.1043 -1.7883  1.1562
  162SOPE   C3418185   3.865   0.063   9.874 -0.0406  0.6777 -0.6877
  162SOPE   H4X18186   3.940   0.135   9.835 -2.0640  1.7650 -2.7285
  162SOPE   H4Y18187   3.767   0.116   9.875  0.2912  1.2981  1.2681
  162SOPE   C3518188   3.856  -0.050   9.767  0.0908 -0.0178  0.3124
  162SOPE   H5X18189   3.774  -0.113   9.807 -0.0641 -0.2770 -0.4104
  162SOPE   H5Y18190   3.951  -0.107   9.758  1.0727  1.5015  0.7678
  162SOPE   C3618191   3.826  -0.008   9.622 -0.2341  0.2350  0.2816
  162SOPE   H6X18192   3.913   0.051   9.584  0.8002 -0.4650  1.5196
  162SOPE   H6Y18193   3.730   0.047   9.612 -0.5716 -0.3948 -0.0076
  162SOPE   C3718194   3.821  -0.137   9.536 -0.3781 -0.4705 -0.5826
  162SOPE   H7X18195   3.722  -0.186   9.550 -1.6483  1.3624 -2.7632
  162SOPE   H7Y18196   3.908  -0.202   9.559  0.0022  0.7446  1.5053
  162SOPE   C3818197   3.821  -0.096   9.383  0.4019  0.1446 -0.2664
  162SOPE   H8X18198   3.907  -0.030   9.362  1.0367 -1.0744 -1.6804
  162SOPE   H8Y18199   3.730  -0.036   9.360 -1.1459 -2.1853 -0.4550
  162SOPE   C3918200   3.833  -0.226   9.302  0.4031 -0.2609 -0.2165
  162SOPE   H9X18201   3.753  -0.299   9.326  0.0492 -0.2071 -1.2177
  162SOPE   H9Y18202   3.932  -0.272   9.325  0.6262  0.4640  0.2994
  162SOPE  C31018203   3.815  -0.205   9.152 -0.0994 -0.0340 -0.6334
  162SOPE  H10X18204   3.884  -0.119   9.135  1.7698 -1.6437 -1.2606
  162SOPE  H10Y18205   3.712  -0.173   9.126 -0.1787 -0.3886 -0.7483
  162SOPE  C31118206   3.869  -0.323   9.072 -0.1570  0.1960 -0.1770
  162SOPE  H11X18207   3.794  -0.405   9.085 -2.0135  1.7793 -0.5920
  162SOPE  H11Y18208   3.965  -0.361   9.113 -0.6129 -0.7420  0.0258
  162SOPE  C31218209   3.878  -0.289   8.926 -0.2385  0.1295 -0.4815
  162SOPE  H12X18210   3.948  -0.207   8.898 -1.4911  0.2826 -3.3544
  162SOPE  H12Y18211   3.780  -0.254   8.888 -0.3500 -1.1042 -1.3488
  162SOPE  C31318212   3.893  -0.416   8.832  0.5035 -0.2148  0.1790
  162SOPE  H13X18213   3.821  -0.485   8.881 -1.0021  2.1118  1.3701
  162SOPE  H13Y18214   3.996  -0.455   8.842  0.9800  0.6746 -1.1057
  162SOPE  C31418215   3.852  -0.397   8.691  0.3497  0.1325 -0.0706
  162SOPE  H14X18216   3.748  -0.358   8.686  1.2690  2.7575  0.1943
  162SOPE  H14Y18217   3.851  -0.494   8.638  0.7141 -0.1904  0.5010
  162SOPE  C31518218   3.934  -0.297   8.599 -0.4764  0.3416 -0.1224
  162SOPE  H15X18219   4.029  -0.351   8.579 -0.4429 -1.0153  3.2698
  162SOPE  H15Y18220   3.960  -0.205   8.657 -1.8005  1.8484 -1.8699
  162SOPE  C31618221   3.848  -0.262   8.475 -0.1677  0.1343 -0.0435
  162SOPE  H16X18222   3.758  -0.218   8.523  0.0802 -0.9289  1.4659
  162SOPE  H16Y18223   3.821  -0.349   8.411  0.3389  0.5434 -0.8074
  162SOPE  C31718224   3.908  -0.160   8.382  0.1632  0.6325 -0.5875
  162SOPE  H17X18225   3.979  -0.225   8.326 -2.5170 -1.8046 -1.3112
  162SOPE  H17Y18226   3.963  -0.083   8.441 -0.4219  1.5131 -1.1714
  162SOPE  C31818227   3.810  -0.101   8.276 -0.5297  0.0381  0.1934
  162SOPE  H18X18228   3.746  -0.017   8.312 -1.2657 -0.2838 -0.3454
  162SOPE  H18Y18229   3.741  -0.187   8.262 -1.0270  0.1598  1.7973
  162SOPE  H18Z18230   3.864  -0.066   8.185  1.3660  1.3258  1.7789
  163SOPE     N18231   4.856   4.470  10.602 -0.3851  0.0079  0.4152
  163SOPE   HN118232   4.799   4.550  10.567  0.8192  1.3225  1.3804
  163SOPE   HN218233   4.952   4.509  10.613 -1.5293  2.5203  1.7983
  163SOPE   HN318234   4.850   4.388  10.539  0.1976  0.5654 -0.3745
  163SOPE   C1218235   4.805   4.435  10.740  0.2160  0.6438 -0.5099
  163SOPE  H12A18236   4.696   4.413  10.731  0.4058 -0.5280 -0.0019
  163SOPE  H12B18237   4.803   4.522  10.810  1.3184  1.7945 -1.8921
  163SOPE   C1118238   4.885   4.322  10.799  0.5749  0.1943 -0.2079
  163SOPE  H11A18239   4.881   4.228  10.740  1.9292 -0.6790  1.0745
  163SOPE  H11B18240   4.834   4.282  10.889 -0.7850  0.2485 -0.9365
  163SOPE     P18241   5.151   4.335  10.771 -0.3567  0.0463  0.0179
  163SOPE   O1318242   5.179   4.191  10.793 -0.0707 -0.6446  1.1393
  163SOPE   O1418243   5.258   4.419  10.833 -0.2469  0.3414 -0.4841
  163SOPE   O1218244   5.013   4.365  10.843  0.0363  0.0441 -0.1992
  163SOPE   O1118245   5.112   4.359  10.624 -0.0082 -0.3674  0.5464
  163SOPE    C118246   5.186   4.318  10.510 -0.1562 -0.5391  0.9318
  163SOPE    HA18247   5.109   4.281  10.438 -0.3209  1.5222  0.0140
  163SOPE    HB18248   5.240   4.223  10.532 -0.0422 -1.0491 -1.3789
  163SOPE    C218249   5.249   4.434  10.435 -0.0560 -0.2434 -0.1503
  163SOPE    HS18250   5.313   4.495  10.503 -0.7697  0.4069 -0.0512
  163SOPE   O2118251   5.138   4.513  10.400  0.0773  0.0563  0.1193
  163SOPE   C2118252   5.156   4.649  10.382  0.1241 -0.1616  0.4644
  163SOPE   O2218253   5.268   4.696  10.379  0.5458  0.1279 -0.3227
  163SOPE   C2218254   5.028   4.722  10.345  0.3595  0.3665 -0.0549
  163SOPE   H2R18255   5.059   4.818  10.298  2.9479 -1.3378 -2.0020
  163SOPE   H2S18256   4.966   4.740  10.436  0.0955  0.0199 -0.1628
  163SOPE    C318257   5.336   4.389  10.313 -0.3163  0.6808  0.1180
  163SOPE    HX18258   5.425   4.337  10.355 -0.0522 -0.8152 -2.2252
  163SOPE    HY18259   5.387   4.478  10.270 -0.0686  1.7268  2.4538
  163SOPE   O3118260   5.268   4.316  10.209 -0.0602  0.0059 -0.0003
  163SOPE   C3118261   5.279   4.376  10.086  0.0928  0.3141 -0.2417
  163SOPE   O3218262   5.334   4.479  10.059 -0.4680 -0.2765  0.2729
  163SOPE   C3218263   5.213   4.278   9.987 -0.2318  0.0547 -0.2432
  163SOPE   H2X18264   5.110   4.313  10.007 -0.2139 -0.1331  0.1900
  163SOPE   H2Y18265   5.234   4.173  10.019 -0.1780  0.0420 -0.3193
  163SOPE   C2318266   4.953   4.640  10.230  0.2704  0.8914 -0.3257
  163SOPE   H3R18267   4.915   4.543  10.270  3.1960 -0.0336  0.3684
  163SOPE   H3S18268   5.026   4.610  10.152 -0.2346 -0.2990 -0.3570
  163SOPE   C2418269   4.835   4.705  10.167  0.5231  0.0147  0.5217
  163SOPE   H4R18270   4.792   4.638  10.089  0.7607 -0.8264  1.1068
  163SOPE   H4S18271   4.760   4.713  10.248 -0.7454 -1.2539 -0.5027
  163SOPE   C2518272   4.863   4.837  10.102  1.1843 -0.0253 -0.5711
  163SOPE   H5R18273   4.768   4.885  10.068  0.8761  1.3725  2.0524
  163SOPE   H5S18274   4.911   4.893  10.186  2.3274 -0.7048 -0.7692
  163SOPE   C2618275   4.958   4.831   9.980  0.5080  0.3739 -0.4505
  163SOPE   H6R18276   4.960   4.932   9.935  1.2431 -0.0621 -1.4098
  163SOPE   H6S18277   5.058   4.811  10.025  0.6398  0.1092 -0.8653
  163SOPE   C2718278   4.923   4.727   9.864  0.0513 -0.2231 -0.0131
  163SOPE   H7R18279   5.012   4.712   9.798 -1.0297 -1.3858 -1.2371
  163SOPE   H7S18280   4.897   4.626   9.901 -0.4578 -0.4127 -0.8698
  163SOPE   C2818281   4.790   4.764   9.792 -0.1151  0.2355  0.0497
  163SOPE   H8R18282   4.762   4.707   9.700  0.0781  0.7844 -0.3566
  163SOPE   H8S18283   4.708   4.737   9.862 -0.9600  0.8413 -0.6781
  163SOPE   C2918284   4.781   4.910   9.758  0.3062 -0.5172  0.2096
  163SOPE   H9118285   4.757   4.976   9.843  0.9434  1.4526 -1.1051
  163SOPE  C21018286   4.825   4.956   9.643 -0.1891 -0.2503  0.1108
  163SOPE  H10118287   4.811   5.063   9.621 -0.0879 -0.1736  0.4213
  163SOPE  C21118288   4.872   4.876   9.524 -0.1853 -0.3658 -0.9881
  163SOPE  H11R18289   4.827   4.775   9.524  1.2407 -1.0187 -2.5543
  163SOPE  H11S18290   4.983   4.873   9.527 -0.1148  1.9316  0.0664
  163SOPE  C21218291   4.825   4.929   9.395 -0.6472 -0.0230  0.2920
  163SOPE  H12R18292   4.868   5.027   9.365  0.3224 -0.3376  0.6359
  163SOPE  H12S18293   4.719   4.963   9.396 -0.5264  0.4623 -1.2029
  163SOPE  C21318294   4.856   4.832   9.276 -0.7644  0.1171 -0.4512
  163SOPE  H13R18295   4.789   4.744   9.285  1.3271 -1.5097 -0.2697
  163SOPE  H13S18296   4.955   4.786   9.299  0.1318  1.7958 -0.8350
  163SOPE  C21418297   4.853   4.897   9.142  0.4855 -0.0087  0.2153
  163SOPE  H14R18298   4.921   4.983   9.158  0.8032  0.1676 -1.9833
  163SOPE  H14S18299   4.758   4.956   9.142  0.3482 -0.1858  2.4924
  163SOPE  C21518300   4.887   4.811   9.026  0.1998  0.1612  0.5990
  163SOPE  H15R18301   4.804   4.738   9.019  0.7407 -0.6435  2.1713
  163SOPE  H15S18302   4.976   4.746   9.045  0.8348  1.3103  1.6579
  163SOPE  C21618303   4.908   4.901   8.902  0.7024  0.3974 -0.0690
  163SOPE  H16R18304   4.986   4.978   8.916  1.5842 -0.9371  2.7257
  163SOPE  H16S18305   4.804   4.936   8.883  0.6190 -0.0834 -0.5268
  163SOPE  C21718306   4.943   4.814   8.777  0.0423 -0.5544  0.7178
  163SOPE  H17R18307   4.873   4.728   8.777  2.0992 -2.2710  0.4879
  163SOPE  H17S18308   5.045   4.774   8.796  0.0749 -0.1359  1.4657
  163SOPE  C21818309   4.926   4.872   8.642 -0.3962 -0.9240  0.5251
  163SOPE  H18R18310   4.946   4.797   8.563 -1.4554  0.5453 -1.1695
  163SOPE  H18S18311   4.992   4.961   8.634  0.6741 -1.6394  1.2651
  163SOPE  H18T18312   4.823   4.914   8.640  0.4894  1.2844 -0.5235
  163SOPE   C3318313   5.256   4.305   9.839 -0.3539  0.4526  0.8794
  163SOPE   H3X18314   5.365   4.322   9.826 -0.1836 -1.2762 -0.2025
  163SOPE   H3Y18315   5.203   4.400   9.815 -0.3916 -0.5409 -3.4243
  163SOPE   C3418316   5.240   4.185   9.746  0.0445 -0.3015  0.4132
  163SOPE   H4X18317   5.133   4.157   9.737 -0.0869  0.9469 -2.5245
  163SOPE   H4Y18318   5.301   4.099   9.783  0.3925  0.0224  0.6008
  163SOPE   C3518319   5.293   4.214   9.608  0.4024  0.3497  0.9937
  163SOPE   H5X18320   5.398   4.249   9.617  0.0183  1.9254 -0.3787
  163SOPE   H5Y18321   5.241   4.298   9.557  3.0036  2.5715  1.8698
  163SOPE   C3618322   5.286   4.087   9.516  0.6876 -0.8507  0.5908
  163SOPE   H6X18323   5.181   4.056   9.497  1.2069 -1.9234 -0.5465
  163SOPE   H6Y18324   5.342   3.995   9.542  0.6046 -1.0475  0.0602
  163SOPE   C3718325   5.352   4.119   9.385  0.4482  0.0012 -0.1005
  163SOPE   H7X18326   5.363   4.030   9.319  4.1790  0.5331 -0.3027
  163SOPE   H7Y18327   5.457   4.149   9.404  0.0437  1.2961  0.1283
  163SOPE   C3818328   5.291   4.228   9.295 -0.0572  0.2468 -0.6078
  163SOPE   H8X18329   5.366   4.249   9.216  1.4470 -0.4619  0.5945
  163SOPE   H8Y18330   5.276   4.325   9.348 -0.7883 -0.5310  0.6425
  163SOPE   C3918331   5.166   4.171   9.222  0.2509  0.2853 -0.2317
  163SOPE   H9X18332   5.087   4.159   9.298  0.5804 -2.2134 -0.2330
  163SOPE   H9Y18333   5.185   4.070   9.178  1.8681  1.9326 -3.4988
  163SOPE  C31018334   5.102   4.256   9.114  0.0792  0.3496 -0.0133
  163SOPE  H10X18335   5.168   4.267   9.026 -1.5838 -1.0963 -1.4782
  163SOPE  H10Y18336   5.078   4.359   9.151  2.9836  0.9184  0.4266
  163SOPE  C31118337   4.963   4.193   9.078  0.7127 -0.1242 -0.1620
  163SOPE  H11X18338   4.899   4.188   9.169  0.7308  0.5883 -0.1106
  163SOPE  H11Y18339   4.973   4.093   9.030 -0.1101  0.0853 -0.7679
  163SOPE  C31218340   4.881   4.281   8.981 -0.2648  0.4315  0.2469
  163SOPE  H12X18341   4.882   4.383   9.025 -0.4736  0.4991  0.0925
  163SOPE  H12Y18342   4.773   4.256   8.985 -0.5383  1.0949 -2.3901
  163SOPE  C31318343   4.930   4.289   8.830  0.1276 -0.2113  0.0082
  163SOPE  H13X18344   4.919   4.197   8.769  0.9896 -0.4029  0.1309
  163SOPE  H13Y18345   5.041   4.289   8.834  0.1803  0.0076 -1.3899
  163SOPE  C31418346   4.879   4.400   8.757  0.9828 -0.2320  0.0965
  163SOPE  H14X18347   4.923   4.492   8.798  1.7100 -0.6258  0.1961
  163SOPE  H14Y18348   4.768   4.399   8.762  1.0144 -3.2304  1.4836
  163SOPE  C31518349   4.929   4.397   8.609 -0.1829  0.4340 -0.5510
  163SOPE  H15X18350   5.040   4.383   8.613 -0.1445  1.2621  1.9112
  163SOPE  H15Y18351   4.892   4.493   8.568  1.1104  0.5288 -1.5450
  163SOPE  C31618352   4.856   4.288   8.526  0.7311 -0.1773  0.3897
  163SOPE  H16X18353   4.748   4.314   8.524  1.1089  1.4390 -1.3772
  163SOPE  H16Y18354   4.853   4.184   8.565  0.1164 -0.5988 -0.7512
  163SOPE  C31718355   4.902   4.284   8.381  0.4264 -0.6453  0.5743
  163SOPE  H17X18356   4.824   4.217   8.338 -1.0647 -2.1646  5.3270
  163SOPE  H17Y18357   5.003   4.238   8.373  2.6628  3.6605  2.5003
  163SOPE  C31818358   4.902   4.419   8.308  0.0907  0.3725 -0.2378
  163SOPE  H18X18359   4.947   4.405   8.207 -0.4100 -0.2779 -0.3739
  163SOPE  H18Y18360   4.957   4.495   8.368  0.6965 -0.4735  0.2885
  163SOPE  H18Z18361   4.799   4.456   8.289 -1.5000 -2.2818  2.7921
  164SOPE     N18362   0.365   2.136  10.603  0.2741  0.2797 -0.0784
  164SOPE   HN118363   0.448   2.186  10.565  0.9936  0.9530  2.2926
  164SOPE   HN218364   0.386   2.034  10.598 -0.5243  0.1297 -0.3003
  164SOPE   HN318365   0.293   2.166  10.535  0.2700  1.6818  0.5212
  164SOPE   C1218366   0.339   2.193  10.742  0.1280  0.2606  0.1391
  164SOPE  H12A18367   0.391   2.129  10.817  0.7084 -0.7388 -1.0924
  164SOPE  H12B18368   0.230   2.187  10.761  0.1243  0.6253  0.2414
  164SOPE   C1118369   0.393   2.340  10.745 -0.0936  0.1777  0.7264
  164SOPE  H11A18370   0.400   2.355  10.855  0.6308  1.6222  0.4970
  164SOPE  H11B18371   0.318   2.414  10.709 -0.5058 -0.1022  1.0083
  164SOPE     P18372   0.621   2.449  10.733  0.1564 -0.0464  0.1327
  164SOPE   O1318373   0.747   2.416  10.665  0.2350  0.0577  0.0208
  164SOPE   O1418374   0.620   2.451  10.880  0.3943 -0.1539  0.4481
  164SOPE   O1218375   0.513   2.353  10.673 -0.2271 -0.0422  0.1425
  164SOPE   O1118376   0.564   2.588  10.677  0.3845 -0.0543  0.3432
  164SOPE    C118377   0.510   2.589  10.542  0.2784 -0.2024  1.2794
  164SOPE    HA18378   0.465   2.689  10.525  0.1329 -0.5153 -0.2116
  164SOPE    HB18379   0.425   2.518  10.533  0.8441 -0.7658  0.3703
  164SOPE    C218380   0.610   2.575  10.425 -0.1540  0.5508 -0.3320
  164SOPE    HS18381   0.651   2.473  10.434 -0.7572  0.1976 -1.4664
  164SOPE   O2118382   0.716   2.670  10.460  0.4318 -0.2920  0.2515
  164SOPE   C2118383   0.838   2.633  10.421  0.3498 -0.2939  0.5481
  164SOPE   O2218384   0.866   2.520  10.378 -0.2020 -0.1466  0.4613
  164SOPE   C2218385   0.942   2.744  10.430 -0.2967  0.2283  0.4051
  164SOPE   H2R18386   0.959   2.768  10.537 -2.6752 -1.9512  1.3023
  164SOPE   H2S18387   0.908   2.831  10.370  2.0869 -1.1167 -3.0430
  164SOPE    C318388   0.547   2.591  10.282 -0.5436 -0.1867 -0.4466
  164SOPE    HX18389   0.521   2.699  10.279  1.3819  0.3315  0.5839
  164SOPE    HY18390   0.454   2.534  10.264  0.6285 -1.9537 -1.0412
  164SOPE   O3118391   0.645   2.582  10.175  0.2627  0.2670  0.8688
  164SOPE   C3118392   0.684   2.461  10.146  0.3006  0.1430 -0.0162
  164SOPE   O3218393   0.650   2.357  10.203 -0.0871  0.0576  0.0194
  164SOPE   C3218394   0.791   2.467  10.037 -0.3369 -0.6197 -0.4129
  164SOPE   H2X18395   0.887   2.439  10.087  0.1956  0.3997 -0.8630
  164SOPE   H2Y18396   0.799   2.572  10.002  0.0865  0.5982  3.0612
  164SOPE   C2318397   1.086   2.716  10.379 -0.1720  0.4609 -0.1662
  164SOPE   H3R18398   1.115   2.626  10.438 -0.5796  0.5734  0.2045
  164SOPE   H3S18399   1.153   2.799  10.410  0.0232  0.3861 -0.3859
  164SOPE   C2418400   1.096   2.706  10.224 -0.3278  0.2540 -0.3724
  164SOPE   H4R18401   1.199   2.676  10.196 -0.3618  0.9116 -1.2248
  164SOPE   H4S18402   1.029   2.629  10.179 -0.3031 -0.6887  1.1730
  164SOPE   C2518403   1.068   2.839  10.152  0.5576 -0.4520  0.0435
  164SOPE   H5R18404   0.964   2.877  10.158  0.5825 -0.3852  0.0601
  164SOPE   H5S18405   1.128   2.919  10.201  0.5369 -0.7568  0.5678
  164SOPE   C2618406   1.108   2.827  10.000 -0.3933 -0.0071  0.0909
  164SOPE   H6R18407   1.213   2.795   9.984  0.2682  2.2671 -0.3094
  164SOPE   H6S18408   1.035   2.752   9.965  0.5069 -0.6640 -0.3904
  164SOPE   C2718409   1.088   2.955   9.912 -0.6518 -0.1174  0.8687
  164SOPE   H7R18410   0.978   2.975   9.911 -0.7199 -0.5128  0.3773
  164SOPE   H7S18411   1.133   3.043   9.961 -0.1952 -0.7752  1.6453
  164SOPE   C2818412   1.121   2.924   9.763  0.2825  0.3598  0.9454
  164SOPE   H8R18413   1.223   2.880   9.760  0.4977  0.9137 -2.4364
  164SOPE   H8S18414   1.052   2.840   9.742 -1.2609  1.2776  2.2399
  164SOPE   C2918415   1.103   3.031   9.657 -0.6393 -0.2758  0.1432
  164SOPE   H9118416   1.122   3.137   9.678  1.4177 -0.8615  1.4378
  164SOPE  C21018417   1.053   3.017   9.527 -0.1990 -0.0659 -0.5463
  164SOPE  H10118418   1.058   3.107   9.464  2.3604 -0.0457 -0.3749
  164SOPE  C21118419   1.004   2.887   9.470  0.7730 -0.4587 -0.5716
  164SOPE  H11R18420   0.900   2.905   9.435  0.0062 -0.0115  1.8167
  164SOPE  H11S18421   0.993   2.802   9.542  2.1249 -0.9391 -0.9193
  164SOPE  C21218422   1.092   2.841   9.350  0.1552  0.6775 -0.3258
  164SOPE  H12R18423   1.043   2.743   9.332 -0.1003  0.2831  2.3676
  164SOPE  H12S18424   1.197   2.817   9.374 -0.5849 -0.5336  1.8496
  164SOPE  C21318425   1.075   2.938   9.227  0.4476 -0.3378  0.4999
  164SOPE  H13R18426   1.135   3.031   9.241 -2.3335  1.2262  2.7001
  164SOPE  H13S18427   0.969   2.971   9.228  0.6416  0.7507 -4.0517
  164SOPE  C21418428   1.089   2.871   9.098  0.5093  0.6593  0.1207
  164SOPE  H14R18429   1.007   2.797   9.086  1.2634 -0.0977 -0.4013
  164SOPE  H14S18430   1.189   2.824   9.102  0.8901  1.4155 -0.3588
  164SOPE  C21518431   1.080   2.960   8.975 -0.0512  0.2102 -0.9845
  164SOPE  H15R18432   1.153   2.922   8.901  0.9631  2.7936 -1.3436
  164SOPE  H15S18433   1.131   3.056   8.997  0.0676 -0.0935  0.1378
  164SOPE  C21618434   0.941   2.980   8.904 -0.1149 -0.3445 -1.1780
  164SOPE  H16R18435   0.891   3.047   8.978  1.1785  0.0472 -0.6383
  164SOPE  H16S18436   0.879   2.888   8.903  0.8662 -1.0037 -2.1113
  164SOPE  C21718437   0.949   3.043   8.764  0.6699  0.5479  0.1009
  164SOPE  H17R18438   0.845   3.038   8.725  0.8862  2.3109 -0.7816
  164SOPE  H17S18439   1.021   2.982   8.706  1.5314  0.7316  0.9741
  164SOPE  C21818440   1.005   3.181   8.771 -0.4218 -0.4930  0.1849
  164SOPE  H18R18441   0.932   3.254   8.811 -3.7280 -2.8446 -1.2863
  164SOPE  H18S18442   1.037   3.210   8.668  0.4206  0.1002  0.6136
  164SOPE  H18T18443   1.095   3.195   8.834 -1.8119  1.4151  1.7892
  164SOPE   C3318444   0.756   2.364   9.925 -0.2815  0.2723 -0.1344
  164SOPE   H3X18445   0.646   2.350   9.922 -0.4415  0.3672  3.7062
  164SOPE   H3Y18446   0.794   2.263   9.952  0.8104  0.9175  0.7621
  164SOPE   C3418447   0.806   2.405   9.788 -0.8417  0.2985 -0.5488
  164SOPE   H4X18448   0.917   2.411   9.786 -0.8720  0.9576 -0.3710
  164SOPE   H4Y18449   0.778   2.512   9.775  0.6859  0.6177 -1.2640
  164SOPE   C3518450   0.764   2.302   9.681 -0.5078  0.4052 -0.7305
  164SOPE   H5X18451   0.653   2.293   9.688 -0.5568  1.5993  0.2747
  164SOPE   H5Y18452   0.800   2.199   9.701  2.3839  1.2219 -1.5767
  164SOPE   C3618453   0.783   2.331   9.538 -0.0698 -0.4666  0.4755
  164SOPE   H6X18454   0.744   2.244   9.482  1.4183 -1.1904  0.5457
  164SOPE   H6Y18455   0.892   2.346   9.523  0.0496 -0.6352  1.1570
  164SOPE   C3718456   0.731   2.472   9.491 -0.0787 -0.6472 -0.3913
  164SOPE   H7X18457   0.794   2.546   9.545 -0.1464  0.9866 -2.4994
  164SOPE   H7Y18458   0.625   2.480   9.526  1.0450  3.6111  2.3491
  164SOPE   C3818459   0.748   2.519   9.348  0.5420 -0.2067  0.4014
  164SOPE   H8X18460   0.858   2.521   9.332  0.5359  0.3472  0.4249
  164SOPE   H8Y18461   0.718   2.623   9.327 -2.2357 -1.1817 -0.6210
  164SOPE   C3918462   0.672   2.430   9.248  0.3887 -0.0236  0.6193
  164SOPE   H9X18463   0.572   2.403   9.286  0.2077  0.8970  0.7998
  164SOPE   H9Y18464   0.729   2.339   9.220  1.7170  0.4870  1.5915
  164SOPE  C31018465   0.655   2.489   9.110 -0.0943  0.3748  0.4068
  164SOPE  H10X18466   0.600   2.585   9.124 -0.8448 -0.0031  0.0772
  164SOPE  H10Y18467   0.600   2.422   9.041  3.5321 -2.1529 -0.1762
  164SOPE  C31118468   0.794   2.530   9.044  0.4089 -0.2705 -0.2981
  164SOPE  H11X18469   0.851   2.610   9.096 -0.9786  0.8599 -0.4860
  164SOPE  H11Y18470   0.769   2.573   8.944  0.4022  0.5635  0.0621
  164SOPE  C31218471   0.892   2.418   9.010  0.0572 -1.4253 -0.9238
  164SOPE  H12X18472   0.916   2.365   9.105 -1.6062  0.5666  0.6324
  164SOPE  H12Y18473   0.984   2.466   8.969 -1.7317  2.5156 -0.4879
  164SOPE  C31318474   0.831   2.324   8.906 -0.0119 -0.0294  0.2579
  164SOPE  H13X18475   0.781   2.393   8.835 -1.4161 -1.6486 -0.3589
  164SOPE  H13Y18476   0.743   2.268   8.944 -0.9252  1.9921  1.1661
  164SOPE  C31418477   0.932   2.238   8.827  0.1346 -0.1397 -0.1155
  164SOPE  H14X18478   1.008   2.198   8.899 -1.2834  1.1270  2.1167
  164SOPE  H14Y18479   0.996   2.300   8.761 -0.3860 -1.1638 -1.6156
  164SOPE  C31518480   0.864   2.126   8.744 -0.0680 -0.1200  0.0167
  164SOPE  H15X18481   0.792   2.168   8.670  0.7524 -1.1085 -1.3820
  164SOPE  H15Y18482   0.802   2.053   8.801 -1.6286  0.4661 -0.8976
  164SOPE  C31618483   0.966   2.043   8.669 -0.0493 -0.0427  0.3792
  164SOPE  H16X18484   0.928   1.940   8.657 -1.8237  0.6223  0.1486
  164SOPE  H16Y18485   1.049   2.032   8.742 -1.4651 -2.7757  1.6498
  164SOPE  C31718486   1.015   2.083   8.527  0.2462 -0.1515 -0.2667
  164SOPE  H17X18487   1.124   2.060   8.524  0.0029 -1.8067  2.3878
  164SOPE  H17Y18488   1.006   2.193   8.512  2.3098  0.1281  0.3284
  164SOPE  C31818489   0.943   2.018   8.410  0.6358  0.4343  0.1410
  164SOPE  H18X18490   0.983   2.042   8.309  2.3314 -1.8545  0.2275
  164SOPE  H18Y18491   0.834   2.039   8.409  0.2870 -1.3160  1.1670
  164SOPE  H18Z18492   0.955   1.909   8.426  1.5494  0.7688  1.7972
  165SOPE     N18493   6.225   3.489  10.948  0.3613  0.5370  0.2175
  165SOPE   HN118494   6.229   3.572  11.010  1.2575  0.9445 -0.3681
  165SOPE   HN218495   6.282   3.512  10.864 -0.4059  3.3096  0.4312
  165SOPE   HN318496   6.125   3.468  10.929 -0.1289  1.4155  1.7376
  165SOPE   C1218497   6.283   3.374  11.026 -0.3056 -0.0779  0.2602
  165SOPE  H12A18498   6.227   3.359  11.120 -4.4113 -2.1655 -2.3724
  165SOPE  H12B18499   6.393   3.394  11.029 -0.5480  1.1845  1.1464
  165SOPE   C1118500   6.283   3.241  10.952  0.1764  0.5534  0.3523
  165SOPE  H11A18501   6.337   3.168  11.016 -0.7977  0.8266  1.5054
  165SOPE  H11B18502   6.333   3.250  10.853  0.9124 -1.7617  0.4858
  165SOPE     P18503   6.135   3.046  10.866  0.1206 -0.6778 -0.3683
  165SOPE   O1318504   5.996   3.008  10.902 -0.1979 -0.2525  1.2070
  165SOPE   O1418505   6.233   2.957  10.923 -0.2283 -0.5493  0.0105
  165SOPE   O1218506   6.153   3.189  10.941  0.2069 -0.3820 -0.1719
  165SOPE   O1118507   6.156   3.078  10.719  0.3627 -0.1401 -0.2312
  165SOPE    C118508   6.081   3.182  10.656 -0.3221  0.4302  0.6727
  165SOPE    HA18509   6.104   3.286  10.686 -2.0634  1.6851 -2.1971
  165SOPE    HB18510   5.972   3.160  10.668  0.3451 -1.8129  3.2399
  165SOPE    C218511   6.107   3.186  10.501  0.2237  0.2850 -0.0206
  165SOPE    HS18512   6.056   3.281  10.475  1.5764  1.0886  0.1690
  165SOPE   O2118513   6.057   3.067  10.444 -0.6244  0.3769  0.0829
  165SOPE   C2118514   5.936   3.087  10.387 -0.5699  0.7361 -0.0215
  165SOPE   O2218515   5.866   3.185  10.400 -0.3743 -0.2159  0.0553
  165SOPE   C2218516   5.888   2.953  10.320 -1.1219 -0.1517  0.0373
  165SOPE   H2R18517   5.888   2.861  10.382 -0.6352  0.6529  1.2304
  165SOPE   H2S18518   5.961   2.943  10.237 -2.9937  1.1450 -1.8286
  165SOPE    C318519   6.254   3.208  10.471 -1.1342 -0.9502 -0.4357
  165SOPE    HX18520   6.304   3.122  10.520 -2.7412 -0.9895  1.2179
  165SOPE    HY18521   6.292   3.292  10.534 -0.6793 -0.6741 -1.0718
  165SOPE   O3118522   6.283   3.219  10.324  0.2977 -0.3175  0.2931
  165SOPE   C3118523   6.416   3.218  10.302 -0.1259  0.5987  0.2643
  165SOPE   O3218524   6.506   3.204  10.388  0.3509 -0.3773  0.1707
  165SOPE   C3218525   6.437   3.219  10.151  0.2491  0.4793  0.5206
  165SOPE   H2X18526   6.391   3.308  10.103 -0.1001  0.5449  0.9789
  165SOPE   H2Y18527   6.379   3.136  10.103  1.5808 -1.1750  1.6938
  165SOPE   C2318528   5.756   2.957  10.244 -0.1102  0.6289 -0.0409
  165SOPE   H3R18529   5.690   3.038  10.282  0.6844  0.5073  1.6121
  165SOPE   H3S18530   5.694   2.868  10.268  0.0528  0.5106 -0.0544
  165SOPE   C2418531   5.758   2.985  10.095  0.1396 -0.2586 -0.3893
  165SOPE   H4R18532   5.852   3.040  10.074  1.7354 -1.0173  4.1058
  165SOPE   H4S18533   5.765   2.895  10.031 -2.6120  0.0930 -1.2364
  165SOPE   C2518534   5.644   3.069  10.040  0.5697  0.1566 -0.2972
  165SOPE   H5R18535   5.548   3.014  10.057  0.4069 -0.0724 -1.9274
  165SOPE   H5S18536   5.639   3.160  10.104  0.5510  0.4771 -0.7560
  165SOPE   C2618537   5.681   3.097   9.897 -0.0472  0.5313 -0.2426
  165SOPE   H6R18538   5.790   3.101   9.877  0.1917 -0.8247  0.7267
  165SOPE   H6S18539   5.647   3.007   9.840  1.2881 -0.9056  1.1893
  165SOPE   C2718540   5.614   3.225   9.847 -0.4674 -0.1581  0.4969
  165SOPE   H7R18541   5.505   3.215   9.865 -0.5248  2.2226  1.6587
  165SOPE   H7S18542   5.647   3.313   9.907  0.9302  0.0433 -0.5499
  165SOPE   C2818543   5.641   3.260   9.704  0.1267  0.0656 -0.3448
  165SOPE   H8R18544   5.625   3.168   9.644 -0.8853  0.5559 -0.8376
  165SOPE   H8S18545   5.563   3.327   9.662 -1.2760 -1.1540  0.2552
  165SOPE   C2918546   5.778   3.321   9.683  0.2846  0.0297  0.6002
  165SOPE   H9118547   5.821   3.377   9.768  2.1799  0.7399 -0.7920
  165SOPE  C21018548   5.864   3.316   9.574  0.8236 -0.3652  0.2929
  165SOPE  H10118549   5.966   3.357   9.568  1.0325 -1.3688 -4.1385
  165SOPE  C21118550   5.839   3.246   9.443  0.6328 -0.0041 -0.9313
  165SOPE  H11R18551   5.729   3.232   9.434  0.4582 -0.7890  2.0714
  165SOPE  H11S18552   5.890   3.148   9.425 -0.5290 -0.5478 -1.3453
  165SOPE  C21218553   5.888   3.345   9.327 -0.3157  0.3869 -0.5945
  165SOPE  H12R18554   5.991   3.311   9.303  0.0458  0.4583  0.8524
  165SOPE  H12S18555   5.891   3.456   9.341 -0.5960  0.2832  0.2989
  165SOPE  C21318556   5.802   3.318   9.194 -0.0525  0.4981  0.6016
  165SOPE  H13R18557   5.843   3.383   9.114 -0.5625 -0.7088 -0.6714
  165SOPE  H13S18558   5.696   3.347   9.210 -0.4380 -1.2261  1.2882
  165SOPE  C21418559   5.803   3.169   9.153 -0.9109  0.6159 -0.4521
  165SOPE  H14R18560   5.771   3.111   9.242 -2.2284 -0.0262 -1.3263
  165SOPE  H14S18561   5.907   3.135   9.135 -0.0971  2.5221  0.4569
  165SOPE  C21518562   5.705   3.133   9.042  0.3339 -0.0213 -0.3903
  165SOPE  H15R18563   5.703   3.216   8.968 -0.8611 -0.2518 -0.6219
  165SOPE  H15S18564   5.601   3.134   9.079  0.8504  0.1601  1.0734
  165SOPE  C21618565   5.746   3.000   8.973 -0.5807 -0.3722 -0.4863
  165SOPE  H16R18566   5.736   2.909   9.035  0.4142  0.6095  1.1539
  165SOPE  H16S18567   5.855   3.003   8.955 -1.0226  2.4671 -3.1791
  165SOPE  C21718568   5.682   2.989   8.835  1.1465  0.2081 -0.3808
  165SOPE  H17R18569   5.734   3.056   8.763  0.3650  0.8295 -0.3768
  165SOPE  H17S18570   5.574   3.015   8.833  0.9448 -0.3483  1.9335
  165SOPE  C21818571   5.703   2.846   8.788 -1.3060  0.6304  0.0609
  165SOPE  H18R18572   5.682   2.767   8.863 -0.6127  1.1354  0.8030
  165SOPE  H18S18573   5.808   2.836   8.755 -0.1846  1.1012  3.2378
  165SOPE  H18T18574   5.639   2.838   8.698 -0.6532 -1.1969 -0.2545
  165SOPE   C3318575   6.585   3.205  10.105 -0.0444  0.2918 -0.0430
  165SOPE   H3X18576   6.597   3.095  10.088 -0.9035  0.2232 -0.2273
  165SOPE   H3Y18577   6.663   3.228  10.180 -1.1955  3.8662  0.1483
  165SOPE   C3418578   6.615   3.281   9.979 -0.1988  0.6953  0.0259
  165SOPE   H4X18579   6.717   3.260   9.940 -0.1794  1.2693 -0.2284
  165SOPE   H4Y18580   6.590   3.388   9.987 -3.1423  0.3081 -2.9710
  165SOPE   C3518581   6.507   3.246   9.864 -0.6807  0.1443 -0.5992
  165SOPE   H5X18582   6.402   3.275   9.884 -0.2778  1.0250  0.2638
  165SOPE   H5Y18583   6.498   3.136   9.856  0.5033 -0.0997  1.2505
  165SOPE   C3618584   6.533   3.302   9.718 -0.2295 -0.0231 -0.2412
  165SOPE   H6X18585   6.638   3.293   9.683 -0.1174  1.5495 -0.3293
  165SOPE   H6Y18586   6.519   3.411   9.727 -0.4632 -0.1809  1.5268
  165SOPE   C3718587   6.438   3.233   9.622 -0.0557 -0.5905 -0.7345
  165SOPE   H7X18588   6.333   3.236   9.659  0.1328 -0.3435 -0.2171
  165SOPE   H7Y18589   6.471   3.127   9.615  1.2576 -0.2456  0.2085
  165SOPE   C3818590   6.451   3.301   9.482 -0.4411 -0.0224  0.6408
  165SOPE   H8X18591   6.557   3.322   9.455 -0.9606  2.4455  0.3609
  165SOPE   H8Y18592   6.404   3.400   9.501 -1.4207  0.2655 -2.8359
  165SOPE   C3918593   6.373   3.256   9.363 -0.7306 -0.4297  0.4758
  165SOPE   H9X18594   6.264   3.265   9.381 -1.0640 -1.8877 -0.7780
  165SOPE   H9Y18595   6.400   3.149   9.351 -1.9093 -0.7730  0.8285
  165SOPE  C31018596   6.409   3.323   9.228 -0.0958  0.2130 -0.7516
  165SOPE  H10X18597   6.520   3.328   9.220 -0.2902  1.3791 -3.1919
  165SOPE  H10Y18598   6.387   3.431   9.241  1.1491  0.6108 -1.7929
  165SOPE  C31118599   6.359   3.250   9.101  0.8720  0.1145  0.4500
  165SOPE  H11X18600   6.256   3.208   9.110  0.6722  0.5554  0.2431
  165SOPE  H11Y18601   6.416   3.155   9.093  0.1592 -0.3540  0.8825
  165SOPE  C31218602   6.363   3.334   8.975 -0.4143 -0.1145  0.1579
  165SOPE  H12X18603   6.428   3.423   8.990 -0.4636 -0.2103  0.9486
  165SOPE  H12Y18604   6.267   3.378   8.942  0.2374  1.4122  0.2407
  165SOPE  C31318605   6.431   3.269   8.851 -0.5721  0.2040 -0.1373
  165SOPE  H13X18606   6.369   3.176   8.844 -0.9608  0.3639  1.0540
  165SOPE  H13Y18607   6.523   3.219   8.887 -0.8706  1.7505  2.9934
  165SOPE  C31418608   6.442   3.358   8.729 -0.3649 -0.1111  0.2286
  165SOPE  H14X18609   6.518   3.436   8.750 -1.2564  1.3482 -1.7100
  165SOPE  H14Y18610   6.345   3.409   8.709 -0.7800 -0.8879  0.2630
  165SOPE  C31518611   6.486   3.295   8.592  0.1312 -0.3737 -0.1755
  165SOPE  H15X18612   6.432   3.201   8.568 -2.3583  1.0661 -0.2862
  165SOPE  H15Y18613   6.591   3.260   8.600  0.4922  0.9259  0.9477
  165SOPE  C31618614   6.465   3.391   8.472 -0.4502 -0.2274 -0.3617
  165SOPE  H16X18615   6.478   3.498   8.499 -0.5184  0.0543 -1.3946
  165SOPE  H16Y18616   6.361   3.368   8.439 -0.6891  0.0717  0.1778
  165SOPE  C31718617   6.556   3.357   8.354 -0.7266 -0.4750  0.0998
  165SOPE  H17X18618   6.661   3.360   8.389 -1.0298  0.3395  0.9685
  165SOPE  H17Y18619   6.541   3.431   8.272  0.5734 -2.8719 -2.3675
  165SOPE  C31818620   6.522   3.225   8.292 -0.6999  0.3394  1.1474
  165SOPE  H18X18621   6.415   3.221   8.263 -0.3670  0.6801 -0.1172
  165SOPE  H18Y18622   6.554   3.152   8.370  1.5680 -3.2283 -2.9368
  165SOPE  H18Z18623   6.591   3.206   8.207  0.8534 -1.7779  2.7974
  166SOPE     N18624   1.808   2.800  10.879  0.4139  0.0404  0.0582
  166SOPE   HN118625   1.748   2.848  10.810  0.9027  0.5477 -0.0196
  166SOPE   HN218626   1.757   2.720  10.922  0.7641 -1.2802 -1.9336
  166SOPE   HN318627   1.831   2.867  10.956  2.1661 -0.7919  0.2783
  166SOPE   C1218628   1.939   2.745  10.815  0.2326 -0.4736  0.7423
  166SOPE  H12A18629   1.907   2.705  10.716 -0.5646 -0.4830  0.9957
  166SOPE  H12B18630   1.979   2.665  10.880  0.8137 -1.1944 -0.4725
  166SOPE   C1118631   2.041   2.861  10.779  0.2017  0.5226  0.2353
  166SOPE  H11A18632   2.119   2.810  10.719  0.7053 -1.3932  2.4522
  166SOPE  H11B18633   2.081   2.890  10.879  1.6637 -1.9121  0.3915
  166SOPE     P18634   2.015   3.124  10.735 -0.0686  0.0730  0.0662
  166SOPE   O1318635   2.159   3.135  10.778 -0.5267 -0.1539 -0.2337
  166SOPE   O1418636   1.911   3.178  10.828 -0.2793 -0.2029  0.4482
  166SOPE   O1218637   1.982   2.968  10.709 -0.0615 -0.1623 -0.1089
  166SOPE   O1118638   2.002   3.183  10.590 -0.1547  0.3715  0.2194
  166SOPE    C118639   2.062   3.133  10.469 -0.1149 -0.7648 -0.1497
  166SOPE    HA18640   1.999   3.161  10.382 -1.6893 -1.2607  0.8068
  166SOPE    HB18641   2.078   3.023  10.466  0.3578 -0.7414  1.2005
  166SOPE    C218642   2.196   3.199  10.436  0.1096  0.0177  0.3331
  166SOPE    HS18643   2.257   3.163  10.521  0.5557  2.1359  0.9257
  166SOPE   O2118644   2.175   3.338  10.443 -0.8186  0.3769 -0.1047
  166SOPE   C2118645   2.280   3.414  10.462 -0.0960 -0.2913 -0.7389
  166SOPE   O2218646   2.390   3.369  10.485 -0.2963 -1.0400 -0.1745
  166SOPE   C2218647   2.241   3.561  10.452  0.8861  0.8635  0.1283
  166SOPE   H2R18648   2.337   3.613  10.428  0.4651  1.7183  0.2750
  166SOPE   H2S18649   2.199   3.579  10.553  3.7162 -1.4669  1.8261
  166SOPE    C318650   2.258   3.148  10.300  0.4979 -0.0548 -0.1528
  166SOPE    HX18651   2.270   3.037  10.303  0.0345 -0.0832  0.9851
  166SOPE    HY18652   2.360   3.190  10.284  0.6465 -0.4721 -0.2970
  166SOPE   O3118653   2.175   3.179  10.187  0.1561  0.3914 -0.5213
  166SOPE   C3118654   2.234   3.147  10.068 -0.6850 -0.2539  0.3089
  166SOPE   O3218655   2.344   3.092  10.063  0.5472  0.4345 -0.0416
  166SOPE   C3218656   2.159   3.217   9.947 -0.7637  0.0507  0.5481
  166SOPE   H2X18657   2.182   3.326   9.940 -2.2443  0.2839 -1.1520
  166SOPE   H2Y18658   2.050   3.207   9.966 -0.8057 -2.7946 -0.9840
  166SOPE   C2318659   2.134   3.591  10.349 -0.4220  0.1560 -0.6163
  166SOPE   H3R18660   2.111   3.699  10.360 -1.7423 -0.0259 -1.3979
  166SOPE   H3S18661   2.038   3.536  10.364  0.3353 -0.9222  0.3276
  166SOPE   C2418662   2.200   3.568  10.213 -0.4194  0.5037 -0.1132
  166SOPE   H4R18663   2.307   3.599  10.216 -0.1783 -0.4034  1.5275
  166SOPE   H4S18664   2.212   3.461  10.187  1.6725  0.7068 -0.0610
  166SOPE   C2518665   2.135   3.632  10.095  0.0530  0.4712 -0.2686
  166SOPE   H5R18666   2.044   3.574  10.065  0.6761 -0.7062  0.0946
  166SOPE   H5S18667   2.110   3.737  10.122 -0.7513  0.8773 -2.4776
  166SOPE   C2618668   2.221   3.631   9.968 -0.0112 -0.0567  0.1568
  166SOPE   H6R18669   2.314   3.684   9.999 -0.1378  0.2018  0.0941
  166SOPE   H6S18670   2.252   3.526   9.944  1.7900  0.3099  0.7568
  166SOPE   C2718671   2.146   3.694   9.850  0.6623  0.1389  0.4263
  166SOPE   H7R18672   2.093   3.612   9.798 -0.0356  0.5595  0.4688
  166SOPE   H7S18673   2.070   3.765   9.889 -0.5901 -0.3743 -1.0252
  166SOPE   C2818674   2.235   3.763   9.749  0.6637 -0.2423 -0.2403
  166SOPE   H8R18675   2.167   3.821   9.682  0.4228  1.2202  1.2423
  166SOPE   H8S18676   2.299   3.835   9.804  0.7077  0.1329 -0.7734
  166SOPE   C2918677   2.323   3.658   9.689  0.2887 -0.1290  0.0423
  166SOPE   H9118678   2.413   3.650   9.751  0.4170  1.6441  0.1182
  166SOPE  C21018679   2.294   3.590   9.574  0.2651  0.4333 -0.5884
  166SOPE  H10118680   2.358   3.514   9.529  0.4837  0.3733 -0.1750
  166SOPE  C21118681   2.167   3.603   9.493  0.1168  0.5380 -0.1017
  166SOPE  H11R18682   2.096   3.656   9.560 -1.9557 -0.5040 -1.4153
  166SOPE  H11S18683   2.127   3.500   9.484  0.4618  0.5994 -2.9054
  166SOPE  C21218684   2.177   3.672   9.356  0.0945  0.2141 -0.5547
  166SOPE  H12R18685   2.229   3.770   9.359 -1.3266  0.9838 -0.4401
  166SOPE  H12S18686   2.074   3.698   9.323 -0.9749  0.3374  2.7079
  166SOPE  C21318687   2.250   3.581   9.257 -0.0805 -0.1247  0.2413
  166SOPE  H13R18688   2.202   3.482   9.275 -0.3933  0.5397  3.4383
  166SOPE  H13S18689   2.358   3.571   9.278  0.0660  1.0741  0.0564
  166SOPE  C21418690   2.239   3.625   9.110 -0.0654 -0.0251 -0.0098
  166SOPE  H14R18691   2.289   3.723   9.102  1.4744 -0.8774 -0.9831
  166SOPE  H14S18692   2.134   3.625   9.073  0.5642  0.0435 -1.8261
  166SOPE  C21518693   2.296   3.525   9.006 -0.1097 -0.2193  0.1968
  166SOPE  H15R18694   2.257   3.553   8.906  1.4227  2.6884  0.3510
  166SOPE  H15S18695   2.265   3.421   9.030 -0.3371 -1.5721 -5.2013
  166SOPE  C21618696   2.449   3.525   9.003 -0.1058  0.2490 -0.6153
  166SOPE  H16R18697   2.471   3.511   9.111  1.7581 -0.1824 -1.0297
  166SOPE  H16S18698   2.483   3.622   8.962 -0.8975  0.5748 -0.4987
  166SOPE  C21718699   2.513   3.407   8.928  0.5417 -0.1875 -0.6208
  166SOPE  H17R18700   2.450   3.319   8.953  2.6284 -1.5490 -0.0345
  166SOPE  H17S18701   2.617   3.395   8.963  0.5164  1.0333 -0.1206
  166SOPE  C21818702   2.508   3.424   8.780  0.2687  0.4192  0.4456
  166SOPE  H18R18703   2.564   3.515   8.748  1.9984 -0.8626 -0.2417
  166SOPE  H18S18704   2.404   3.450   8.752  0.7278 -0.4399 -2.1961
  166SOPE  H18T18705   2.543   3.334   8.725 -2.3834  0.2833 -1.1049
  166SOPE   C3318706   2.216   3.164   9.813 -0.5402 -0.2945 -0.1927
  166SOPE   H3X18707   2.223   3.054   9.797  0.5930 -0.1887 -0.4735
  166SOPE   H3Y18708   2.324   3.189   9.811 -0.5435 -0.3005 -0.6080
  166SOPE   C3418709   2.154   3.212   9.685  0.0044 -0.2023  0.2453
  166SOPE   H4X18710   2.171   3.321   9.695  2.7300 -0.5327 -0.3359
  166SOPE   H4Y18711   2.044   3.194   9.687  0.4689 -3.8861 -2.6907
  166SOPE   C3518712   2.203   3.139   9.559 -0.0644 -0.0850  0.2301
  166SOPE   H5X18713   2.172   3.034   9.575  2.0201 -0.6489  0.6821
  166SOPE   H5Y18714   2.313   3.140   9.544 -0.0913  0.1463  0.0442
  166SOPE   C3618715   2.147   3.208   9.436 -0.1600 -0.1184 -0.0770
  166SOPE   H6X18716   2.158   3.318   9.424  0.4332 -0.5658 -4.3458
  166SOPE   H6Y18717   2.037   3.188   9.437 -0.5329  1.8399 -1.1022
  166SOPE   C3718718   2.192   3.134   9.307 -0.1828 -0.5719 -0.1593
  166SOPE   H7X18719   2.177   3.025   9.326 -2.0107 -0.3944 -0.4741
  166SOPE   H7Y18720   2.300   3.154   9.293  0.3323 -2.7440  0.5089
  166SOPE   C3818721   2.114   3.170   9.184  0.3384 -0.0753 -0.0507
  166SOPE   H8X18722   2.125   3.280   9.170  1.0767 -0.1780 -0.3161
  166SOPE   H8Y18723   2.004   3.163   9.189  0.2997  1.4941  2.0101
  166SOPE   C3918724   2.160   3.090   9.057  0.1781  0.3131 -0.0723
  166SOPE   H9X18725   2.187   2.990   9.098  1.1736  0.7414  0.3369
  166SOPE   H9Y18726   2.252   3.138   9.018 -0.1056  1.9994  1.2740
  166SOPE  C31018727   2.063   3.093   8.938  0.0587 -0.1669  0.2604
  166SOPE  H10X18728   1.964   3.059   8.975  1.2891 -1.7280  2.2390
  166SOPE  H10Y18729   2.095   3.017   8.864  0.2534  0.3758 -0.2119
  166SOPE  C31118730   2.049   3.231   8.871  1.6687  1.0164  0.2955
  166SOPE  H11X18731   2.151   3.264   8.842  2.1635 -0.5838  0.1764
  166SOPE  H11Y18732   2.001   3.297   8.946  0.5238 -0.7500  1.1727
  166SOPE  C31218733   1.952   3.224   8.753  0.6687  0.2090 -0.0978
  166SOPE  H12X18734   1.971   3.132   8.694 -0.7857  1.3935 -2.4765
  166SOPE  H12Y18735   1.982   3.303   8.681  1.4626  0.9453  1.0168
  166SOPE  C31318736   1.812   3.241   8.807  0.3007  0.2514 -0.7444
  166SOPE  H13X18737   1.796   3.342   8.850 -2.7173 -0.7811  0.6090
  166SOPE  H13Y18738   1.779   3.181   8.894 -2.0654  1.1721 -0.9763
  166SOPE  C31418739   1.709   3.229   8.693 -0.0136 -0.2024  0.3226
  166SOPE  H14X18740   1.707   3.127   8.649  2.4310 -0.2587  0.2582
  166SOPE  H14Y18741   1.733   3.296   8.608  0.2657 -0.4541  0.2012
  166SOPE  C31518742   1.571   3.276   8.735 -0.1076 -1.1127 -0.6083
  166SOPE  H15X18743   1.584   3.386   8.752 -1.2465 -0.5941 -2.9682
  166SOPE  H15Y18744   1.542   3.231   8.832 -1.6647  1.8275  0.3465
  166SOPE  C31618745   1.464   3.260   8.625 -0.5433 -0.3791  0.0695
  166SOPE  H16X18746   1.433   3.153   8.631  0.0544 -0.5629 -0.1524
  166SOPE  H16Y18747   1.509   3.286   8.527  0.7049 -0.8690  0.5112
  166SOPE  C31718748   1.342   3.350   8.647 -0.2337  0.3704  0.1109
  166SOPE  H17X18749   1.367   3.458   8.654 -1.3798  0.6000  0.6348
  166SOPE  H17Y18750   1.276   3.328   8.734  1.4229 -1.0826  1.0318
  166SOPE  C31818751   1.244   3.348   8.525 -0.3043 -0.0446  0.7040
  166SOPE  H18X18752   1.147   3.401   8.540 -0.8512 -1.0032  0.5562
  166SOPE  H18Y18753   1.227   3.242   8.498 -2.1544  0.1796  0.8858
  166SOPE  H18Z18754   1.294   3.399   8.440  0.1805  0.0106  1.0220
  167SOPE     N18755   4.639   2.287   6.064  0.4159 -0.0887  0.0158
  167SOPE   HN118756   4.555   2.349   6.064  0.3319 -0.1377  2.4462
  167SOPE   HN218757   4.709   2.312   5.991 -0.5132 -0.0097 -0.8628
  167SOPE   HN318758   4.625   2.184   6.059 -0.4829  0.0693 -0.9345
  167SOPE   C1218759   4.702   2.307   6.200 -0.5753 -0.0352 -0.5092
  167SOPE  H12A18760   4.691   2.413   6.232  1.8132  0.5097 -1.3747
  167SOPE  H12B18761   4.809   2.291   6.176  0.1625  1.5618  1.5181
  167SOPE   C1118762   4.658   2.209   6.312  0.4415 -0.0934  0.9014
  167SOPE  H11A18763   4.550   2.235   6.306  0.8169  0.8191 -2.9600
  167SOPE  H11B18764   4.711   2.234   6.406  2.5985 -0.3740 -0.1977
  167SOPE     P18765   4.593   1.979   6.220 -0.2843 -0.2672  0.0115
  167SOPE   O1318766   4.651   1.842   6.211  0.6253 -0.0249 -0.4108
  167SOPE   O1418767   4.537   2.040   6.097 -0.2633 -0.3781  0.2542
  167SOPE   O1218768   4.697   2.079   6.277  0.2948  0.0518 -0.4465
  167SOPE   O1118769   4.486   1.973   6.331 -0.1646  0.0760 -0.5754
  167SOPE    C118770   4.520   1.967   6.469 -0.6932  0.0371 -0.1523
  167SOPE    HA18771   4.500   2.068   6.513 -0.2952 -0.4395  1.1638
  167SOPE    HB18772   4.628   1.950   6.486 -0.9862  0.5672  2.5087
  167SOPE    C218773   4.448   1.855   6.538  0.2874 -0.2132  1.0196
  167SOPE    HS18774   4.339   1.862   6.515  0.1659 -1.4013  1.2268
  167SOPE   O2118775   4.473   1.874   6.677 -0.3337 -0.2387 -0.0357
  167SOPE   C2118776   4.396   1.800   6.761 -0.8249  0.2410  0.1604
  167SOPE   O2218777   4.315   1.717   6.724 -0.0022 -0.4141  0.1879
  167SOPE   C2218778   4.431   1.831   6.908 -0.6991  0.2662 -0.3060
  167SOPE   H2R18779   4.377   1.759   6.972 -1.4777  2.1784  1.2425
  167SOPE   H2S18780   4.383   1.927   6.936  1.6056  1.5015 -0.3853
  167SOPE    C318781   4.499   1.713   6.485  0.2609  0.2689 -0.2927
  167SOPE    HX18782   4.470   1.715   6.377 -0.2736  0.1989 -0.1512
  167SOPE    HY18783   4.441   1.630   6.531 -1.6002  0.5952 -1.9634
  167SOPE   O3118784   4.638   1.697   6.496 -0.0656  0.3638  0.0176
  167SOPE   C3118785   4.676   1.632   6.612 -0.0650 -0.3802 -0.4130
  167SOPE   O3218786   4.603   1.573   6.688 -0.7471 -0.8952 -0.2474
  167SOPE   C3218787   4.828   1.649   6.636 -0.3552 -0.1821  0.1219
  167SOPE   H2X18788   4.867   1.714   6.555 -0.1994 -0.9005 -0.3875
  167SOPE   H2Y18789   4.877   1.550   6.631  0.0981  0.0973 -1.2067
  167SOPE   C2318790   4.577   1.846   6.943  0.2587 -0.0991  0.4563
  167SOPE   H3R18791   4.624   1.921   6.876 -0.1104 -0.2164  0.0652
  167SOPE   H3S18792   4.638   1.755   6.923  0.6878 -0.0114  1.3244
  167SOPE   C2418793   4.604   1.880   7.089 -0.3168  0.4067 -0.2145
  167SOPE   H4R18794   4.712   1.907   7.085  0.5088 -2.7918 -0.3950
  167SOPE   H4S18795   4.548   1.973   7.113 -0.2517 -0.3327  3.1736
  167SOPE   C2518796   4.586   1.761   7.191 -0.0510 -0.4113  0.0352
  167SOPE   H5R18797   4.596   1.663   7.139 -0.0349 -1.1908  1.4748
  167SOPE   H5S18798   4.677   1.757   7.255 -1.2771  1.4923  1.9710
  167SOPE   C2618799   4.456   1.753   7.275  0.8797  0.0122 -0.0878
  167SOPE   H6R18800   4.363   1.749   7.215 -1.3345 -0.9701  3.2206
  167SOPE   H6S18801   4.452   1.657   7.330 -0.4826 -0.1958 -0.5291
  167SOPE   C2718802   4.432   1.870   7.372 -0.1071  0.2250  0.5446
  167SOPE   H7R18803   4.407   1.957   7.307 -0.9553  0.2466  0.8967
  167SOPE   H7S18804   4.347   1.841   7.438  0.6741  1.1728  1.9907
  167SOPE   C2818805   4.553   1.934   7.444  0.1689  0.4733 -0.4560
  167SOPE   H8R18806   4.617   1.954   7.356  1.1827 -1.5764 -0.1908
  167SOPE   H8S18807   4.511   2.031   7.478  1.4032  0.6581  0.5781
  167SOPE   C2918808   4.612   1.848   7.551  0.1122 -0.3827  0.0667
  167SOPE   H9118809   4.641   1.746   7.522 -0.1034 -0.4679  0.1453
  167SOPE  C21018810   4.614   1.866   7.678  0.0807  0.3543 -0.8932
  167SOPE  H10118811   4.667   1.802   7.750  0.3274  1.5478 -0.0018
  167SOPE  C21118812   4.556   1.984   7.748  0.3722 -0.2035  0.0609
  167SOPE  H11R18813   4.468   1.943   7.803  0.3904 -0.5563 -0.1689
  167SOPE  H11S18814   4.519   2.058   7.673 -0.8198  0.4713  1.2838
  167SOPE  C21218815   4.646   2.062   7.847  0.1800  0.3000  0.4618
  167SOPE  H12R18816   4.605   2.162   7.872 -1.5669 -0.3406  0.2105
  167SOPE  H12S18817   4.746   2.067   7.799 -1.3866  0.9961 -2.8793
  167SOPE  C21318818   4.662   1.994   7.986 -0.0980  0.4337 -0.1190
  167SOPE  H13R18819   4.722   1.903   7.970  0.4119  0.6545  0.5292
  167SOPE  H13S18820   4.558   1.973   8.019  0.7373 -2.1002  1.0102
  167SOPE  C21418821   4.741   2.071   8.086  0.0169 -0.1591 -0.7170
  167SOPE  H14R18822   4.686   2.168   8.094 -0.7336 -0.5934 -0.5214
  167SOPE  H14S18823   4.833   2.103   8.033  0.9512  1.4091  1.7556
  167SOPE  C21518824   4.759   2.005   8.223 -0.5420 -0.0321  0.6508
  167SOPE  H15R18825   4.793   2.077   8.300 -1.4603  0.5262  0.5440
  167SOPE  H15S18826   4.825   1.916   8.214 -0.9980 -0.1704 -1.6573
  167SOPE  C21618827   4.626   1.953   8.284 -0.1403  0.5985 -0.0103
  167SOPE  H16R18828   4.646   1.918   8.387 -1.5747 -0.0450  0.0596
  167SOPE  H16S18829   4.599   1.863   8.225  1.0117  1.8017 -2.4476
  167SOPE  C21718830   4.513   2.054   8.273  0.8220 -0.3818  0.0364
  167SOPE  H17R18831   4.475   2.091   8.175  0.6311  1.8509  0.9319
  167SOPE  H17S18832   4.541   2.147   8.326 -0.9159  0.2337 -0.0805
  167SOPE  C21818833   4.396   2.003   8.363  0.1950 -0.1328  0.5860
  167SOPE  H18R18834   4.429   1.975   8.466  0.0453 -1.3120  0.3167
  167SOPE  H18S18835   4.358   1.913   8.310  1.7412  0.5010 -1.6710
  167SOPE  H18T18836   4.309   2.072   8.370 -0.5535 -1.1120  1.1359
  167SOPE   C3318837   4.859   1.709   6.772 -0.4186 -0.0408  1.0673
  167SOPE   H3X18838   4.829   1.641   6.855 -1.3545  0.8616  1.4780
  167SOPE   H3Y18839   4.801   1.802   6.788 -1.4670 -0.7400  1.4150
  167SOPE   C3418840   5.013   1.739   6.791  0.0465  0.4961  0.0328
  167SOPE   H4X18841   5.049   1.810   6.713  1.7495  1.0380  1.2999
  167SOPE   H4Y18842   5.072   1.645   6.783 -0.3256  0.2322  0.4070
  167SOPE   C3518843   5.047   1.797   6.930 -0.3618 -0.0343  0.2434
  167SOPE   H5X18844   4.979   1.884   6.942  1.4563  1.3618  0.6273
  167SOPE   H5Y18845   5.152   1.832   6.938 -0.5124  1.0015 -1.9014
  167SOPE   C3618846   5.004   1.721   7.058 -0.0098 -0.5024 -0.6046
  167SOPE   H6X18847   5.068   1.634   7.080 -0.6647 -0.9360 -0.3977
  167SOPE   H6Y18848   4.905   1.671   7.055  0.3334 -1.0389 -3.6636
  167SOPE   C3718849   4.992   1.813   7.191 -0.1044  0.2805  0.1675
  167SOPE   H7X18850   4.903   1.879   7.194 -0.7405 -0.4696 -1.4601
  167SOPE   H7Y18851   5.085   1.872   7.188  0.3808 -0.1720  3.7202
  167SOPE   C3818852   4.987   1.725   7.315 -0.6964 -0.4967 -0.1053
  167SOPE   H8X18853   5.060   1.642   7.308  0.7762  0.6787  0.9347
  167SOPE   H8Y18854   4.885   1.682   7.326 -0.7293 -0.0889  1.3419
  167SOPE   C3918855   5.027   1.803   7.443  0.5686 -0.3727  0.2692
  167SOPE   H9X18856   4.961   1.893   7.438  0.2976 -0.6701 -2.4999
  167SOPE   H9Y18857   5.131   1.837   7.424  0.3444 -0.1673 -0.6145
  167SOPE  C31018858   5.035   1.714   7.570  0.0951  0.6786 -0.7458
  167SOPE  H10X18859   5.125   1.650   7.561  0.3373  0.8188  0.6098
  167SOPE  H10Y18860   4.951   1.642   7.565  0.9628 -0.5610  1.7677
  167SOPE  C31118861   5.027   1.802   7.697  0.2313  1.0042  0.3124
  167SOPE  H11X18862   4.934   1.852   7.728 -1.2373 -1.6915  0.4217
  167SOPE  H11Y18863   5.103   1.882   7.681  0.5475  1.2252  2.7180
  167SOPE  C31218864   5.053   1.727   7.829  0.0667  0.5544 -0.2148
  167SOPE  H12X18865   5.147   1.669   7.819 -1.5134 -2.4568  1.8255
  167SOPE  H12Y18866   4.973   1.651   7.839 -0.1670  0.8613  0.2538
  167SOPE  C31318867   5.048   1.834   7.936 -0.0827  0.5021  0.3791
  167SOPE  H13X18868   4.944   1.871   7.951 -0.9412 -1.6917 -0.0432
  167SOPE  H13Y18869   5.110   1.924   7.915  0.7181  0.0114  0.6229
  167SOPE  C31418870   5.095   1.776   8.068 -0.0694 -0.7620  0.5514
  167SOPE  H14X18871   5.181   1.706   8.059 -1.6542 -2.9044  1.5957
  167SOPE  H14Y18872   5.016   1.704   8.100 -0.9503 -1.1396 -2.2772
  167SOPE  C31518873   5.120   1.880   8.184 -0.0296  0.2751  0.9406
  167SOPE  H15X18874   5.112   1.821   8.277  3.1812  0.2988  1.2941
  167SOPE  H15Y18875   5.039   1.956   8.173 -1.1229 -0.9468  0.3784
  167SOPE  C31618876   5.256   1.952   8.172 -0.0747  0.4534  0.3572
  167SOPE  H16X18877   5.245   2.016   8.082 -1.9593  0.0763  0.3136
  167SOPE  H16Y18878   5.340   1.886   8.142  0.7314  2.2243 -1.3620
  167SOPE  C31718879   5.293   2.046   8.286  0.3089 -0.1613 -0.5815
  167SOPE  H17X18880   5.316   1.985   8.376 -2.1126 -0.3647 -0.0746
  167SOPE  H17Y18881   5.204   2.106   8.318 -0.5069 -2.0308  0.7572
  167SOPE  C31818882   5.395   2.146   8.253  0.5648 -0.0079 -0.0939
  167SOPE  H18X18883   5.369   2.194   8.156  1.2380 -0.1127 -0.3293
  167SOPE  H18Y18884   5.503   2.120   8.247  0.6942  0.8047 -1.4984
  167SOPE  H18Z18885   5.401   2.231   8.324  0.2887 -1.0863  1.2445
  168SOPE     N18886   3.464   5.071   6.470  0.1074 -0.1404  0.3517
  168SOPE   HN118887   3.368   5.048   6.504 -0.6754  2.5578  0.1088
  168SOPE   HN218888   3.444   5.132   6.388  2.1437  0.1796  0.0764
  168SOPE   HN318889   3.509   4.979   6.456 -1.2066 -0.9224  1.1958
  168SOPE   C1218890   3.529   5.156   6.571  0.5699 -0.9103 -0.4947
  168SOPE  H12A18891   3.634   5.122   6.582  1.2323  0.7665 -1.5036
  168SOPE  H12B18892   3.482   5.142   6.671  0.7510 -0.6194 -0.3646
  168SOPE   C1118893   3.520   5.300   6.538  0.1761 -0.7927 -0.4201
  168SOPE  H11A18894   3.564   5.368   6.614 -0.9251 -0.3847 -0.1295
  168SOPE  H11B18895   3.415   5.337   6.546  0.7230  0.3943  1.8723
  168SOPE     P18896   3.723   5.367   6.393  0.3792  0.0830 -0.0563
  168SOPE   O1318897   3.741   5.393   6.248  0.1925  0.0237 -0.3579
  168SOPE   O1418898   3.799   5.261   6.454 -0.5133 -0.0880  0.1628
  168SOPE   O1218899   3.567   5.329   6.408  0.0123 -0.2273  0.0659
  168SOPE   O1118900   3.742   5.496   6.470  0.0445  0.4941  0.2346
  168SOPE    C118901   3.644   5.602   6.460 -0.0780  0.5181 -0.7383
  168SOPE    HA18902   3.545   5.570   6.501 -1.1563  2.1638 -2.0127
  168SOPE    HB18903   3.634   5.634   6.354 -1.7696 -1.7307 -1.3002
  168SOPE    C218904   3.686   5.729   6.540 -0.0345  0.6955  1.0391
  168SOPE    HS18905   3.767   5.783   6.486 -3.2239  2.0790 -2.5504
  168SOPE   O2118906   3.723   5.680   6.671  0.1804 -0.0906 -0.0715
  168SOPE   C2118907   3.838   5.735   6.712 -0.2919 -0.5193  0.0649
  168SOPE   O2218908   3.921   5.797   6.654  0.1716  0.3201  0.5485
  168SOPE   C2218909   3.853   5.696   6.860  1.0043 -0.4054  0.2434
  168SOPE   H2R18910   3.810   5.594   6.872  3.2944 -1.2969  1.3529
  168SOPE   H2S18911   3.796   5.769   6.920  0.7834  2.0391 -2.7975
  168SOPE    C318912   3.572   5.826   6.572  0.4457 -0.7213  0.2867
  168SOPE    HX18913   3.489   5.763   6.610  1.3041 -2.9820 -1.4738
  168SOPE    HY18914   3.527   5.853   6.474  1.5345 -2.8403 -0.8281
  168SOPE   O3118915   3.601   5.951   6.637 -0.6092  0.2253  0.0750
  168SOPE   C3118916   3.681   6.043   6.584 -0.2290 -0.0451  0.2223
  168SOPE   O3218917   3.703   6.055   6.466 -0.7770  0.4589 -0.3212
  168SOPE   C3218918   3.720   6.147   6.687 -0.7801 -0.9222 -0.0524
  168SOPE   H2X18919   3.636   6.219   6.692 -1.3287 -1.5795  0.2642
  168SOPE   H2Y18920   3.806   6.204   6.646 -0.6892 -0.5268  0.6784
  168SOPE   C2318921   3.998   5.701   6.903  0.1235 -0.5755 -0.5074
  168SOPE   H3R18922   4.039   5.803   6.882 -0.2379 -0.4097 -0.4177
  168SOPE   H3S18923   4.068   5.641   6.842  0.9063 -0.2270  0.0489
  168SOPE   C2418924   4.004   5.667   7.053  0.2848  0.7708 -1.0459
  168SOPE   H4R18925   3.982   5.559   7.067 -0.5500  1.1339  0.5252
  168SOPE   H4S18926   4.114   5.668   7.070  0.1534  1.3660 -0.2172
  168SOPE   C2518927   3.932   5.754   7.162  0.1633  0.2991  0.1606
  168SOPE   H5R18928   3.911   5.851   7.113  0.7855  0.5050  0.2988
  168SOPE   H5S18929   3.832   5.716   7.189 -0.5809  2.1015  0.0011
  168SOPE   C2618930   4.006   5.791   7.290  0.0401 -0.8282  0.4559
  168SOPE   H6R18931   4.029   5.704   7.355  0.9636 -0.7696  0.2201
  168SOPE   H6S18932   4.101   5.841   7.262 -0.1603 -0.5766  0.2211
  168SOPE   C2718933   3.920   5.892   7.377 -0.1824 -0.2293  0.5358
  168SOPE   H7R18934   3.955   5.993   7.346 -2.3134  0.3686  0.0051
  168SOPE   H7S18935   3.813   5.894   7.348  0.1093  0.6301 -0.5380
  168SOPE   C2818936   3.923   5.866   7.531  0.5598  0.3396  0.3918
  168SOPE   H8R18937   3.875   5.772   7.566  2.4670 -1.6640 -2.1438
  168SOPE   H8S18938   4.027   5.836   7.552  0.9878  1.6403  0.2063
  168SOPE   C2918939   3.875   5.987   7.607  0.5281 -0.4671  0.6984
  168SOPE   H9118940   3.807   6.060   7.561  1.6098  1.1947  1.6592
  168SOPE  C21018941   3.919   6.027   7.730  0.5965 -0.4837 -0.3456
  168SOPE  H10118942   3.890   6.126   7.769 -0.9951 -0.3216 -1.8903
  168SOPE  C21118943   4.021   5.947   7.810 -0.0824  0.1576 -0.0903
  168SOPE  H11R18944   4.123   5.990   7.796 -0.4087  1.0636  0.2605
  168SOPE  H11S18945   4.029   5.843   7.771 -1.2817 -0.6196  1.6844
  168SOPE  C21218946   4.004   5.948   7.962  0.1825  0.8282 -0.2073
  168SOPE  H12R18947   4.082   5.885   8.011 -0.4884 -0.1027 -0.3158
  168SOPE  H12S18948   3.908   5.897   7.981 -0.0413  1.3800  0.1432
  168SOPE  C21318949   3.998   6.089   8.021 -0.1259  0.6753  0.1553
  168SOPE  H13R18950   3.925   6.155   7.968  0.1482  0.1167 -0.9279
  168SOPE  H13S18951   4.097   6.140   8.017  0.1858  0.1166  0.7419
  168SOPE  C21418952   3.951   6.088   8.162  0.0237  0.0250  0.1117
  168SOPE  H14R18953   4.016   6.012   8.212 -0.9772 -2.6590 -2.5197
  168SOPE  H14S18954   3.850   6.043   8.172  0.1436 -0.1535  0.5450
  168SOPE  C21518955   3.945   6.217   8.241 -0.0560  0.2264  0.3470
  168SOPE  H15R18956   3.877   6.201   8.327 -2.3749  2.2218 -1.0873
  168SOPE  H15S18957   3.906   6.303   8.184  0.7122 -0.6642 -1.5815
  168SOPE  C21618958   4.089   6.250   8.302 -0.7861  0.1760 -0.5080
  168SOPE  H16R18959   4.076   6.326   8.382 -2.5376 -0.4948 -0.1337
  168SOPE  H16S18960   4.168   6.281   8.230 -0.7021 -0.1232 -0.5493
  168SOPE  C21718961   4.157   6.136   8.378  0.3239  0.0011  0.2313
  168SOPE  H17R18962   4.197   6.066   8.302 -1.1444 -0.9801  0.3310
  168SOPE  H17S18963   4.080   6.070   8.424  0.2050  0.9763  1.4724
  168SOPE  C21818964   4.269   6.169   8.474  0.1216 -0.0400 -0.1915
  168SOPE  H18R18965   4.352   6.198   8.406  0.2180  0.0061 -0.0539
  168SOPE  H18S18966   4.308   6.079   8.525 -1.3234 -1.5853 -1.7641
  168SOPE  H18T18967   4.246   6.251   8.545 -1.9425 -1.0761  0.3641
  168SOPE   C3318968   3.741   6.098   6.828 -0.7493 -0.3064 -0.0278
  168SOPE   H3X18969   3.819   6.018   6.834  0.1308  0.3815 -1.8829
  168SOPE   H3Y18970   3.646   6.053   6.864  0.8815 -1.2451  3.2603
  168SOPE   C3418971   3.782   6.214   6.919  0.8482 -0.4436 -0.3877
  168SOPE   H4X18972   3.712   6.297   6.896  2.1970  0.9296  0.3656
  168SOPE   H4Y18973   3.881   6.239   6.874  0.5668  0.7157 -0.3770
  168SOPE   C3518974   3.791   6.178   7.071  0.5279 -0.8582  0.1701
  168SOPE   H5X18975   3.876   6.245   7.098 -1.8450  2.0661  0.7324
  168SOPE   H5Y18976   3.824   6.074   7.087 -3.0623 -2.1883 -0.6295
  168SOPE   C3618977   3.657   6.213   7.143 -0.1709  0.4960 -0.2284
  168SOPE   H6X18978   3.577   6.165   7.085 -0.7781  0.4373  0.6455
  168SOPE   H6Y18979   3.632   6.321   7.132  0.2456  0.3290 -3.0312
  168SOPE   C3718980   3.657   6.169   7.290 -0.2588  0.4075 -0.6616
  168SOPE   H7X18981   3.751   6.212   7.332 -0.6220 -0.7987  1.4501
  168SOPE   H7Y18982   3.654   6.058   7.292 -0.9609  0.4266 -0.6253
  168SOPE   C3818983   3.528   6.220   7.368  0.6147  0.5100 -0.0482
  168SOPE   H8X18984   3.456   6.149   7.322  0.4051 -0.3420  1.5508
  168SOPE   H8Y18985   3.508   6.327   7.343  1.6198  0.2786 -1.9652
  168SOPE   C3918986   3.550   6.209   7.522 -0.0830  0.7789 -0.0706
  168SOPE   H9X18987   3.650   6.253   7.538 -0.5681  1.9257 -0.1202
  168SOPE   H9Y18988   3.555   6.103   7.555 -1.3241  0.4603 -0.8812
  168SOPE  C31018989   3.451   6.294   7.604  0.1375  0.1824 -0.3436
  168SOPE  H10X18990   3.354   6.241   7.614 -0.3481  1.2210  0.5172
  168SOPE  H10Y18991   3.416   6.385   7.551 -2.0696 -0.7696 -0.5694
  168SOPE  C31118992   3.515   6.333   7.739  0.1710 -0.4530  0.6993
  168SOPE  H11X18993   3.433   6.372   7.804  1.0985  2.1883  0.3347
  168SOPE  H11Y18994   3.585   6.418   7.721 -0.4740 -0.3283 -1.2464
  168SOPE  C31218995   3.592   6.220   7.806  0.1754  0.7447 -0.1050
  168SOPE  H12X18996   3.681   6.186   7.749 -0.6883 -0.1946 -0.9113
  168SOPE  H12Y18997   3.520   6.135   7.808  1.3218 -0.2752 -1.6119
  168SOPE  C31318998   3.645   6.250   7.948 -0.1047 -0.3079  0.3419
  168SOPE  H13X18999   3.725   6.325   7.931 -0.0009  0.2505  3.0006
  168SOPE  H13Y19000   3.681   6.156   7.997 -0.9050 -0.2837  0.9907
  168SOPE  C31419001   3.538   6.314   8.046  0.0765  0.2526 -0.4156
  168SOPE  H14X19002   3.453   6.242   8.048  2.8252 -3.1242 -1.2093
  168SOPE  H14Y19003   3.502   6.405   7.995  0.9537  1.4749  1.1082
  168SOPE  C31519004   3.586   6.346   8.188  0.3362 -0.6210  0.3817
  168SOPE  H15X19005   3.671   6.418   8.199 -0.2191  0.3357 -1.4357
  168SOPE  H15Y19006   3.620   6.248   8.227  1.7873  0.6463  2.4254
  168SOPE  C31619007   3.468   6.366   8.282 -0.1473  0.4193  0.5473
  168SOPE  H16X19008   3.398   6.284   8.259 -0.0559  0.3574  0.4922
  168SOPE  H16Y19009   3.421   6.459   8.243 -0.0675 -0.2262 -1.1084
  168SOPE  C31719010   3.500   6.377   8.429 -0.4575  0.5277  0.5129
  168SOPE  H17X19011   3.551   6.471   8.458  2.2561 -1.1322  1.3799
  168SOPE  H17Y19012   3.572   6.294   8.447  1.0447  1.5478 -0.6231
  168SOPE  C31819013   3.381   6.373   8.514  0.4652 -0.3072  0.1956
  168SOPE  H18X19014   3.307   6.297   8.482  0.2390 -0.7621  1.7754
  168SOPE  H18Y19015   3.333   6.473   8.505 -0.8133 -0.9160  0.2073
  168SOPE  H18Z19016   3.403   6.355   8.621 -0.5595 -0.6182  0.3544
  169SOPE     N19017   6.426   6.556   6.676 -0.2220 -0.1703  0.4191
  169SOPE   HN119018   6.375   6.482   6.728 -1.0580 -1.0364 -1.5801
  169SOPE   HN219019   6.526   6.534   6.693  0.0740 -0.2815 -1.4099
  169SOPE   HN319020   6.413   6.655   6.707 -1.5717 -0.4252  0.6949
  169SOPE   C1219021   6.400   6.562   6.535 -0.6279  0.5073  0.4246
  169SOPE  H12A19022   6.447   6.475   6.485 -0.0910  0.6757  0.6259
  169SOPE  H12B19023   6.450   6.653   6.495  0.3651 -0.5364 -0.8002
  169SOPE   C1119024   6.249   6.560   6.506  0.1782 -0.0863 -0.6421
  169SOPE  H11A19025   6.209   6.459   6.530 -0.5850  0.2428 -0.5359
  169SOPE  H11B19026   6.231   6.550   6.397 -2.3291 -0.8303 -0.1739
  169SOPE     P19027   6.123   6.784   6.498 -0.2279 -0.3600  0.0728
  169SOPE   O1319028   6.041   6.747   6.376  0.2152  0.1435 -0.0456
  169SOPE   O1419029   6.243   6.875   6.468  0.5934  0.1539  0.1842
  169SOPE   O1219030   6.160   6.658   6.575 -0.0521 -0.0151 -0.2795
  169SOPE   O1119031   6.040   6.867   6.597 -0.0302 -0.6709  0.7122
  169SOPE    C119032   6.040   7.014   6.588  0.7331 -0.0915  0.1465
  169SOPE    HA19033   6.027   7.050   6.484 -1.2548 -2.6343 -0.5383
  169SOPE    HB19034   6.145   7.041   6.614  1.3142 -1.5334 -0.6027
  169SOPE    C219035   5.935   7.092   6.682  0.3549  0.9576  0.2881
  169SOPE    HS19036   5.914   7.191   6.638 -0.8236  0.0071 -1.3153
  169SOPE   O2119037   6.008   7.108   6.813 -0.0929  0.1075 -0.1273
  169SOPE   C2119038   5.967   7.204   6.884  0.0856  0.2937 -0.6689
  169SOPE   O2219039   5.925   7.313   6.849 -0.4816  0.6827 -0.4757
  169SOPE   C2219040   5.984   7.163   7.036 -0.3314 -0.7833 -1.2755
  169SOPE   H2R19041   6.058   7.238   7.070 -0.0378 -0.4246 -2.7024
  169SOPE   H2S19042   6.037   7.065   7.042  0.5467 -0.1873  1.7079
  169SOPE    C319043   5.800   7.002   6.703  0.1994  0.3392  0.1778
  169SOPE    HX19044   5.822   6.897   6.732 -0.6219 -0.2414 -1.2743
  169SOPE    HY19045   5.756   6.985   6.603  0.9161 -0.9800  0.0767
  169SOPE   O3119046   5.712   7.076   6.794  0.3231 -0.4222 -0.4543
  169SOPE   C3119047   5.643   7.173   6.725 -0.5298 -0.7301 -0.1670
  169SOPE   O3219048   5.632   7.182   6.602 -0.2816  0.9917  0.1514
  169SOPE   C3219049   5.581   7.264   6.816  0.1959 -0.8266  0.5089
  169SOPE   H2X19050   5.648   7.351   6.832 -1.2704  0.1928  1.1221
  169SOPE   H2Y19051   5.569   7.220   6.918 -0.8898 -0.8200  0.3845
  169SOPE   C2319052   5.862   7.155   7.125  0.1637 -0.3151  0.0235
  169SOPE   H3R19053   5.800   7.069   7.093 -1.1286 -0.0480  1.7084
  169SOPE   H3S19054   5.803   7.249   7.117 -0.9782 -0.8344  1.9640
  169SOPE   C2419055   5.904   7.137   7.269  0.1957  0.1528 -0.2828
  169SOPE   H4R19056   5.963   7.223   7.307  0.5085  0.7900 -2.1240
  169SOPE   H4S19057   5.811   7.138   7.329 -0.6512  0.5919 -1.5776
  169SOPE   C2519058   5.995   7.023   7.315 -0.3464  0.6238 -0.3402
  169SOPE   H5R19059   5.964   6.927   7.268 -1.9010  1.4125 -0.9734
  169SOPE   H5S19060   6.095   7.042   7.270  0.1593 -1.3205 -0.0967
  169SOPE   C2619061   5.987   6.998   7.459 -0.6301  0.1869 -0.7659
  169SOPE   H6R19062   5.969   7.095   7.511 -0.2884  0.6504 -1.5021
  169SOPE   H6S19063   5.904   6.926   7.473  1.2305 -2.1124 -1.3564
  169SOPE   C2719064   6.111   6.923   7.497 -0.0853  0.6109  0.9052
  169SOPE   H7R19065   6.147   6.846   7.425  0.7500  0.3351  1.5979
  169SOPE   H7S19066   6.199   6.991   7.491  0.0725  0.2009 -2.2431
  169SOPE   C2819067   6.105   6.859   7.637  0.5655  0.2062  0.3577
  169SOPE   H8R19068   6.084   6.937   7.713 -0.0034  0.9712 -0.5807
  169SOPE   H8S19069   6.021   6.787   7.635 -0.4958  1.4159  0.9410
  169SOPE   C2919070   6.226   6.780   7.672  0.1683  0.0920 -0.0374
  169SOPE   H9119071   6.242   6.699   7.600 -0.3142 -1.1080  1.1671
  169SOPE  C21019072   6.314   6.805   7.770  0.7282  0.3133  0.9854
  169SOPE  H10119073   6.379   6.718   7.787  0.5325 -0.0991 -0.3350
  169SOPE  C21119074   6.324   6.917   7.868 -0.0461  0.2489 -0.3398
  169SOPE  H11R19075   6.241   6.989   7.851  0.0891  1.0562  2.2436
  169SOPE  H11S19076   6.417   6.972   7.843 -0.7305  1.5552 -0.0531
  169SOPE  C21219077   6.295   6.871   8.016  0.7156 -0.7137  0.5183
  169SOPE  H12R19078   6.192   6.829   8.011  0.1165  0.7259  0.3841
  169SOPE  H12S19079   6.293   6.966   8.073  0.2585  0.9783 -2.1929
  169SOPE  C21319080   6.400   6.772   8.080 -0.0455 -0.0237  0.4314
  169SOPE  H13R19081   6.500   6.815   8.061 -0.3748  1.4518  1.9397
  169SOPE  H13S19082   6.396   6.676   8.025  2.3176 -1.0628  1.9892
  169SOPE  C21419083   6.383   6.743   8.231 -0.2137  0.1555  0.4670
  169SOPE  H14R19084   6.408   6.840   8.279 -1.3024  0.7305 -0.1020
  169SOPE  H14S19085   6.464   6.671   8.257 -0.2022  0.2324  0.6390
  169SOPE  C21519086   6.236   6.699   8.274 -0.3043 -0.4350  0.9437
  169SOPE  H15R19087   6.170   6.787   8.263  0.9540  0.8410  3.1841
  169SOPE  H15S19088   6.234   6.676   8.383  0.5188  0.9697  1.2652
  169SOPE  C21619089   6.184   6.586   8.190  0.4214 -0.8201  0.3488
  169SOPE  H16R19090   6.174   6.620   8.084  0.6020 -0.7420  0.3574
  169SOPE  H16S19091   6.081   6.560   8.223 -0.6449 -0.6367 -2.6501
  169SOPE  C21719092   6.261   6.456   8.209  0.1175 -0.2667 -0.5724
  169SOPE  H17R19093   6.362   6.476   8.168 -0.9599  2.0666 -2.1860
  169SOPE  H17S19094   6.219   6.375   8.146 -0.1790 -1.4384  1.1011
  169SOPE  C21819095   6.279   6.401   8.353  0.3602  0.3984 -0.9625
  169SOPE  H18R19096   6.342   6.470   8.414  2.2798 -0.5832 -1.7988
  169SOPE  H18S19097   6.333   6.305   8.368  0.7476  0.4853 -1.7889
  169SOPE  H18T19098   6.178   6.395   8.399  0.4800  0.8631 -0.6358
  169SOPE   C3319099   5.435   7.298   6.764  0.5601 -0.6457  0.5338
  169SOPE   H3X19100   5.420   7.311   6.655  1.8939  0.1978  0.4293
  169SOPE   H3Y19101   5.408   7.400   6.801 -0.8071 -0.1869 -1.6305
  169SOPE   C3419102   5.328   7.198   6.820  0.3457 -0.5229  0.9481
  169SOPE   H4X19103   5.328   7.102   6.765  0.0923 -1.8379  3.1850
  169SOPE   H4Y19104   5.226   7.241   6.807  0.7333  0.6291  1.6191
  169SOPE   C3519105   5.332   7.164   6.969 -0.8944  0.2262 -0.9008
  169SOPE   H5X19106   5.425   7.114   7.003 -1.8231 -0.9263  0.0265
  169SOPE   H5Y19107   5.248   7.091   6.979  0.6817 -1.2470  2.6020
  169SOPE   C3619108   5.291   7.278   7.061  0.5314  0.3198  0.1046
  169SOPE   H6X19109   5.187   7.314   7.042  0.6153 -0.6917 -2.3135
  169SOPE   H6Y19110   5.361   7.359   7.033 -2.7888  3.2303 -0.1241
  169SOPE   C3719111   5.312   7.252   7.215  0.1957  0.5318 -0.7315
  169SOPE   H7X19112   5.303   7.144   7.240 -0.1926  0.2240 -2.1585
  169SOPE   H7Y19113   5.231   7.314   7.259  0.2271  0.9085 -1.2017
  169SOPE   C3819114   5.440   7.306   7.272 -0.5029  0.1716  0.0610
  169SOPE   H8X19115   5.537   7.265   7.237 -0.2650 -0.8209  1.8170
  169SOPE   H8Y19116   5.441   7.417   7.268 -0.1791  0.1795  0.3640
  169SOPE   C3919117   5.437   7.263   7.420 -0.0680 -0.2915 -0.2913
  169SOPE   H9X19118   5.416   7.154   7.427 -2.4840  0.0696 -1.1224
  169SOPE   H9Y19119   5.343   7.311   7.455 -0.1324  0.3680 -1.3285
  169SOPE  C31019120   5.568   7.293   7.501 -0.3924  0.0847 -0.2664
  169SOPE  H10X19121   5.581   7.402   7.516 -0.7799  0.2628 -1.1609
  169SOPE  H10Y19122   5.656   7.259   7.442 -0.6060  0.5398 -0.8553
  169SOPE  C31119123   5.571   7.241   7.644 -0.7479  0.0814 -0.0508
  169SOPE  H11X19124   5.548   7.134   7.629  0.3157 -0.0141 -1.0550
  169SOPE  H11Y19125   5.480   7.288   7.687  0.3384  2.1274  0.0719
  169SOPE  C31219126   5.709   7.239   7.709  0.0731 -0.4370  0.1585
  169SOPE  H12X19127   5.741   7.344   7.732 -0.2240 -0.1982 -0.5299
  169SOPE  H12Y19128   5.787   7.195   7.643 -0.2346  0.5386 -0.8667
  169SOPE  C31319129   5.713   7.180   7.849 -0.2476  0.4748  0.4991
  169SOPE  H13X19130   5.664   7.080   7.850  2.3919 -0.8805 -1.0406
  169SOPE  H13Y19131   5.663   7.256   7.914  1.4860  1.9918  0.0983
  169SOPE  C31419132   5.859   7.158   7.901  0.2108 -0.3903  0.1767
  169SOPE  H14X19133   5.895   7.260   7.925 -0.3106  0.1459 -1.2673
  169SOPE  H14Y19134   5.922   7.097   7.832 -0.0833 -0.9858  0.4246
  169SOPE  C31519135   5.869   7.078   8.033 -0.0141  0.3052  0.0031
  169SOPE  H15X19136   5.822   7.123   8.123 -0.2850 -2.7809  1.5102
  169SOPE  H15Y19137   5.978   7.070   8.051  0.3626  1.4005 -1.7367
  169SOPE  C31619138   5.806   6.934   8.019  0.6358  0.3538 -0.1116
  169SOPE  H16X19139   5.847   6.897   7.923 -0.7083 -0.2879 -0.4527
  169SOPE  H16Y19140   5.695   6.932   8.026  0.6543  2.6604  1.5062
  169SOPE  C31719141   5.878   6.824   8.110 -0.0390 -0.5548 -0.5555
  169SOPE  H17X19142   5.982   6.854   8.138 -0.3208 -2.2464  2.5074
  169SOPE  H17Y19143   5.878   6.727   8.057  1.7059 -0.8997  0.0348
  169SOPE  C31819144   5.801   6.816   8.246 -0.3577 -0.1043  1.1286
  169SOPE  H18X19145   5.701   6.772   8.228  1.1793 -2.7950 -1.2453
  169SOPE  H18Y19146   5.797   6.913   8.301 -0.4613  0.7348 -0.3280
  169SOPE  H18Z19147   5.855   6.748   8.316  1.5272  0.4003  0.2180
  170SOPE     N19148   0.614   6.152   6.337  1.0389  0.5245 -0.9272
  170SOPE   HN119149   0.552   6.172   6.255  1.5076  2.0444 -0.9388
  170SOPE   HN219150   0.631   6.248   6.375  0.0919  0.1427  0.5215
  170SOPE   HN319151   0.703   6.108   6.307 -0.1472 -1.6520 -1.3297
  170SOPE   C1219152   0.531   6.077   6.446  0.1948  0.6873  0.0572
  170SOPE  H12A19153   0.604   6.020   6.508 -0.2114 -0.3881 -0.4328
  170SOPE  H12B19154   0.464   6.006   6.393  2.1880 -1.8046  0.7176
  170SOPE   C1119155   0.448   6.178   6.525 -0.0389  0.0107 -0.0504
  170SOPE  H11A19156   0.522   6.245   6.574  1.4526 -0.1984 -1.9758
  170SOPE  H11B19157   0.383   6.141   6.607 -2.3089 -0.9838 -2.2208
  170SOPE     P19158   0.218   6.216   6.415 -0.3820 -0.1514  0.3792
  170SOPE   O1319159   0.192   6.076   6.428  0.0630 -0.1272  0.2259
  170SOPE   O1419160   0.158   6.295   6.309 -0.2690  0.0896  1.3380
  170SOPE   O1219161   0.374   6.252   6.423 -0.2283  0.8189  0.2010
  170SOPE   O1119162   0.169   6.281   6.544  0.2097 -0.0853  0.6305
  170SOPE    C119163   0.034   6.324   6.561  0.2128  0.1420 -0.1234
  170SOPE    HA19164  -0.028   6.323   6.469 -0.5892  0.4236  0.4082
  170SOPE    HB19165   0.040   6.431   6.591  1.2366 -0.5164  2.2008
  170SOPE    C219166  -0.051   6.254   6.660  0.8935 -0.2752  0.1261
  170SOPE    HS19167  -0.157   6.284   6.644  0.8045 -1.3232 -1.3592
  170SOPE   O2119168   0.003   6.277   6.791 -0.4813  0.0481  0.2682
  170SOPE   C2119169  -0.042   6.385   6.848 -0.0158 -0.3137 -0.4197
  170SOPE   O2219170  -0.136   6.455   6.813  0.0957  0.0182  0.1629
  170SOPE   C2219171   0.042   6.408   6.979  0.6105  0.2158 -0.1889
  170SOPE   H2R19172  -0.005   6.498   7.024 -0.3706  0.2847 -1.3423
  170SOPE   H2S19173   0.148   6.425   6.950  1.5599 -2.1292  1.7529
  170SOPE    C319174  -0.039   6.097   6.641  0.8291  0.1307  0.0670
  170SOPE    HX19175   0.064   6.074   6.676  2.0042  1.6643 -2.2404
  170SOPE    HY19176  -0.047   6.081   6.531 -3.2163 -0.2246  0.3239
  170SOPE   O3119177  -0.134   6.026   6.723  0.1748 -0.1209  0.1927
  170SOPE   C3119178  -0.113   5.904   6.736  0.4219  0.4935  0.2160
  170SOPE   O3219179  -0.029   5.832   6.679 -0.0325 -0.9600  0.3268
  170SOPE   C3219180  -0.212   5.862   6.845 -0.1989  0.5842 -0.0198
  170SOPE   H2X19181  -0.314   5.860   6.802  0.0865  2.4935 -0.8474
  170SOPE   H2Y19182  -0.206   5.950   6.913 -1.2161  0.8574 -0.2742
  170SOPE   C2319183   0.026   6.290   7.079  0.0272  0.3655  0.3000
  170SOPE   H3R19184   0.055   6.197   7.025 -0.1802 -0.5789  1.7965
  170SOPE   H3S19185  -0.075   6.264   7.118  1.5518 -2.5168  2.5021
  170SOPE   C2419186   0.121   6.312   7.202 -0.0772 -0.2919 -0.0252
  170SOPE   H4R19187   0.217   6.292   7.151 -1.6531 -0.9357 -2.8570
  170SOPE   H4S19188   0.117   6.419   7.232  1.2449 -0.8712  2.3039
  170SOPE   C2519189   0.088   6.229   7.326  0.0723  0.1582  0.5366
  170SOPE   H5R19190  -0.022   6.218   7.331  0.1452 -0.6199  0.5387
  170SOPE   H5S19191   0.134   6.128   7.313 -2.9655 -1.2365  0.2689
  170SOPE   C2619192   0.149   6.287   7.454 -0.1772 -0.6190  0.0652
  170SOPE   H6R19193   0.260   6.284   7.461  0.1402  0.9029 -3.3126
  170SOPE   H6S19194   0.125   6.396   7.447 -0.5923 -0.6451  1.0966
  170SOPE   C2719195   0.082   6.223   7.569 -0.3185  0.1186 -0.4804
  170SOPE   H7R19196  -0.029   6.222   7.560 -0.2691 -0.4447 -1.0208
  170SOPE   H7S19197   0.109   6.116   7.572 -0.8522 -0.0022  0.3327
  170SOPE   C2819198   0.135   6.279   7.705  0.4297  0.4270  0.0890
  170SOPE   H8R19199   0.241   6.243   7.706  0.0839 -0.6999 -1.9810
  170SOPE   H8S19200   0.126   6.390   7.697 -2.7824  0.3709  2.1643
  170SOPE   C2919201   0.063   6.228   7.827 -0.5214 -0.2247 -0.5538
  170SOPE   H9119202  -0.044   6.205   7.818 -0.5064 -1.1321  1.3752
  170SOPE  C21019203   0.116   6.204   7.943 -0.4769 -0.6739 -0.6640
  170SOPE  H10119204   0.051   6.161   8.021  0.0953  0.1771  0.3019
  170SOPE  C21119205   0.255   6.226   7.990  0.3323  0.3829  0.2507
  170SOPE  H11R19206   0.260   6.275   8.090  1.4109  0.3781  0.2115
  170SOPE  H11S19207   0.311   6.292   7.920 -0.9714  1.8150  0.5287
  170SOPE  C21219208   0.332   6.097   8.006 -0.5738 -0.6755 -0.4349
  170SOPE  H12R19209   0.434   6.125   8.037 -0.7667 -0.0814 -0.3325
  170SOPE  H12S19210   0.342   6.039   7.912  0.6831  0.7033 -1.1644
  170SOPE  C21319211   0.278   5.998   8.110 -0.1515  0.3301  0.9425
  170SOPE  H13R19212   0.179   5.967   8.070 -0.6706  2.1991  0.7553
  170SOPE  H13S19213   0.260   6.060   8.200 -0.7351  0.5803  0.6554
  170SOPE  C21419214   0.379   5.883   8.135 -0.1269 -0.6160  0.3037
  170SOPE  H14R19215   0.469   5.930   8.179 -0.9772  1.9340 -0.5843
  170SOPE  H14S19216   0.411   5.828   8.044  0.4158 -0.1800  0.2360
  170SOPE  C21519217   0.335   5.786   8.245  0.6263  0.0071 -1.2654
  170SOPE  H15R19218   0.409   5.703   8.238  0.2047 -0.4234 -0.6505
  170SOPE  H15S19219   0.235   5.744   8.223  0.1980 -0.9789  2.2207
  170SOPE  C21619220   0.323   5.844   8.385 -0.1924  0.6764  0.2169
  170SOPE  H16R19221   0.233   5.909   8.397  0.4495  1.8675 -1.3137
  170SOPE  H16S19222   0.412   5.909   8.401  1.3156 -1.0819 -0.8508
  170SOPE  C21719223   0.318   5.739   8.501  0.1892 -0.7284  0.4228
  170SOPE  H17R19224   0.318   5.796   8.596 -1.6737  0.3563 -0.2181
  170SOPE  H17S19225   0.406   5.671   8.494 -1.3768 -3.0310  2.2323
  170SOPE  C21819226   0.203   5.643   8.494  0.5134 -0.0806  0.0661
  170SOPE  H18R19227   0.207   5.574   8.581  0.0695  0.0347  0.1782
  170SOPE  H18S19228   0.210   5.574   8.408 -0.1393 -0.7059  0.4978
  170SOPE  H18T19229   0.109   5.702   8.492 -1.4487 -3.0878 -0.6122
  170SOPE   C3319230  -0.180   5.737   6.933  0.7175  0.4247  0.4348
  170SOPE   H3X19231  -0.199   5.646   6.872  0.6178 -1.6677  3.4830
  170SOPE   H3Y19232  -0.228   5.718   7.032 -0.0093 -1.6540 -0.2792
  170SOPE   C3419233  -0.029   5.736   6.978 -0.7957  0.0557 -0.1875
  170SOPE   H4X19234   0.038   5.742   6.890 -0.8200 -1.0654 -0.2927
  170SOPE   H4Y19235  -0.003   5.643   7.033 -0.6723  0.3574  0.2690
  170SOPE   C3519236  -0.000   5.857   7.076  0.1721  0.0330  0.5609
  170SOPE   H5X19237  -0.013   5.952   7.020 -0.8801  0.5928  1.7435
  170SOPE   H5Y19238   0.105   5.851   7.112 -0.4327 -0.8804  2.2152
  170SOPE   C3619239  -0.082   5.862   7.202 -0.1433  0.5482  0.8872
  170SOPE   H6X19240  -0.183   5.902   7.181  0.0296  0.6659  0.2929
  170SOPE   H6Y19241  -0.035   5.928   7.279 -0.7686  2.9153 -0.7138
  170SOPE   C3719242  -0.101   5.724   7.274  0.4239  0.0131 -0.9607
  170SOPE   H7X19243  -0.005   5.674   7.250  1.5542  1.6434  0.0605
  170SOPE   H7Y19244  -0.175   5.652   7.234 -0.6519  0.9007 -0.6102
  170SOPE   C3819245  -0.129   5.717   7.428  0.3711  0.2306  0.0042
  170SOPE   H8X19246  -0.033   5.711   7.483  1.0457 -0.3377 -1.2333
  170SOPE   H8Y19247  -0.173   5.618   7.454  1.8004  0.2877  2.7783
  170SOPE   C3919248  -0.216   5.832   7.478 -0.1098 -0.5528  0.8189
  170SOPE   H9X19249  -0.306   5.839   7.413 -0.7724 -1.1170  1.6686
  170SOPE   H9Y19250  -0.154   5.919   7.448 -0.0670 -0.9923 -0.3928
  170SOPE  C31019251  -0.268   5.841   7.625  0.2547  0.4253  0.1835
  170SOPE  H10X19252  -0.325   5.746   7.629  2.1784 -0.8491 -1.6223
  170SOPE  H10Y19253  -0.332   5.930   7.642  1.3510  0.9516  1.6967
  170SOPE  C31119254  -0.159   5.834   7.737 -0.7620 -0.4129 -0.3166
  170SOPE  H11X19255  -0.060   5.873   7.706 -0.5193  0.5652  1.6165
  170SOPE  H11Y19256  -0.137   5.728   7.763  0.1662 -0.0339  0.4473
  170SOPE  C31219257  -0.192   5.895   7.868  0.8720 -0.8390  0.1036
  170SOPE  H12X19258  -0.294   5.859   7.892  1.2245 -1.1125  1.1960
  170SOPE  H12Y19259  -0.198   6.006   7.868 -1.4813 -0.9179 -1.5145
  170SOPE  C31319260  -0.104   5.848   7.990  0.2354  0.2760 -0.2194
  170SOPE  H13X19261  -0.008   5.894   7.960 -0.4257  1.3046 -0.7972
  170SOPE  H13Y19262  -0.086   5.738   7.991 -3.2320 -0.3565 -0.8133
  170SOPE  C31419263  -0.174   5.892   8.124 -0.6208 -0.2062  0.0250
  170SOPE  H14X19264  -0.270   5.838   8.134 -1.0071  0.3750 -0.5273
  170SOPE  H14Y19265  -0.186   6.001   8.108  0.2243 -0.1545 -0.3029
  170SOPE  C31519266  -0.081   5.885   8.245 -0.1540  0.4066  0.5806
  170SOPE  H15X19267   0.007   5.951   8.232  0.4207 -0.6918 -1.3017
  170SOPE  H15Y19268  -0.051   5.780   8.266 -1.2080  0.3404  1.8325
  170SOPE  C31619269  -0.150   5.943   8.373 -0.6074  0.2429 -0.4561
  170SOPE  H16X19270  -0.193   6.043   8.347  0.1442  1.2718  2.0846
  170SOPE  H16Y19271  -0.067   5.957   8.445 -1.8999  0.4181  1.0311
  170SOPE  C31719272  -0.260   5.848   8.433 -0.2242 -0.2410 -0.4672
  170SOPE  H17X19273  -0.198   5.757   8.446 -1.3278 -0.7066  1.8146
  170SOPE  H17Y19274  -0.351   5.836   8.370 -1.6431 -0.1239  1.4959
  170SOPE  C31819275  -0.300   5.889   8.577  0.1253  0.3234  0.5160
  170SOPE  H18X19276  -0.373   5.811   8.609 -0.5277  0.8846  0.4046
  170SOPE  H18Y19277  -0.346   5.990   8.580  1.9973  1.3986 -3.7984
  170SOPE  H18Z19278  -0.207   5.892   8.638  0.0899 -0.0313  0.5914
  171SOPE     N19279   0.451   2.616   6.219 -0.5011  0.0245 -0.4276
  171SOPE   HN119280   0.488   2.713   6.212 -0.4546 -0.0144 -0.7215
  171SOPE   HN219281   0.489   2.570   6.134  2.0686  1.0985  0.0908
  171SOPE   HN319282   0.347   2.623   6.218 -0.7106 -2.5894 -1.7481
  171SOPE   C1219283   0.496   2.557   6.350  0.3712 -0.3889  0.2374
  171SOPE  H12A19284   0.469   2.450   6.363 -1.2889 -0.1742 -1.1129
  171SOPE  H12B19285   0.440   2.603   6.434 -1.5279 -1.9158 -0.1552
  171SOPE   C1119286   0.645   2.566   6.367 -0.0170 -0.1317  0.0849
  171SOPE  H11A19287   0.670   2.540   6.472  0.1578  1.5629  0.4830
  171SOPE  H11B19288   0.665   2.674   6.349  0.2438  0.1569  2.0346
  171SOPE     P19289   0.859   2.442   6.296  0.5301 -0.2234 -0.1842
  171SOPE   O1319290   0.912   2.546   6.388 -0.4569  0.1903  0.1520
  171SOPE   O1419291   0.924   2.422   6.165  0.2904  0.3505  0.1063
  171SOPE   O1219292   0.711   2.478   6.273 -0.2757 -0.2202 -0.5523
  171SOPE   O1119293   0.851   2.305   6.369 -0.0604 -0.4576 -0.1938
  171SOPE    C119294   0.814   2.183   6.308  0.2239 -0.2040 -0.2811
  171SOPE    HA19295   0.879   2.166   6.220 -0.6354 -0.9437 -0.7912
  171SOPE    HB19296   0.707   2.196   6.279  0.5271  1.7950 -0.5463
  171SOPE    C219297   0.820   2.064   6.413  0.1168 -0.1469 -0.0384
  171SOPE    HS19298   0.777   1.970   6.372  0.8894 -0.7653  0.5435
  171SOPE   O2119299   0.759   2.114   6.538 -0.4068  0.1443 -0.1097
  171SOPE   C2119300   0.693   2.019   6.602  0.4741 -0.1862 -0.4363
  171SOPE   O2219301   0.680   1.905   6.572 -0.5413  0.6163 -0.7727
  171SOPE   C2219302   0.634   2.082   6.733  0.4688 -0.2915  0.7389
  171SOPE   H2R19303   0.578   2.174   6.706 -1.7546 -1.6539  0.5515
  171SOPE   H2S19304   0.716   2.101   6.806  1.5539 -0.1124 -0.5266
  171SOPE    C319305   0.971   2.037   6.440  1.0313 -0.4270  0.3738
  171SOPE    HX19306   1.025   2.126   6.478  0.7069  0.6574 -1.6126
  171SOPE    HY19307   1.021   2.030   6.341 -0.5245  1.0640 -0.5530
  171SOPE   O3119308   1.001   1.917   6.505  1.3588  0.1927 -0.3133
  171SOPE   C3119309   1.036   1.932   6.632 -0.4488  0.5380  0.6712
  171SOPE   O3219310   1.051   2.039   6.691  0.6156  0.2069 -0.3452
  171SOPE   C3219311   1.065   1.797   6.700 -0.4481  0.7357 -0.7104
  171SOPE   H2X19312   1.175   1.789   6.719 -0.6290 -2.4683 -0.8622
  171SOPE   H2Y19313   1.028   1.702   6.656  0.9215 -0.7592  1.2790
  171SOPE   C2319314   0.526   1.986   6.799 -0.1160  0.3773  0.2701
  171SOPE   H3R19315   0.596   1.918   6.852  0.5848 -0.6271 -1.9206
  171SOPE   H3S19316   0.465   1.924   6.731 -0.7739  1.7365 -0.3991
  171SOPE   C2419317   0.436   2.047   6.909 -0.7929  0.2826 -0.2017
  171SOPE   H4R19318   0.399   2.141   6.862 -1.1355  1.3175  2.1154
  171SOPE   H4S19319   0.349   1.986   6.942 -1.1076 -0.0271 -1.5679
  171SOPE   C2519320   0.524   2.072   7.027 -0.1803  0.1459 -0.1963
  171SOPE   H5R19321   0.535   1.974   7.077 -0.6915  0.3685  0.3613
  171SOPE   H5S19322   0.630   2.101   7.009 -0.2266  0.7735  0.5019
  171SOPE   C2619323   0.466   2.168   7.133 -0.3768 -0.5251 -0.1591
  171SOPE   H6R19324   0.455   2.261   7.074  1.1812 -0.6396 -0.6634
  171SOPE   H6S19325   0.370   2.119   7.160 -1.0960 -0.1971 -2.0600
  171SOPE   C2719326   0.548   2.184   7.266  0.0451 -1.2330  0.2595
  171SOPE   H7R19327   0.651   2.213   7.238  0.7384 -3.2283  0.6894
  171SOPE   H7S19328   0.502   2.264   7.328  3.2561  0.3032  0.7577
  171SOPE   C2819329   0.566   2.048   7.345  0.0556  0.2202  0.8107
  171SOPE   H8R19330   0.603   1.968   7.278  0.1122  0.5087  0.4949
  171SOPE   H8S19331   0.651   2.062   7.415  0.5584 -0.6774  0.3866
  171SOPE   C2919332   0.438   2.010   7.421 -0.0803 -0.4427 -0.1641
  171SOPE   H9119333   0.397   2.087   7.488  1.5041 -1.0208  1.5053
  171SOPE  C21019334   0.376   1.893   7.421 -0.5384 -0.7922  0.3793
  171SOPE  H10119335   0.288   1.874   7.483  0.1493  0.8250  1.9122
  171SOPE  C21119336   0.416   1.771   7.337  0.4230 -0.4207 -0.0024
  171SOPE  H11R19337   0.417   1.679   7.400 -2.5769 -0.6139 -0.1714
  171SOPE  H11S19338   0.520   1.768   7.296 -0.1711 -0.6216 -1.5346
  171SOPE  C21219339   0.346   1.736   7.202  0.2391 -0.1819  0.2536
  171SOPE  H12R19340   0.387   1.819   7.140 -2.5935  0.1882 -1.2071
  171SOPE  H12S19341   0.238   1.757   7.212 -0.2753 -1.3359 -2.3814
  171SOPE  C21319342   0.367   1.597   7.142 -0.3509  0.9343  0.1378
  171SOPE  H13R19343   0.334   1.517   7.212 -2.0337  0.6722 -0.9212
  171SOPE  H13S19344   0.478   1.592   7.138 -0.3492 -0.2462  1.2624
  171SOPE  C21419345   0.327   1.567   6.999 -0.8101  0.3719  0.5233
  171SOPE  H14R19346   0.218   1.571   6.983 -0.6125  2.3090 -0.4127
  171SOPE  H14S19347   0.365   1.465   6.974 -0.8926  0.7166 -1.0643
  171SOPE  C21519348   0.399   1.663   6.902 -0.5353  0.0137  0.5413
  171SOPE  H15R19349   0.509   1.646   6.911 -0.4240  0.6185  0.3476
  171SOPE  H15S19350   0.379   1.769   6.931 -0.9763  0.0071  0.2576
  171SOPE  C21619351   0.375   1.648   6.751 -0.4334 -0.3934 -0.0982
  171SOPE  H16R19352   0.399   1.543   6.727  1.2193 -1.0207  3.9607
  171SOPE  H16S19353   0.446   1.718   6.702  2.0173 -1.9411  1.1592
  171SOPE  C21719354   0.235   1.685   6.711  0.4045  0.1075  0.2454
  171SOPE  H17R19355   0.198   1.782   6.748 -1.3635  0.3472 -2.0461
  171SOPE  H17S19356   0.171   1.608   6.758 -2.3803 -1.0194 -4.9246
  171SOPE  C21819357   0.218   1.671   6.558 -0.0009  0.3564 -0.2972
  171SOPE  H18R19358   0.117   1.702   6.525 -0.6710 -0.7484  0.7046
  171SOPE  H18S19359   0.248   1.571   6.519  0.7844  0.1939  0.6930
  171SOPE  H18T19360   0.273   1.750   6.502  1.6387 -0.7736 -0.3105
  171SOPE   C3319361   1.011   1.789   6.842 -0.4021  0.3705 -0.1999
  171SOPE   H3X19362   1.053   1.865   6.910 -0.2963 -1.6756  2.0943
  171SOPE   H3Y19363   1.046   1.695   6.890 -0.5179  0.0057 -0.8207
  171SOPE   C3419364   0.850   1.791   6.859  0.2932  0.3996 -0.1777
  171SOPE   H4X19365   0.789   1.744   6.779 -0.2749 -1.3936  1.2828
  171SOPE   H4Y19366   0.827   1.898   6.877 -1.5797  0.1005 -0.7003
  171SOPE   C3519367   0.817   1.695   6.975 -0.4511  0.3621 -0.2919
  171SOPE   H5X19368   0.854   1.591   6.963 -1.5498 -0.0206 -0.4633
  171SOPE   H5Y19369   0.707   1.699   6.993 -0.0104  0.6354  2.7422
  171SOPE   C3619370   0.879   1.740   7.102  0.3353 -0.1563  0.1135
  171SOPE   H6X19371   0.839   1.842   7.119 -0.2524 -0.2494 -0.6910
  171SOPE   H6Y19372   0.989   1.744   7.113  0.4297 -0.1599 -0.7975
  171SOPE   C3719373   0.832   1.648   7.222  0.1441 -0.0235 -0.4832
  171SOPE   H7X19374   0.892   1.554   7.217 -4.4839 -3.2567  1.0538
  171SOPE   H7Y19375   0.728   1.616   7.203 -0.4687  3.1718 -2.7973
  171SOPE   C3819376   0.834   1.700   7.366  0.6144 -0.6610 -0.3191
  171SOPE   H8X19377   0.764   1.786   7.375  3.1121  1.3069  0.6163
  171SOPE   H8Y19378   0.933   1.743   7.391  0.6739 -0.7637 -0.3810
  171SOPE   C3919379   0.796   1.595   7.478  0.2096 -0.1810  0.1385
  171SOPE   H9X19380   0.882   1.525   7.485  1.4444  1.1984 -0.7678
  171SOPE   H9Y19381   0.711   1.531   7.449  1.4301 -2.7421  2.0515
  171SOPE  C31019382   0.759   1.652   7.617  0.7227 -0.6414  0.1430
  171SOPE  H10X19383   0.651   1.676   7.623  0.9794 -0.1354  3.3490
  171SOPE  H10Y19384   0.815   1.747   7.632 -2.2946  0.6389  3.9402
  171SOPE  C31119385   0.812   1.567   7.726 -0.1142 -0.4766  0.1572
  171SOPE  H11X19386   0.921   1.554   7.707 -0.6593 -4.2798 -0.8015
  171SOPE  H11Y19387   0.775   1.463   7.712  2.4575 -1.3653 -0.2820
  171SOPE  C31219388   0.780   1.613   7.868  0.2270  0.7702 -0.0555
  171SOPE  H12X19389   0.675   1.648   7.879 -0.4749 -1.1507 -0.5409
  171SOPE  H12Y19390   0.840   1.706   7.882  0.8193  0.3631  0.1181
  171SOPE  C31319391   0.822   1.515   7.979 -0.0819  0.8330  0.0769
  171SOPE  H13X19392   0.919   1.470   7.950 -0.8791 -0.9932  0.1718
  171SOPE  H13Y19393   0.754   1.428   7.974 -0.0664  0.8806 -1.0132
  171SOPE  C31419394   0.833   1.579   8.110  0.0655  0.6888  0.1953
  171SOPE  H14X19395   0.736   1.626   8.137  0.2880  1.4642 -0.3221
  171SOPE  H14Y19396   0.899   1.667   8.094  0.6950  0.3060  0.6251
  171SOPE  C31519397   0.876   1.480   8.217  0.0145 -0.3962  0.0171
  171SOPE  H15X19398   0.985   1.462   8.211  0.1843  1.0556 -1.5724
  171SOPE  H15Y19399   0.823   1.386   8.191  1.5893 -2.3077  3.4118
  171SOPE  C31619400   0.854   1.535   8.359 -0.2847 -0.4583  0.0704
  171SOPE  H16X19401   0.754   1.579   8.379 -0.1171  0.3438 -0.7584
  171SOPE  H16Y19402   0.923   1.620   8.377  0.9090 -1.3263 -0.4015
  171SOPE  C31719403   0.867   1.432   8.466 -0.9310 -0.7550  0.2705
  171SOPE  H17X19404   0.879   1.483   8.563 -2.2391 -2.0585  1.1319
  171SOPE  H17Y19405   0.959   1.370   8.455 -0.4190 -0.6465  3.5533
  171SOPE  C31819406   0.752   1.329   8.467 -0.3404  0.0189  0.3767
  171SOPE  H18X19407   0.653   1.377   8.486 -0.7967  1.2218 -4.2888
  171SOPE  H18Y19408   0.767   1.249   8.542 -0.8570 -1.7959 -1.4356
  171SOPE  H18Z19409   0.762   1.279   8.368  0.6913  1.5415 -0.3155
  172SOPE     N19410   0.714   4.053   6.429  0.2632 -0.3626 -0.3533
  172SOPE   HN119411   0.729   4.117   6.349 -0.8835  0.9191  0.4264
  172SOPE   HN219412   0.766   3.963   6.418  0.1348 -0.7373  1.8416
  172SOPE   HN319413   0.615   4.027   6.450  0.0857  2.5354  2.9037
  172SOPE   C1219414   0.760   4.113   6.561 -0.1108  0.5792 -0.2568
  172SOPE  H12A19415   0.689   4.089   6.643 -0.3147  2.1652  0.0543
  172SOPE  H12B19416   0.759   4.224   6.552  3.3106  0.6631 -0.3239
  172SOPE   C1119417   0.906   4.071   6.613  0.1890 -0.4393  0.8354
  172SOPE  H11A19418   0.909   3.960   6.624  3.0683 -0.3022  2.1572
  172SOPE  H11B19419   0.922   4.111   6.716 -0.8556  0.0356  0.8198
  172SOPE     P19420   1.150   4.033   6.522  0.1558 -0.1499  0.0250
  172SOPE   O1319421   1.246   4.118   6.451 -0.2591 -0.2456 -0.3664
  172SOPE   O1419422   1.139   3.891   6.487  0.3135  0.6802 -0.0922
  172SOPE   O1219423   1.004   4.102   6.514 -0.1178 -0.2950  0.8029
  172SOPE   O1119424   1.194   4.054   6.667 -0.5400  0.2548 -0.2094
  172SOPE    C119425   1.209   4.177   6.736  0.0980  0.0895  1.0586
  172SOPE    HA19426   1.119   4.191   6.799  0.8694 -0.0248  2.2029
  172SOPE    HB19427   1.201   4.266   6.670 -0.3733 -0.3195  0.5621
  172SOPE    C219428   1.328   4.179   6.836  0.7541  0.0024 -0.0639
  172SOPE    HS19429   1.418   4.146   6.780  0.6146  0.1372 -0.3663
  172SOPE   O2119430   1.306   4.078   6.936  0.3114  0.0790  0.3763
  172SOPE   C2119431   1.213   4.092   7.030  0.2552 -0.8136 -0.0648
  172SOPE   O2219432   1.125   4.175   7.042  0.3897  0.4030 -0.4349
  172SOPE   C2219433   1.222   3.973   7.128 -0.3535 -1.3582 -0.4789
  172SOPE   H2R19434   1.132   3.970   7.193  0.1323 -2.1917  0.1702
  172SOPE   H2S19435   1.307   3.982   7.200 -1.1324  0.2826  0.2699
  172SOPE    C319436   1.353   4.327   6.889 -0.3937 -0.3998 -0.3838
  172SOPE    HX19437   1.255   4.381   6.891  0.2542  0.7713  0.2945
  172SOPE    HY19438   1.406   4.377   6.805  1.7005  0.8068  1.5900
  172SOPE   O3119439   1.418   4.333   7.018 -0.1401 -0.3272 -0.2881
  172SOPE   C3119440   1.547   4.340   7.017  0.6722  0.7957 -0.2275
  172SOPE   O3219441   1.621   4.310   6.924 -0.0740 -0.1606  0.1571
  172SOPE   C3219442   1.581   4.387   7.158  0.2861 -0.5720  0.9111
  172SOPE   H2X19443   1.491   4.414   7.218  0.0699 -0.4059  0.5127
  172SOPE   H2Y19444   1.654   4.469   7.148 -1.0797  0.4778 -0.8017
  172SOPE   C2319445   1.237   3.831   7.064 -0.1534  0.6326 -0.1907
  172SOPE   H3R19446   1.295   3.839   6.969 -1.3011  0.0332 -0.9554
  172SOPE   H3S19447   1.140   3.790   7.030  0.5099  0.5696 -2.0829
  172SOPE   C2419448   1.298   3.725   7.156 -0.0392 -0.1553  0.0356
  172SOPE   H4R19449   1.278   3.633   7.097 -0.8840 -0.5423  0.9119
  172SOPE   H4S19450   1.408   3.730   7.168  0.1297 -1.7133 -0.6329
  172SOPE   C2519451   1.234   3.715   7.293 -0.1148 -0.0783 -0.1016
  172SOPE   H5R19452   1.266   3.799   7.360 -2.1750  0.8292 -0.2181
  172SOPE   H5S19453   1.124   3.718   7.279 -0.3483  1.1718  1.7293
  172SOPE   C2619454   1.276   3.586   7.369 -0.5084 -0.2760 -0.0533
  172SOPE   H6R19455   1.197   3.572   7.446 -1.5326  0.2502 -1.0005
  172SOPE   H6S19456   1.266   3.503   7.297  2.7193  0.1175 -1.0202
  172SOPE   C2719457   1.417   3.594   7.428 -0.5848 -0.2250  0.0924
  172SOPE   H7R19458   1.493   3.601   7.347 -2.2228  0.4820 -1.4051
  172SOPE   H7S19459   1.427   3.679   7.500 -1.0612  0.5846 -0.7944
  172SOPE   C2819460   1.451   3.470   7.508 -0.9879  0.3008  0.7314
  172SOPE   H8R19461   1.357   3.432   7.552 -0.7333 -2.7878 -1.2842
  172SOPE   H8S19462   1.483   3.387   7.442  0.7455  0.4218  1.3918
  172SOPE   C2919463   1.573   3.485   7.603  0.0803  0.0629  0.3506
  172SOPE   H9119464   1.664   3.520   7.552  0.3582 -0.0766  0.7482
  172SOPE  C21019465   1.578   3.462   7.733  0.5974  0.1471 -0.0853
  172SOPE  H10119466   1.667   3.492   7.792  1.0975  1.1461 -1.3282
  172SOPE  C21119467   1.453   3.429   7.806 -0.2919 -0.0717  0.3175
  172SOPE  H11R19468   1.365   3.474   7.756  0.1999  0.1059 -0.3945
  172SOPE  H11S19469   1.457   3.487   7.900  0.3108  1.7791 -0.8320
  172SOPE  C21219470   1.436   3.279   7.824 -0.5912  0.4796  0.2885
  172SOPE  H12R19471   1.524   3.237   7.877  0.4019  0.8474 -1.0461
  172SOPE  H12S19472   1.428   3.217   7.732 -0.4816 -0.5582  0.9671
  172SOPE  C21319473   1.316   3.242   7.913 -0.1170  1.2655  0.2378
  172SOPE  H13R19474   1.307   3.132   7.927  4.2861  0.6723 -0.9405
  172SOPE  H13S19475   1.219   3.269   7.866 -0.2491 -1.6149 -1.2400
  172SOPE  C21419476   1.339   3.279   8.061 -0.1269  0.6391  0.1935
  172SOPE  H14R19477   1.242   3.265   8.113  0.1553 -0.4761  0.4378
  172SOPE  H14S19478   1.379   3.381   8.080  1.8128 -0.5423  2.7332
  172SOPE  C21519479   1.431   3.176   8.135  0.1397  0.0780  0.1058
  172SOPE  H15R19480   1.414   3.079   8.083 -0.7489  0.4426 -0.3011
  172SOPE  H15S19481   1.386   3.163   8.235 -0.9058 -0.1675 -0.3979
  172SOPE  C21619482   1.590   3.215   8.158  0.1198 -0.3004  0.0560
  172SOPE  H16R19483   1.593   3.316   8.203  1.2700 -0.3152  0.0297
  172SOPE  H16S19484   1.648   3.215   8.063 -0.6394  1.3544 -0.4163
  172SOPE  C21719485   1.652   3.132   8.272  0.0994 -0.2222  0.1777
  172SOPE  H17R19486   1.634   3.025   8.247  0.2969  0.2587 -2.1431
  172SOPE  H17S19487   1.589   3.136   8.363  2.8981 -0.7915  2.2154
  172SOPE  C21819488   1.799   3.174   8.302  0.6840 -0.0404  0.0428
  172SOPE  H18R19489   1.871   3.138   8.225 -1.6555  1.7022 -3.0749
  172SOPE  H18S19490   1.838   3.136   8.399 -1.2013 -1.5363  0.2414
  172SOPE  H18T19491   1.802   3.285   8.306 -0.5279  0.0074 -0.2548
  172SOPE   C3319492   1.643   4.274   7.248  0.8627 -0.7219 -0.1099
  172SOPE   H3X19493   1.743   4.252   7.204  1.6191  0.9492  0.7273
  172SOPE   H3Y19494   1.582   4.181   7.247 -1.4513  0.7419  0.2919
  172SOPE   C3419495   1.660   4.308   7.391  0.4388  0.6290 -0.2882
  172SOPE   H4X19496   1.717   4.403   7.404  0.0591  0.5653  2.0263
  172SOPE   H4Y19497   1.720   4.224   7.433 -0.9638  0.7330  1.9578
  172SOPE   C3519498   1.526   4.320   7.463  0.0682 -0.5110 -1.0323
  172SOPE   H5X19499   1.464   4.229   7.449  2.2884 -2.1686 -0.3319
  172SOPE   H5Y19500   1.463   4.403   7.426  0.0461  0.5629  1.2974
  172SOPE   C3619501   1.557   4.340   7.613  0.6185  0.2016 -0.4435
  172SOPE   H6X19502   1.584   4.447   7.631 -0.0149  0.1171  0.9768
  172SOPE   H6Y19503   1.644   4.277   7.642  1.0062 -0.1019 -2.1569
  172SOPE   C3719504   1.434   4.316   7.703  0.4458 -0.1248 -0.0657
  172SOPE   H7X19505   1.421   4.207   7.719 -0.1260 -0.0924 -0.2941
  172SOPE   H7Y19506   1.349   4.363   7.649  0.7817  1.0405  0.3909
  172SOPE   C3819507   1.469   4.373   7.843  0.1684 -0.3141  0.1581
  172SOPE   H8X19508   1.499   4.479   7.832  0.9797 -0.3313  2.0814
  172SOPE   H8Y19509   1.560   4.325   7.887 -0.1387  0.8464  2.1216
  172SOPE   C3919510   1.355   4.345   7.941 -0.7835 -0.8876 -0.3696
  172SOPE   H9X19511   1.261   4.394   7.908 -1.1148 -1.1856  0.1236
  172SOPE   H9Y19512   1.380   4.394   8.038  0.9844 -0.5241 -0.9803
  172SOPE  C31019513   1.334   4.195   7.956 -0.0223  0.0852  0.6459
  172SOPE  H10X19514   1.426   4.133   7.963 -0.3752 -0.4067  0.8761
  172SOPE  H10Y19515   1.286   4.164   7.861 -0.6494  1.5476  0.4673
  172SOPE  C31119516   1.247   4.153   8.082  0.2060  0.3238  0.4812
  172SOPE  H11X19517   1.304   4.193   8.168  0.5806 -2.2962  1.4948
  172SOPE  H11Y19518   1.239   4.044   8.099  0.9227  0.3348  0.9329
  172SOPE  C31219519   1.101   4.207   8.079 -0.0375 -0.1320  0.7299
  172SOPE  H12X19520   1.053   4.187   7.981 -1.1372 -1.0102  1.4374
  172SOPE  H12Y19521   1.111   4.317   8.090 -0.9608  0.0911 -0.5194
  172SOPE  C31319522   1.012   4.151   8.189 -0.2163  0.6244 -0.8099
  172SOPE  H13X19523   1.016   4.040   8.184  2.6781  0.6423  0.0461
  172SOPE  H13Y19524   0.905   4.176   8.176  0.1526  2.2810 -0.7114
  172SOPE  C31419525   1.050   4.172   8.342  0.0196  0.1450 -1.1227
  172SOPE  H14X19526   1.044   4.279   8.370  1.2314  0.4726 -2.0870
  172SOPE  H14Y19527   1.158   4.149   8.358 -0.5166 -1.6450  0.1339
  172SOPE  C31519528   0.969   4.081   8.426 -0.3280  0.8724 -0.7200
  172SOPE  H15X19529   0.961   3.971   8.410  2.1006  0.1545  2.4729
  172SOPE  H15Y19530   0.863   4.112   8.415 -1.1148 -0.9909  1.0630
  172SOPE  C31619531   0.999   4.095   8.575  0.1553 -0.2683  0.2222
  172SOPE  H16X19532   1.003   4.206   8.587  0.3071 -0.0330 -1.8840
  172SOPE  H16Y19533   1.098   4.048   8.594  0.1331 -1.0921 -1.6320
  172SOPE  C31719534   0.898   4.028   8.666  1.0377 -0.5788 -0.6409
  172SOPE  H17X19535   0.911   3.918   8.663 -0.6981 -0.8287  0.4716
  172SOPE  H17Y19536   0.801   4.076   8.643  1.4740  0.9541  0.6734
  172SOPE  C31819537   0.922   4.072   8.814 -0.4618  0.0345 -0.1063
  172SOPE  H18X19538   0.892   4.179   8.808 -1.9101 -0.4389 -1.4017
  172SOPE  H18Y19539   1.030   4.067   8.838 -0.2480  0.2258 -1.0088
  172SOPE  H18Z19540   0.871   4.019   8.898 -0.2428 -2.1829 -1.3412
  173SAPI   C1219541   2.624   1.256  10.998 -0.6200  1.0369  0.2279
  173SAPI    H219542   2.572   1.354  10.990 -1.5856  0.4992 -0.1459
  173SAPI    O219543   2.665   1.241  11.134  0.5640 -0.4435  0.1387
  173SAPI   HO219544   2.685   1.327  11.171 -0.7954 -0.1796  0.2846
  173SAPI   C1319545   2.516   1.149  10.964  0.0781  0.3447  0.3162
  173SAPI    H319546   2.487   1.177  10.861  0.2209 -1.5514 -0.2548
  173SAPI    O319547   2.400   1.164  11.044  0.0975 -0.0004  0.6467
  173SAPI   HO319548   2.341   1.223  10.997  3.1090  0.9081 -2.1120
  173SAPI   C1419549   2.576   1.015  10.979 -0.2999 -0.0690 -0.2207
  173SAPI    H419550   2.609   0.994  11.083  0.3960  1.6680 -0.0743
  173SAPI    O419551   2.477   0.911  10.940 -0.4186  0.0991 -0.0240
  173SAPI   HO419552   2.454   0.918  10.847  2.4717  0.8196 -0.7149
  173SAPI   C1519553   2.697   1.003  10.889  0.4757 -0.0959  0.2468
  173SAPI    H519554   2.658   1.022  10.787  0.6971  0.8482  0.3343
  173SAPI    O519555   2.753   0.871  10.901  0.6414  0.3784  0.1115
  173SAPI   HO519556   2.782   0.863  10.992 -2.7485 -1.2736  1.1239
  173SAPI   C1619557   2.803   1.111  10.919  0.2729 -0.7160  0.7505
  173SAPI    H619558   2.841   1.089  11.021  0.0250  2.4080  1.5596
  173SAPI    O619559   2.912   1.094  10.826  0.8331 -0.7479  0.1958
  173SAPI   HO619560   2.965   1.024  10.864 -1.3818 -2.7951 -0.3354
  173SAPI   C1119561   2.754   1.255  10.915  0.0107  0.5745  0.2108
  173SAPI    H119562   2.737   1.266  10.806  1.2463  2.3691  0.1755
  173SAPI     P19563   2.878   1.496  10.878 -0.0523 -0.1452 -0.3655
  173SAPI   O1319564   2.887   1.605  10.976 -0.2364  0.6752 -0.6618
  173SAPI   O1419565   2.775   1.506  10.768 -0.0448 -1.0110 -0.0338
  173SAPI   O1219566   2.850   1.352  10.954 -0.0880 -0.4926 -0.0239
  173SAPI   O1119567   3.025   1.464  10.814  0.1131  0.0649  0.3799
  173SAPI    C119568   3.024   1.370  10.698  0.2392 -0.5167 -0.5918
  173SAPI    HA19569   3.092   1.285  10.716  0.5344 -0.0298  0.6299
  173SAPI    HB19570   2.921   1.330  10.685 -1.4062  2.2673  2.6801
  173SAPI    C219571   3.058   1.430  10.557 -0.0082  0.4095  0.1248
  173SAPI    HS19572   3.166   1.452  10.550 -0.1227  0.7889 -0.5589
  173SAPI   O2119573   2.979   1.549  10.542 -0.3390  0.1621  0.1778
  173SAPI   C2119574   3.039   1.665  10.511  0.5651  0.5734  0.2576
  173SAPI   O2219575   3.158   1.673  10.485  0.0103  0.5179  0.2562
  173SAPI   C2219576   2.934   1.779  10.510  0.5341  0.5171  0.0064
  173SAPI   H2R19577   2.837   1.749  10.466  1.2989  1.3133 -2.3529
  173SAPI   H2S19578   2.904   1.788  10.616  1.8035  0.2594  0.3950
  173SAPI    C319579   3.023   1.323  10.445  0.0230 -0.3918 -0.2661
  173SAPI    HX19580   2.916   1.294  10.438  0.6527 -2.5141 -1.4650
  173SAPI    HY19581   3.064   1.228  10.485  1.3898 -0.0235 -0.7670
  173SAPI   O3119582   3.065   1.362  10.316 -0.1579  0.1545  0.1258
  173SAPI   C3119583   3.196   1.350  10.301 -0.1137 -0.3524 -0.3622
  173SAPI   O3219584   3.270   1.294  10.378  0.2570 -0.0158  0.0152
  173SAPI   C3219585   3.232   1.418  10.171  0.4794 -0.2483 -1.0462
  173SAPI   H2X19586   3.338   1.450  10.161  0.2862  0.7727  0.0924
  173SAPI   H2Y19587   3.163   1.502  10.153  1.5904  0.6223 -1.3183
  173SAPI   C2319588   2.989   1.906  10.443  0.2787 -0.2453  0.1578
  173SAPI   H3R19589   3.084   1.928  10.496  0.9137 -1.6996 -0.3448
  173SAPI   H3S19590   2.919   1.992  10.451 -1.3602 -1.4103 -1.4561
  173SAPI   C2419591   3.033   1.900  10.299  0.0360  0.3478 -0.8080
  173SAPI   H4R19592   2.955   1.846  10.240 -1.1217 -0.6389  1.5652
  173SAPI   H4S19593   3.118   1.829  10.294  0.2867  0.6682 -1.1192
  173SAPI   C2519594   3.067   2.026  10.229 -0.3352 -0.1345  0.0464
  173SAPI   H5R19595   3.171   2.060  10.240 -0.5722  1.0811 -1.3086
  173SAPI   C2619596   2.983   2.091  10.152 -0.0982 -0.4149  0.4127
  173SAPI   H6R19597   3.022   2.179  10.098 -0.9008 -1.6805 -2.3103
  173SAPI   C2719598   2.849   2.054  10.122 -0.0075  0.6621 -0.0837
  173SAPI   H7R19599   2.791   2.069  10.216  0.0153  1.0207 -0.1241
  173SAPI   H7S19600   2.842   1.944  10.112 -0.3947  0.7965 -1.3394
  173SAPI   C2819601   2.793   2.105  10.001  0.1975  0.0695 -0.4637
  173SAPI   H8R19602   2.687   2.130  10.018  0.3448 -0.1201  0.7338
  173SAPI   C2919603   2.844   2.106   9.878 -0.0896  0.0288 -0.5980
  173SAPI   H9R19604   2.773   2.139   9.800 -1.5375 -0.7301  0.3674
  173SAPI  C21019605   2.975   2.060   9.826  0.7663  0.0495 -0.1286
  173SAPI  H10R19606   2.946   1.993   9.743  0.5327 -1.5793  1.2482
  173SAPI  H10S19607   3.022   1.991   9.899 -1.3281 -1.2427  0.0481
  173SAPI  C21119608   3.061   2.178   9.784 -0.1046  1.5040 -0.3137
  173SAPI  H11R19609   3.065   2.257   9.860  2.2211 -0.3332  1.5722
  173SAPI  C21219610   3.135   2.198   9.669  0.5555  0.7910 -0.3833
  173SAPI  H12R19611   3.189   2.294   9.666 -0.1937  1.2173 -0.4156
  173SAPI  C21319612   3.139   2.108   9.542  0.3149  0.8103 -0.3773
  173SAPI  H13R19613   3.058   2.032   9.531  0.4942  0.8977 -2.6818
  173SAPI  H13S19614   3.229   2.044   9.534 -0.8206 -0.8248 -0.4131
  173SAPI  C21419615   3.113   2.200   9.428 -0.9000 -0.6262  0.2627
  173SAPI  H14R19616   3.018   2.255   9.431 -1.3053 -1.2150 -0.9962
  173SAPI  C21519617   3.200   2.217   9.325 -0.2849  0.5748 -0.5836
  173SAPI  H15R19618   3.176   2.278   9.237 -1.2800  1.2933  0.1555
  173SAPI  C21619619   3.339   2.152   9.307 -1.3875 -0.4321  0.3328
  173SAPI  H16R19620   3.384   2.116   9.402  2.5812  1.9506 -0.5238
  173SAPI  H16S19621   3.412   2.225   9.266  1.7808 -4.8224 -2.2706
  173SAPI  C21719622   3.345   2.033   9.209 -0.4419  0.0843  0.3103
  173SAPI  H17R19623   3.314   1.945   9.268 -0.1126  0.1152  0.5337
  173SAPI  H17S19624   3.455   2.029   9.189 -0.1282  0.9135  1.7770
  173SAPI  C21819625   3.257   2.043   9.082 -1.0133 -0.4495 -0.2207
  173SAPI  H18R19626   3.274   2.142   9.034 -0.1733 -0.2149  0.5428
  173SAPI  H18S19627   3.149   2.045   9.111 -0.6430  0.8017  1.1270
  173SAPI  C21919628   3.279   1.921   9.001  0.5096 -0.0607  0.1162
  173SAPI  H19R19629   3.260   1.831   9.063  0.1336  0.5083  0.8501
  173SAPI  H19S19630   3.382   1.909   8.960  0.0295  0.5901 -1.3092
  173SAPI  C22019631   3.176   1.918   8.892 -0.4108 -0.3904  0.2521
  173SAPI  H20R19632   3.180   1.829   8.826  1.9690  0.1574 -0.4158
  173SAPI  H20S19633   3.177   2.006   8.825  0.3957 -0.2595  0.4264
  173SAPI  H20T19634   3.075   1.905   8.935 -0.6012  1.4252  0.3699
  173SAPI   C3319635   3.197   1.316  10.059 -0.3219  0.4449 -0.4857
  173SAPI   H3X19636   3.088   1.296  10.053  0.3561 -3.4160 -1.4123
  173SAPI   H3Y19637   3.251   1.222  10.083 -0.5422  0.5402  0.4133
  173SAPI   C3419638   3.254   1.371   9.926  0.3883  0.2426  0.1270
  173SAPI   H4X19639   3.361   1.397   9.935  1.0197 -1.7918 -1.0002
  173SAPI   H4Y19640   3.192   1.461   9.904 -1.3922 -0.6563  1.2962
  173SAPI   C3519641   3.246   1.267   9.810  0.2077 -0.3318 -0.5825
  173SAPI   H5X19642   3.139   1.258   9.784 -0.5377  0.3215  2.0525
  173SAPI   H5Y19643   3.290   1.176   9.857  0.8094 -1.5108 -3.3774
  173SAPI   C3619644   3.330   1.300   9.684 -0.4831  0.4223 -0.2915
  173SAPI   H6X19645   3.429   1.332   9.723 -0.4019 -0.9084  0.6080
  173SAPI   H6Y19646   3.266   1.373   9.630 -1.4832 -0.0050  0.3007
  173SAPI   C3719647   3.350   1.189   9.582 -0.2934 -0.1934 -0.3136
  173SAPI   H7X19648   3.251   1.146   9.555 -0.4211 -0.9298  1.2916
  173SAPI   H7Y19649   3.402   1.107   9.634 -0.5899  1.0002  1.9562
  173SAPI   C3819650   3.421   1.232   9.457  0.8473  0.3616 -0.0540
  173SAPI   H8X19651   3.528   1.252   9.480  0.8198 -1.3990  1.7109
  173SAPI   H8Y19652   3.387   1.333   9.427 -1.4580 -0.0312  1.1602
  173SAPI   C3919653   3.425   1.126   9.344 -0.0595 -0.0059  0.0568
  173SAPI   H9X19654   3.327   1.087   9.311 -0.0698 -0.7628  0.9932
  173SAPI   H9Y19655   3.491   1.045   9.380 -0.8310 -1.2005 -1.1910
  173SAPI  C31019656   3.496   1.177   9.213 -0.0403 -1.1147  0.4626
  173SAPI  H10X19657   3.598   1.206   9.247 -0.5007 -2.8875  3.4608
  173SAPI  H10Y19658   3.438   1.259   9.164 -0.1564  0.3074  2.9209
  173SAPI  C31119659   3.508   1.077   9.098 -0.0418  0.0623  0.2785
  173SAPI  H11X19660   3.528   1.137   9.007  0.2553  0.0159  0.3112
  173SAPI  H11Y19661   3.413   1.026   9.071 -1.0703 -0.0268  3.7949
  173SAPI  C31219662   3.622   0.977   9.113 -0.2215  0.4078 -0.2950
  173SAPI  H12X19663   3.614   0.897   9.189  3.6358 -1.3077 -1.5713
  173SAPI  H12Y19664   3.706   1.036   9.154 -0.0916 -1.0065  1.5424
  173SAPI  C31319665   3.673   0.910   8.987  0.5606 -0.0492  0.1583
  173SAPI  H13X19666   3.729   0.822   9.026 -1.7027 -1.5346  0.2122
  173SAPI  H13Y19667   3.742   0.967   8.922 -0.0482 -0.7209 -1.1105
  173SAPI  C31419668   3.563   0.854   8.890 -0.2732  0.5997 -0.6166
  173SAPI  H14X19669   3.494   0.934   8.858 -2.0637 -0.4504  0.5129
  173SAPI  H14Y19670   3.496   0.791   8.953 -2.0413  1.9736 -1.0922
  173SAPI  C31519671   3.622   0.792   8.769  0.5837  0.7365  0.1214
  173SAPI  H15X19672   3.546   0.721   8.730 -1.5685  3.2169 -0.3576
  173SAPI  H15Y19673   3.716   0.740   8.796 -0.1725 -0.0759  1.2218
  173SAPI  C31619674   3.648   0.891   8.649  0.0719  0.0715 -0.3773
  173SAPI  H16X19675   3.720   0.973   8.671 -1.3671  0.9624  1.1405
  173SAPI  H16Y19676   3.558   0.949   8.619 -2.5001 -2.4625  2.1226
  173SAPI  C31719677   3.685   0.805   8.525 -0.2885  0.4496 -0.4836
  173SAPI  H17X19678   3.665   0.855   8.428  0.7099  0.0484 -0.8970
  173SAPI  H17Y19679   3.617   0.717   8.527  2.7493 -1.9935 -1.4941
  173SAPI  C31819680   3.825   0.745   8.525  0.0803  0.1386  0.1125
  173SAPI  H18X19681   3.836   0.677   8.612 -1.3171  1.0583  1.0206
  173SAPI  H18Y19682   3.904   0.823   8.531  0.4755 -0.0090 -2.6518
  173SAPI  H18Z19683   3.837   0.685   8.432 -1.6388  0.9949 -0.6819
  174SAPI   C1219684   6.803   1.962  10.817 -0.4402 -0.2756 -0.0828
  174SAPI    H219685   6.835   2.059  10.860  2.1880 -1.6561  1.2525
  174SAPI    O219686   6.766   1.984  10.678  0.0806  0.0930  0.0868
  174SAPI   HO219687   6.682   2.030  10.674 -0.4642 -1.0238 -1.7665
  174SAPI   C1319688   6.916   1.857  10.843 -0.3020  0.7534 -0.0089
  174SAPI    H319689   6.932   1.848  10.953 -1.0617  0.6241  0.0965
  174SAPI    O319690   7.037   1.900  10.791  0.4943 -0.5913  0.0654
  174SAPI   HO319691   7.072   1.850  10.717  0.7973 -1.7611  0.9877
  174SAPI   C1419692   6.874   1.720  10.794  0.6217 -0.6436  0.4523
  174SAPI    H419693   6.857   1.728  10.684 -1.4036 -1.6932  0.6615
  174SAPI    O419694   6.978   1.627  10.811  0.3471  0.8475  0.3719
  174SAPI   HO419695   7.012   1.605  10.724 -1.0452 -2.9433  0.6848
  174SAPI   C1519696   6.741   1.679  10.862  0.1078  0.0887  0.8661
  174SAPI    H519697   6.767   1.691  10.969 -1.3270  1.9332  1.0342
  174SAPI    O519698   6.705   1.547  10.826 -0.4412  0.2439  0.2187
  174SAPI   HO519699   6.782   1.495  10.853 -0.5795 -0.8940 -1.5268
  174SAPI   C1619700   6.637   1.784  10.840 -0.5844 -0.7469 -0.2966
  174SAPI    H619701   6.622   1.790  10.731  0.4713 -0.7967 -0.4519
  174SAPI    O619702   6.522   1.745  10.909 -0.3530  0.2934 -0.4921
  174SAPI   HO619703   6.520   1.651  10.924 -0.0612  0.4367  0.4730
  174SAPI   C1119704   6.684   1.924  10.897 -0.2891 -0.6359 -0.7701
  174SAPI    H119705   6.715   1.899  11.000 -0.5958 -1.8988 -0.9723
  174SAPI     P19706   6.599   2.166  10.978 -0.0668  0.2162 -0.0625
  174SAPI   O1319707   6.720   2.154  11.060  0.0713 -0.5473 -0.1757
  174SAPI   O1419708   6.469   2.204  11.042 -0.3392 -0.6977 -0.6447
  174SAPI   O1219709   6.575   2.018  10.899 -0.3391  0.0602  0.2240
  174SAPI   O1119710   6.637   2.264  10.861 -0.3174 -0.2808  0.7725
  174SAPI    C119711   6.549   2.362  10.806  0.1946  0.7395  0.1432
  174SAPI    HA19712   6.507   2.437  10.877  0.1177  1.7059 -0.9084
  174SAPI    HB19713   6.605   2.427  10.735  0.0139 -0.6164 -1.2558
  174SAPI    C219714   6.431   2.303  10.722  0.5982  0.1302 -0.1348
  174SAPI    HS19715   6.389   2.222  10.786  0.9188 -0.1369 -0.2636
  174SAPI   O2119716   6.491   2.261  10.594 -0.0914 -0.3799  0.1450
  174SAPI   C2119717   6.475   2.132  10.575 -0.7006 -0.1586 -0.4295
  174SAPI   O2219718   6.430   2.047  10.654  0.4191 -0.2641 -0.5939
  174SAPI   C2219719   6.517   2.097  10.434  0.6360 -0.1742  0.5456
  174SAPI   H2R19720   6.441   2.145  10.369  0.9350 -1.3008 -0.6354
  174SAPI   H2S19721   6.623   2.125  10.418  0.2505  0.5370 -0.8193
  174SAPI    C319722   6.319   2.409  10.698 -0.7548 -0.4329  0.4848
  174SAPI    HX19723   6.262   2.420  10.793 -1.1992  2.4980 -0.0965
  174SAPI    HY19724   6.248   2.373  10.621 -0.8657 -2.2655  1.4075
  174SAPI   O3119725   6.375   2.535  10.664  0.0431  0.2844 -0.1942
  174SAPI   C3119726   6.282   2.631  10.658  0.5863  0.0473  0.2364
  174SAPI   O3219727   6.162   2.615  10.683  0.1687  0.5698 -0.6045
  174SAPI   C3219728   6.350   2.752  10.595 -0.0956 -0.5465 -0.4769
  174SAPI   H2X19729   6.452   2.719  10.566 -1.3854 -4.1213 -1.2404
  174SAPI   H2Y19730   6.358   2.830  10.673 -0.3438 -0.9317 -0.0646
  174SAPI   C2319731   6.506   1.946  10.400 -0.5823  0.0411 -0.1411
  174SAPI   H3R19732   6.404   1.915  10.429 -0.3865  1.0337  1.7109
  174SAPI   H3S19733   6.573   1.892  10.470  0.8652 -1.1443 -2.3933
  174SAPI   C2419734   6.536   1.911  10.248  0.7285 -0.7293  0.2501
  174SAPI   H4R19735   6.469   1.959  10.174  0.1278  1.5800  2.1900
  174SAPI   H4S19736   6.503   1.806  10.240 -2.0290 -0.2555  4.0505
  174SAPI   C2519737   6.688   1.923  10.224 -0.5578  0.2281  0.1537
  174SAPI   H5R19738   6.751   1.863  10.292  0.5249 -0.5021 -1.4734
  174SAPI   C2619739   6.737   1.978  10.115 -0.2318 -0.1420 -0.5767
  174SAPI   H6R19740   6.845   1.973  10.095  0.7312  0.6068  4.0085
  174SAPI   C2719741   6.662   2.058  10.012  0.5433 -0.4426 -0.6076
  174SAPI   H7R19742   6.584   2.119  10.063 -0.6167 -1.6060 -0.9601
  174SAPI   H7S19743   6.598   1.996   9.945  0.1033 -1.5107  0.7660
  174SAPI   C2819744   6.754   2.151   9.934  0.0572  0.2151 -0.2034
  174SAPI   H8R19745   6.842   2.192   9.985  0.0372  1.1926 -0.9476
  174SAPI   C2919746   6.746   2.162   9.801 -0.8002 -0.3544 -0.6440
  174SAPI   H9R19747   6.820   2.227   9.751 -0.4503 -0.2283  0.0317
  174SAPI  C21019748   6.643   2.103   9.711  0.0758 -0.5735  0.2389
  174SAPI  H10R19749   6.549   2.063   9.757 -0.0757  0.5531  0.9118
  174SAPI  H10S19750   6.690   2.013   9.665 -1.8340 -0.5931 -1.8385
  174SAPI  C21119751   6.586   2.201   9.604  0.0823  0.4015 -0.1321
  174SAPI  H11R19752   6.532   2.288   9.643  0.2552  0.0687  0.8680
  174SAPI  C21219753   6.601   2.190   9.470  0.7826 -0.0607  0.1098
  174SAPI  H12R19754   6.560   2.276   9.416 -0.6055 -1.3845 -1.0153
  174SAPI  C21319755   6.667   2.083   9.391  0.1012 -0.6307  0.1442
  174SAPI  H13R19756   6.598   2.036   9.318 -0.2708  0.9858 -0.5648
  174SAPI  H13S19757   6.693   2.007   9.467 -2.1624 -1.3372  0.2485
  174SAPI  C21419758   6.802   2.123   9.324  0.7386  0.6482 -0.6053
  174SAPI  H14R19759   6.842   2.218   9.362 -1.5632  0.3773  2.7100
  174SAPI  C21519760   6.858   2.066   9.216  0.9157 -0.1170 -0.5725
  174SAPI  H15R19761   6.953   2.108   9.179 -0.3424  0.9977 -2.6558
  174SAPI  C21619762   6.801   1.958   9.132 -0.4006 -0.0023  0.8153
  174SAPI  H16R19763   6.744   1.896   9.205  1.9170 -2.6150  0.5109
  174SAPI  H16S19764   6.879   1.887   9.099 -1.3429 -0.2474 -0.9449
  174SAPI  C21719765   6.722   2.015   9.006  0.0008 -0.3823  0.1165
  174SAPI  H17R19766   6.798   2.063   8.940 -1.7053  0.3530 -1.3214
  174SAPI  H17S19767   6.657   2.099   9.039  2.7157  2.3268 -1.1745
  174SAPI  C21819768   6.640   1.920   8.930 -0.1582 -0.2743 -0.2287
  174SAPI  H18R19769   6.552   1.892   8.993  0.0956  2.6064  1.5090
  174SAPI  H18S19770   6.701   1.837   8.887 -1.4550 -0.3948 -1.8835
  174SAPI  C21919771   6.585   1.990   8.804  1.1420 -0.4378 -0.3977
  174SAPI  H19R19772   6.669   2.021   8.738  0.8837  0.1973 -0.4361
  174SAPI  H19S19773   6.531   2.083   8.833 -0.6734 -1.5974  0.0208
  174SAPI  C22019774   6.500   1.892   8.718 -0.0202 -0.1808  0.4174
  174SAPI  H20R19775   6.445   1.952   8.642  0.7321 -1.2834 -1.0193
  174SAPI  H20S19776   6.428   1.844   8.787 -1.4811  0.8622 -0.3276
  174SAPI  H20T19777   6.548   1.811   8.660 -0.5865 -0.3070  0.1177
  174SAPI   C3319778   6.274   2.803  10.467 -0.6017  0.3831  0.3863
  174SAPI   H3X19779   6.295   2.909  10.442  0.1114  0.2284  0.3396
  174SAPI   H3Y19780   6.166   2.811  10.495 -1.9946  0.9059 -4.6630
  174SAPI   C3419781   6.288   2.715  10.337 -0.2844  0.7423  0.6043
  174SAPI   H4X19782   6.242   2.614  10.348  0.1758  0.6597  1.8156
  174SAPI   H4Y19783   6.398   2.715  10.321 -0.5888  1.0979 -1.6325
  174SAPI   C3519784   6.212   2.775  10.215 -0.3291  0.8295 -0.2217
  174SAPI   H5X19785   6.104   2.755  10.231  0.0973 -1.2248  0.3009
  174SAPI   H5Y19786   6.235   2.721  10.121  1.9986 -3.0240  2.3751
  174SAPI   C3619787   6.255   2.920  10.180  0.2811 -0.5425 -0.3918
  174SAPI   H6X19788   6.366   2.929  10.170  0.6673  1.4441  4.6068
  174SAPI   H6Y19789   6.221   2.989  10.260 -0.8671 -1.6119  0.0513
  174SAPI   C3719790   6.184   2.967  10.045 -0.2009  0.2616 -0.0709
  174SAPI   H7X19791   6.172   3.077  10.044  2.1580  0.5754  1.6003
  174SAPI   H7Y19792   6.085   2.917  10.045  0.4191 -1.0078  0.8303
  174SAPI   C3819793   6.262   2.932   9.921  0.0946 -0.0383  0.3238
  174SAPI   H8X19794   6.270   2.821   9.915 -2.4371 -0.2260 -0.3023
  174SAPI   H8Y19795   6.368   2.958   9.939  0.6011 -2.0246  0.4054
  174SAPI   C3919796   6.210   2.984   9.777  0.2317  0.6431  0.2713
  174SAPI   H9X19797   6.295   2.982   9.706  0.0907 -1.8021  0.1589
  174SAPI   H9Y19798   6.172   3.089   9.779  0.4534  0.7145  2.1369
  174SAPI  C31019799   6.109   2.881   9.721 -0.0849  0.3068 -0.3690
  174SAPI  H10X19800   6.024   2.869   9.792  0.3716 -0.9602 -0.0137
  174SAPI  H10Y19801   6.150   2.778   9.711 -0.3989  0.1036  0.3882
  174SAPI  C31119802   6.048   2.931   9.587 -0.0107  0.6347  0.3095
  174SAPI  H11X19803   6.000   3.031   9.592  0.1339  0.6586  1.3054
  174SAPI  H11Y19804   5.962   2.864   9.570  0.7962  0.0625 -1.6260
  174SAPI  C31219805   6.139   2.921   9.469  0.5038  0.0733 -0.0222
  174SAPI  H12X19806   6.161   2.814   9.448 -4.3102 -1.2684  1.1583
  174SAPI  H12Y19807   6.234   2.977   9.481 -1.0942  3.0247 -0.7000
  174SAPI  C31319808   6.084   2.977   9.337 -0.6211  0.2635  0.3988
  174SAPI  H13X19809   6.065   3.086   9.350 -1.5057  0.3396 -1.4018
  174SAPI  H13Y19810   5.992   2.916   9.321  0.8736 -1.7891 -0.6487
  174SAPI  C31419811   6.176   2.950   9.216 -0.0948 -0.1923 -0.1388
  174SAPI  H14X19812   6.280   2.976   9.244 -0.2901 -2.5517  2.9931
  174SAPI  H14Y19813   6.140   3.013   9.132 -1.9111 -0.0628  0.7316
  174SAPI  C31519814   6.171   2.807   9.169 -0.6833 -0.4575  0.4097
  174SAPI  H15X19815   6.066   2.772   9.169 -0.3416 -1.4899  0.1992
  174SAPI  H15Y19816   6.225   2.743   9.242 -0.2418 -1.4976 -0.8194
  174SAPI  C31619817   6.237   2.774   9.036 -0.4301 -0.2774  0.1156
  174SAPI  H16X19818   6.233   2.664   9.020  0.5837 -0.4580  1.0963
  174SAPI  H16Y19819   6.344   2.799   9.048 -0.1578 -1.4925  0.3340
  174SAPI  C31719820   6.170   2.835   8.910  0.9159  0.5788  0.1534
  174SAPI  H17X19821   6.172   2.945   8.923  1.6880  0.6298 -0.3478
  174SAPI  H17Y19822   6.064   2.801   8.914  0.9404  0.6677  2.0739
  174SAPI  C31819823   6.239   2.801   8.774 -1.0308 -0.1503 -0.0266
  174SAPI  H18X19824   6.331   2.862   8.762 -0.7572 -0.7738 -1.1228
  174SAPI  H18Y19825   6.181   2.811   8.680 -0.1228  0.9653 -0.4706
  174SAPI  H18Z19826   6.274   2.696   8.774 -0.1171  0.1371  1.2235
  175SAPI   C1219827   1.727   1.213   6.604  0.3067  0.3421  0.8289
  175SAPI    H219828   1.740   1.303   6.668 -0.2066  1.2853 -0.3524
  175SAPI    O219829   1.760   1.097   6.672  0.1187 -0.1248 -0.3232
  175SAPI   HO219830   1.848   1.070   6.645  0.1155 -0.6435  0.1881
  175SAPI   C1319831   1.582   1.212   6.560  0.4273  0.5452 -0.4443
  175SAPI    H319832   1.565   1.310   6.510 -0.2140  1.7230  2.0072
  175SAPI    O319833   1.511   1.203   6.677 -0.0324 -0.5041 -0.3443
  175SAPI   HO319834   1.553   1.130   6.722 -0.2216 -1.6874 -2.0454
  175SAPI   C1419835   1.569   1.089   6.467 -0.1632 -0.2101  0.2578
  175SAPI    H419836   1.599   0.997   6.522  1.5049 -1.0674 -2.0134
  175SAPI    O419837   1.434   1.070   6.433  0.5709  0.0188 -0.2136
  175SAPI   HO419838   1.390   1.014   6.496  0.5867 -0.1001 -0.3071
  175SAPI   C1519839   1.656   1.098   6.346 -0.0716  0.3520 -0.0393
  175SAPI    H519840   1.634   1.193   6.293 -0.8967 -0.1722 -0.6417
  175SAPI    O519841   1.634   0.986   6.249 -0.1676 -0.5345  0.1559
  175SAPI   HO519842   1.647   0.902   6.294 -1.2019 -1.4861 -1.2641
  175SAPI   C1619843   1.804   1.110   6.386  0.1149 -0.1583 -0.4689
  175SAPI    H619844   1.840   1.016   6.431  1.2541 -0.2778 -1.6039
  175SAPI    O619845   1.884   1.137   6.270 -0.6958 -0.7118  0.0276
  175SAPI   HO619846   1.855   1.206   6.210  0.6759 -1.5393 -1.6194
  175SAPI   C1119847   1.822   1.227   6.486  0.1136  0.3790  0.0920
  175SAPI    H119848   1.800   1.327   6.443 -1.6118  0.2131  0.5723
  175SAPI     P19849   2.074   1.322   6.472  0.0472 -0.0365  0.4385
  175SAPI   O1319850   2.019   1.441   6.408  0.3439 -0.2970 -0.4015
  175SAPI   O1419851   2.156   1.236   6.383 -0.0640  0.2232  0.0751
  175SAPI   O1219852   1.955   1.239   6.541 -1.0401  0.3914 -0.3392
  175SAPI   O1119853   2.160   1.365   6.590 -0.4858  0.7047 -0.3871
  175SAPI    C119854   2.277   1.299   6.642 -0.0387 -0.4259  0.5474
  175SAPI    HA19855   2.276   1.195   6.602 -0.8224 -0.1943 -0.0451
  175SAPI    HB19856   2.368   1.347   6.599  1.7128 -4.1076 -0.0596
  175SAPI    C219857   2.297   1.291   6.796 -0.4840 -0.0784 -0.0741
  175SAPI    HS19858   2.371   1.210   6.812  1.2278  1.3257 -0.7689
  175SAPI   O2119859   2.163   1.259   6.865 -0.1357 -0.4656  0.5489
  175SAPI   C2119860   2.124   1.135   6.855  0.1673 -0.2864 -0.3108
  175SAPI   O2219861   2.182   1.049   6.796  0.5299 -0.1335 -0.0896
  175SAPI   C2219862   1.993   1.123   6.940  0.8356 -0.0103  0.5224
  175SAPI   H2R19863   1.926   1.197   6.892  1.9544 -0.7749 -2.3210
  175SAPI   H2S19864   1.961   1.019   6.916 -1.5824  0.6892  0.5824
  175SAPI    C319865   2.360   1.416   6.856  0.2659  0.3625 -0.7622
  175SAPI    HX19866   2.289   1.497   6.829 -0.3155  0.3034  0.5533
  175SAPI    HY19867   2.452   1.422   6.794 -0.5818 -1.4846 -2.2198
  175SAPI   O3119868   2.380   1.423   6.994 -0.2067 -0.2362  0.0910
  175SAPI   C3119869   2.483   1.362   7.045 -0.7644  0.9075  1.0209
  175SAPI   O3219870   2.574   1.311   6.980 -0.0719  0.0572  0.0253
  175SAPI   C3219871   2.491   1.396   7.183  0.1167 -0.5061 -0.5190
  175SAPI   H2X19872   2.601   1.403   7.193  0.2243  0.2138 -2.0702
  175SAPI   H2Y19873   2.441   1.314   7.238 -0.0843  0.7296  1.1868
  175SAPI   C2319874   2.020   1.146   7.084 -0.1016  0.2555  0.2976
  175SAPI   H3R19875   2.094   1.227   7.096 -1.1062  1.5571 -2.0103
  175SAPI   H3S19876   2.067   1.053   7.124  0.3764 -0.3340 -1.5795
  175SAPI   C2419877   1.899   1.191   7.165  0.6734  0.2250  0.0977
  175SAPI   H4R19878   1.850   1.281   7.121 -2.3808 -1.1341  0.5880
  175SAPI   H4S19879   1.919   1.228   7.268  0.3406 -1.8889  0.9431
  175SAPI   C2519880   1.794   1.088   7.178  0.3462 -0.2258  0.3790
  175SAPI   H5R19881   1.726   1.077   7.093 -1.2502  0.0886  1.5873
  175SAPI   C2619882   1.776   1.014   7.292 -0.0801  0.4321 -0.5199
  175SAPI   H6R19883   1.693   0.942   7.295 -2.2881  2.9972  0.7501
  175SAPI   C2719884   1.864   1.010   7.419  0.2640  0.3275  0.2157
  175SAPI   H7R19885   1.939   1.093   7.423 -0.4877  1.0691 -0.7399
  175SAPI   H7S19886   1.911   0.910   7.409 -2.5251 -0.7103 -3.3156
  175SAPI   C2819887   1.780   1.024   7.541 -0.4351  0.6939  0.6657
  175SAPI   H8R19888   1.672   1.022   7.519 -0.2878  0.2889 -0.0565
  175SAPI   C2919889   1.823   1.045   7.669  0.5500  0.1656  0.2852
  175SAPI   H9R19890   1.754   1.040   7.754  0.2702  0.7179  0.0929
  175SAPI  C21019891   1.973   1.051   7.693  0.6554  0.3894 -0.2255
  175SAPI  H10R19892   2.021   1.139   7.647  0.7706  0.3326 -0.2133
  175SAPI  H10S19893   2.008   0.959   7.640 -2.4161 -0.2167 -1.3721
  175SAPI  C21119894   2.007   1.042   7.843 -0.4230  0.3946  0.2365
  175SAPI  H11R19895   1.927   1.078   7.911  1.2570 -2.4812  3.9334
  175SAPI  C21219896   2.137   1.028   7.878 -0.3406  1.1618  0.0172
  175SAPI  H12R19897   2.148   1.019   7.987  0.2682  1.2910 -0.0350
  175SAPI  C21319898   2.254   0.998   7.786 -0.3501  0.0833  0.2723
  175SAPI  H13R19899   2.215   0.925   7.711  0.4758 -1.8502  1.6925
  175SAPI  H13S19900   2.335   0.955   7.848 -0.3419 -0.1732  0.0836
  175SAPI  C21419901   2.306   1.131   7.724  0.0507  0.4546  1.3083
  175SAPI  H14R19902   2.259   1.227   7.750 -0.7128  0.4263  0.0722
  175SAPI  C21519903   2.409   1.137   7.644  0.2699 -0.8441 -0.7057
  175SAPI  H15R19904   2.424   1.224   7.579  0.8312 -0.9328 -0.6926
  175SAPI  C21619905   2.486   1.018   7.599  0.4890  0.5446 -0.4248
  175SAPI  H16R19906   2.474   0.946   7.683 -1.0953  2.2727  0.8863
  175SAPI  H16S19907   2.592   1.043   7.577  0.7295  0.2681  0.4096
  175SAPI  C21719908   2.427   0.954   7.475  0.5557 -0.2425 -0.6307
  175SAPI  H17R19909   2.320   0.926   7.485  0.2085  0.9635 -0.8568
  175SAPI  H17S19910   2.484   0.860   7.456 -0.6062 -1.5865  2.3337
  175SAPI  C21819911   2.429   1.042   7.340  0.3340  0.4873 -0.4534
  175SAPI  H18R19912   2.534   1.070   7.316  0.2848  1.9503  0.9561
  175SAPI  H18S19913   2.378   1.138   7.363  0.0846 -0.1368  1.6577
  175SAPI  C21919914   2.354   0.978   7.225 -0.0005  0.2464 -0.3983
  175SAPI  H19R19915   2.245   0.972   7.246  0.3895 -1.0577  1.3611
  175SAPI  H19S19916   2.386   0.873   7.208  0.7817  0.7495 -2.1517
  175SAPI  C22019917   2.371   1.058   7.089  0.7866  0.6754  0.3127
  175SAPI  H20R19918   2.476   1.087   7.063  0.0614  2.2675 -0.9758
  175SAPI  H20S19919   2.316   1.154   7.100  0.6040  0.6637 -0.4644
  175SAPI  H20T19920   2.325   1.001   7.005 -0.6434  1.2045  0.7191
  175SAPI   C3319921   2.462   1.547   7.225  0.0710  0.2942  0.1226
  175SAPI   H3X19922   2.357   1.572   7.200 -0.0595 -1.1861 -0.8611
  175SAPI   H3Y19923   2.515   1.622   7.162  1.1993  0.3268  1.0893
  175SAPI   C3419924   2.509   1.575   7.370 -1.1812  0.1571 -0.4347
  175SAPI   H4X19925   2.504   1.478   7.423 -0.0914 -0.2443 -1.0450
  175SAPI   H4Y19926   2.446   1.650   7.422  2.7056  3.6447 -0.4895
  175SAPI   C3519927   2.653   1.623   7.389 -0.0372 -0.1659 -0.2101
  175SAPI   H5X19928   2.673   1.701   7.312  1.8401  0.6752  1.0824
  175SAPI   H5Y19929   2.725   1.539   7.380  0.9403  0.6881 -0.5313
  175SAPI   C3619930   2.694   1.679   7.523 -0.6825 -0.8363  0.3939
  175SAPI   H6X19931   2.634   1.763   7.564  0.4477 -0.5600  1.4977
  175SAPI   H6Y19932   2.796   1.721   7.517 -1.0245 -0.3601 -2.7169
  175SAPI   C3719933   2.698   1.576   7.638 -0.4277  0.1658  1.0166
  175SAPI   H7X19934   2.751   1.482   7.610 -0.8072 -0.8884  3.7052
  175SAPI   H7Y19935   2.592   1.555   7.664 -0.9756  1.5833 -0.0150
  175SAPI   C3819936   2.766   1.621   7.772 -0.9020 -0.4344 -0.7317
  175SAPI   H8X19937   2.695   1.684   7.830 -0.3789 -0.1779 -0.3653
  175SAPI   H8Y19938   2.856   1.682   7.747  0.9387 -2.5506  0.4699
  175SAPI   C3919939   2.794   1.504   7.859  0.2826  0.0691 -0.7954
  175SAPI   H9X19940   2.893   1.465   7.826  0.8428 -1.6228  2.6027
  175SAPI   H9Y19941   2.722   1.425   7.830 -2.3312  2.7847 -1.9404
  175SAPI  C31019942   2.790   1.536   8.009 -0.0026  0.4593 -0.3369
  175SAPI  H10X19943   2.691   1.580   8.034 -0.0479 -0.4483  1.1429
  175SAPI  H10Y19944   2.879   1.595   8.039 -1.6912  1.7247  2.4051
  175SAPI  C31119945   2.804   1.402   8.091  0.7288 -0.3784 -0.9611
  175SAPI  H11X19946   2.895   1.348   8.057  0.2224 -0.1733 -2.7028
  175SAPI  H11Y19947   2.717   1.341   8.060 -1.1481  2.5440 -1.6829
  175SAPI  C31219948   2.806   1.421   8.240 -0.6742  0.0988  0.7922
  175SAPI  H12X19949   2.803   1.325   8.296  0.6620 -0.4244  0.0062
  175SAPI  H12Y19950   2.716   1.480   8.268 -0.6052 -0.4589  2.2536
  175SAPI  C31319951   2.938   1.483   8.289 -0.0375  0.0222 -0.1902
  175SAPI  H13X19952   2.954   1.585   8.247  0.0036  0.0519 -0.1031
  175SAPI  H13Y19953   3.025   1.426   8.249 -1.5559 -1.2796 -1.7380
  175SAPI  C31419954   2.958   1.477   8.436  0.3288  0.6338  0.5227
  175SAPI  H14X19955   3.057   1.520   8.462  1.6919 -1.3795 -1.1188
  175SAPI  H14Y19956   2.954   1.374   8.477 -3.2965  0.4963  0.0043
  175SAPI  C31519957   2.848   1.558   8.513  0.4838  0.1342 -0.5497
  175SAPI  H15X19958   2.766   1.484   8.510 -1.4560  2.2817 -1.8920
  175SAPI  H15Y19959   2.820   1.649   8.456  1.2104  0.5652 -0.2238
  175SAPI  C31619960   2.880   1.586   8.659  0.4350 -0.2039 -1.0314
  175SAPI  H16X19961   2.982   1.628   8.672 -0.3086  0.8294  1.9250
  175SAPI  H16Y19962   2.890   1.493   8.718  0.2674  0.7353  0.5072
  175SAPI  C31719963   2.770   1.676   8.723 -0.4180  0.1210 -0.4907
  175SAPI  H17X19964   2.666   1.640   8.711 -1.3619  2.8113 -0.4822
  175SAPI  H17Y19965   2.770   1.782   8.692 -0.5671  0.2159 -0.1623
  175SAPI  C31819966   2.800   1.695   8.868  0.1840 -0.0112 -0.4665
  175SAPI  H18X19967   2.905   1.728   8.882  0.1574 -0.3658  0.7021
  175SAPI  H18Y19968   2.802   1.604   8.933  0.0825 -0.3209 -0.8932
  175SAPI  H18Z19969   2.731   1.768   8.916  1.9784  0.6248  1.1998
  176SAPI   C1219970   1.372   6.530   6.559 -0.4602 -0.1471  0.6645
  176SAPI    H219971   1.459   6.573   6.613 -0.1630 -1.4638  1.2327
  176SAPI    O219972   1.261   6.507   6.649 -0.4896  0.2586 -0.5141
  176SAPI   HO219973   1.279   6.419   6.681  0.0758 -0.1358 -1.9023
  176SAPI   C1319974   1.333   6.636   6.454  0.2563 -0.2101  0.1533
  176SAPI    H319975   1.419   6.663   6.388  0.1588  0.9143  0.4890
  176SAPI    O319976   1.285   6.753   6.525 -0.1767  0.6609  0.0613
  176SAPI   HO319977   1.251   6.722   6.609 -0.0341  1.6657  0.4906
  176SAPI   C1419978   1.230   6.585   6.356 -0.1167 -0.1070 -0.2226
  176SAPI    H419979   1.136   6.560   6.409  1.0550 -2.9094  0.6444
  176SAPI    O419980   1.199   6.696   6.272  0.1010  0.0975  1.0648
  176SAPI   HO419981   1.184   6.771   6.329 -1.8187  0.1132  0.5871
  176SAPI   C1519982   1.279   6.453   6.289  0.5229 -0.2145 -0.1941
  176SAPI    H519983   1.374   6.472   6.234 -0.9163  2.0301 -1.9881
  176SAPI    O519984   1.198   6.405   6.181 -0.2252 -0.6577 -0.4785
  176SAPI   HO519985   1.109   6.395   6.213 -0.1825  0.2999 -0.0376
  176SAPI   C1619986   1.309   6.350   6.394 -0.2396 -0.4760 -0.3626
  176SAPI    H619987   1.213   6.324   6.442 -0.8652 -0.7473 -1.7604
  176SAPI    O619988   1.358   6.233   6.338  0.0859  0.6438 -0.3299
  176SAPI   HO619989   1.451   6.250   6.323  0.4548 -1.0631 -0.0161
  176SAPI   C1119990   1.417   6.402   6.491  0.3052  1.1321 -0.5888
  176SAPI    H119991   1.505   6.432   6.431  1.4722 -2.3587 -0.7482
  176SAPI     P19992   1.575   6.207   6.589  0.3845  0.2081 -0.2603
  176SAPI   O1319993   1.682   6.259   6.673 -0.5069  0.0994 -0.0358
  176SAPI   O1419994   1.613   6.189   6.446 -0.1622 -0.0245 -0.2012
  176SAPI   O1219995   1.445   6.312   6.597 -0.3218 -0.4205 -0.2971
  176SAPI   O1119996   1.519   6.077   6.655 -0.2984 -0.1204 -0.1297
  176SAPI    C119997   1.477   6.092   6.785  0.7585 -0.3714 -0.5260
  176SAPI    HA19998   1.563   6.115   6.853  0.4183  1.2949 -0.6410
  176SAPI    HB19999   1.402   6.173   6.795 -0.1938 -1.0076 -2.3628
  176SAPI    C220000   1.409   5.964   6.839 -0.2735 -0.5857 -0.4099
  176SAPI    HS20001   1.357   5.926   6.749 -0.5648  0.0636 -0.5185
  176SAPI   O2120002   1.325   5.993   6.955 -0.1446 -0.2374 -0.1878
  176SAPI   C2120003   1.234   5.904   6.973 -0.8858  0.3080  0.0089
  176SAPI   O2220004   1.208   5.804   6.902 -0.0912 -1.0811 -0.7664
  176SAPI   C2220005   1.149   5.938   7.097  0.4020 -0.6133 -0.3676
  176SAPI   H2R20006   1.202   6.026   7.140 -0.0972 -0.5930  0.2083
  176SAPI   H2S20007   1.047   5.974   7.072  0.3312 -1.3375 -1.1481
  176SAPI    C320008   1.523   5.859   6.875  0.6661 -0.6346 -0.0773
  176SAPI    HX20009   1.581   5.842   6.782  0.4138 -0.1204 -0.3311
  176SAPI    HY20010   1.477   5.765   6.913 -1.8398  0.3766 -0.5541
  176SAPI   O3120011   1.615   5.905   6.977 -0.0837 -0.7694  0.0318
  176SAPI   C3120012   1.579   5.886   7.109  0.4003  0.2448  0.2646
  176SAPI   O3220013   1.481   5.824   7.141  0.6924 -1.2497  0.4410
  176SAPI   C3220014   1.677   5.960   7.199  0.1151 -0.4365 -0.4539
  176SAPI   H2X20015   1.643   6.063   7.224  3.2151  0.0482  2.1720
  176SAPI   H2Y20016   1.783   5.957   7.164 -0.4535  0.0652 -2.2607
  176SAPI   C2320017   1.122   5.817   7.187 -0.1170  0.1190 -0.1965
  176SAPI   H3R20018   1.218   5.768   7.217 -0.6708 -1.6358 -1.2115
  176SAPI   H3S20019   1.072   5.746   7.119  0.8143  0.7083 -1.5128
  176SAPI   C2420020   1.040   5.842   7.313  0.6483 -0.7163 -0.8578
  176SAPI   H4R20021   0.949   5.891   7.271  1.2110 -0.8354 -2.2092
  176SAPI   H4S20022   1.086   5.919   7.379 -1.2778  0.5226 -0.8985
  176SAPI   C2520023   1.014   5.729   7.414 -0.6160 -0.1607 -0.3689
  176SAPI   H5R20024   1.105   5.686   7.458  0.3865  0.3123 -1.9557
  176SAPI   C2620025   0.895   5.668   7.439 -0.0089 -0.6690  0.0464
  176SAPI   H6R20026   0.909   5.582   7.505  1.0419 -0.1286  0.5454
  176SAPI   C2720027   0.752   5.691   7.385  0.3889  0.2691  0.7082
  176SAPI   H7R20028   0.742   5.755   7.294  3.4372 -1.6689 -1.1009
  176SAPI   H7S20029   0.693   5.733   7.469 -0.6900 -1.2780  0.7361
  176SAPI   C2820030   0.701   5.551   7.344 -0.1271  0.3115 -0.6539
  176SAPI   H8R20031   0.708   5.544   7.234  0.4726  0.9597 -0.6583
  176SAPI   C2920032   0.659   5.449   7.429  0.6464 -0.3709 -0.6488
  176SAPI   H9R20033   0.618   5.360   7.379  1.4726 -0.4480 -1.2144
  176SAPI  C21020034   0.659   5.453   7.580 -0.8256  0.7723  0.2587
  176SAPI  H10R20035   0.690   5.552   7.620 -2.5272  0.7188  1.7617
  176SAPI  H10S20036   0.744   5.387   7.609 -1.3790  0.0275  0.2113
  176SAPI  C21120037   0.525   5.415   7.644  0.0809 -0.7204  0.6421
  176SAPI  H11R20038   0.439   5.455   7.588  0.6397 -0.5423 -0.0961
  176SAPI  C21220039   0.501   5.332   7.742  0.2060  0.9273 -0.2963
  176SAPI  H12R20040   0.400   5.299   7.771  0.5314 -1.0541 -1.2847
  176SAPI  C21320041   0.601   5.264   7.831  0.1832  0.3513 -0.2168
  176SAPI  H13R20042   0.672   5.199   7.776 -1.1712  0.8185 -2.6142
  176SAPI  H13S20043   0.543   5.184   7.882  2.1704 -1.0541 -0.0919
  176SAPI  C21420044   0.667   5.336   7.946  0.2901  0.2154  0.9522
  176SAPI  H14R20045   0.775   5.340   7.923  0.3306 -0.3699  1.0285
  176SAPI  C21520046   0.623   5.391   8.058 -0.9106 -0.1286 -1.0251
  176SAPI  H15R20047   0.687   5.460   8.116 -0.0900 -1.5974 -0.1534
  176SAPI  C21620048   0.478   5.386   8.097 -0.7695  0.2403 -0.0890
  176SAPI  H16R20049   0.424   5.348   8.009 -0.8201  0.7453 -0.2766
  176SAPI  H16S20050   0.436   5.485   8.122 -1.4116  0.1810 -0.9361
  176SAPI  C21720051   0.450   5.297   8.216 -0.0420  0.1757  0.6413
  176SAPI  H17R20052   0.530   5.324   8.288 -0.7762 -0.1132  1.5649
  176SAPI  H17S20053   0.466   5.190   8.192 -0.5836 -0.2139  2.0179
  176SAPI  C21820054   0.320   5.323   8.286 -0.3439 -0.4786 -0.0004
  176SAPI  H18R20055   0.231   5.305   8.222 -0.2986  1.6004 -0.6765
  176SAPI  H18S20056   0.327   5.426   8.326 -0.4442 -0.0589 -1.0683
  176SAPI  C21920057   0.287   5.223   8.394  0.3067  0.4169 -0.0613
  176SAPI  H19R20058   0.300   5.118   8.357  0.4003  0.6362 -0.6655
  176SAPI  H19S20059   0.180   5.230   8.423  0.8882 -0.5986  2.4627
  176SAPI  C22020060   0.370   5.242   8.517  0.3457  0.4193  0.6371
  176SAPI  H20R20061   0.313   5.194   8.600 -0.3564 -0.9968 -0.6198
  176SAPI  H20S20062   0.364   5.350   8.539 -1.7714  0.0551  2.0105
  176SAPI  H20T20063   0.474   5.204   8.510  0.1800 -1.4366  5.9160
  176SAPI   C3320064   1.672   5.901   7.349  0.4497  0.2930  0.2545
  176SAPI   H3X20065   1.714   5.799   7.346 -0.7107 -0.2404  1.6813
  176SAPI   H3Y20066   1.568   5.897   7.388  1.6142  2.0933  3.7454
  176SAPI   C3420067   1.759   5.995   7.438 -0.4956 -0.6141  0.4291
  176SAPI   H4X20068   1.704   6.092   7.434 -0.1026 -0.4661 -1.5516
  176SAPI   H4Y20069   1.858   6.003   7.389 -0.5106 -1.8469  0.1760
  176SAPI   C3520070   1.769   5.950   7.581 -0.7427 -0.2567 -0.6797
  176SAPI   H5X20071   1.860   5.999   7.621 -0.6671  0.1376 -1.3332
  176SAPI   H5Y20072   1.772   5.839   7.590 -0.3412 -0.0494  2.2253
  176SAPI   C3620073   1.655   6.000   7.665  0.3641 -0.0957  0.3996
  176SAPI   H6X20074   1.562   5.957   7.624  0.3179  1.6322 -1.3979
  176SAPI   H6Y20075   1.654   6.111   7.675  0.7054  0.0712 -1.2246
  176SAPI   C3720076   1.674   5.941   7.805  0.3814  0.1099  0.1492
  176SAPI   H7X20077   1.784   5.946   7.821  0.5231 -0.2359 -0.6945
  176SAPI   H7Y20078   1.642   5.836   7.794 -1.6990  0.5060  2.1733
  176SAPI   C3820079   1.588   6.008   7.907 -0.5028  0.0444 -0.6792
  176SAPI   H8X20080   1.490   6.012   7.855 -0.0146 -3.1832 -1.9897
  176SAPI   H8Y20081   1.628   6.108   7.935  0.8740 -1.3711  2.7637
  176SAPI   C3920082   1.550   5.914   8.025 -0.2016  0.4629 -0.0942
  176SAPI   H9X20083   1.478   5.835   7.994  0.3463  0.0974 -0.4423
  176SAPI   H9Y20084   1.510   5.988   8.098  1.2828  0.6537  0.5442
  176SAPI  C31020085   1.669   5.853   8.104 -0.1625  0.0285  0.1151
  176SAPI  H10X20086   1.747   5.932   8.109 -1.9385  1.7931  0.5840
  176SAPI  H10Y20087   1.706   5.770   8.040  0.8055  0.2281  0.4217
  176SAPI  C31120088   1.638   5.784   8.240 -1.4557  0.5971 -0.4945
  176SAPI  H11X20089   1.719   5.708   8.252 -2.4610 -0.6536 -1.4880
  176SAPI  H11Y20090   1.546   5.722   8.243 -0.9527 -0.4889 -4.4829
  176SAPI  C31220091   1.642   5.872   8.367  0.2044  0.1541  0.3300
  176SAPI  H12X20092   1.554   5.941   8.372  0.3958  0.7587 -3.1910
  176SAPI  H12Y20093   1.735   5.930   8.354  2.3838 -2.7904  2.3133
  176SAPI  C31320094   1.651   5.802   8.508 -0.0317  0.2416  0.3295
  176SAPI  H13X20095   1.561   5.747   8.543  0.0949 -1.6117 -2.1324
  176SAPI  H13Y20096   1.640   5.882   8.585 -0.4432  2.1512 -1.6616
  176SAPI  C31420097   1.781   5.721   8.521  0.2240 -0.4890  0.5946
  176SAPI  H14X20098   1.871   5.783   8.502 -0.8477  0.4653 -1.5240
  176SAPI  H14Y20099   1.785   5.653   8.433  2.6303 -0.9749  1.0367
  176SAPI  C31520100   1.790   5.641   8.652 -0.5955 -0.6057  1.1994
  176SAPI  H15X20101   1.688   5.602   8.675 -1.4332  0.9319  0.2172
  176SAPI  H15Y20102   1.814   5.710   8.736  1.4479  1.4378 -0.9885
  176SAPI  C31620103   1.902   5.536   8.638  0.0165 -0.2773 -0.2239
  176SAPI  H16X20104   1.892   5.495   8.535  1.0614  0.1434 -0.4957
  176SAPI  H16Y20105   1.872   5.446   8.697  1.6036 -1.1565 -0.7391
  176SAPI  C31720106   2.037   5.595   8.674  1.0401 -0.5281  0.0562
  176SAPI  H17X20107   2.024   5.646   8.772 -0.6199  0.1562 -0.5017
  176SAPI  H17Y20108   2.057   5.676   8.600 -4.5483 -1.4863 -2.8328
  176SAPI  C31820109   2.155   5.508   8.688 -0.0660 -0.8767  0.3928
  176SAPI  H18X20110   2.180   5.465   8.588  2.0438 -0.3246  0.6557
  176SAPI  H18Y20111   2.138   5.423   8.757 -0.8859 -1.5814 -0.6501
  176SAPI  H18Z20112   2.238   5.563   8.738 -0.0045  1.3787 -2.0756
  177SLPC     N20113   0.812   2.800  10.920 -0.3349 -0.4434 -0.3237
  177SLPC   C1320114   0.836   2.917  11.008 -0.4927 -0.1650  0.1336
  177SLPC  H13A20115   0.749   2.938  11.068 -1.4994 -2.8004 -0.3612
  177SLPC  H13B20116   0.910   2.913  11.087 -2.2593  0.2305  1.8607
  177SLPC  H13C20117   0.860   2.998  10.941  0.0513 -0.4261  0.0071
  177SLPC   C1420118   0.728   2.697  11.000 -0.1768 -0.2581 -0.2171
  177SLPC  H14A20119   0.733   2.596  10.962  2.0613 -0.3196  0.1520
  177SLPC  H14B20120   0.775   2.688  11.097 -0.3527  1.7849  0.0603
  177SLPC  H14C20121   0.626   2.728  11.013 -0.0477 -0.6612  2.0357
  177SLPC   C1520122   0.940   2.725  10.890 -0.5319  0.4831  0.0884
  177SLPC  H15A20123   0.993   2.713  10.983 -1.4829 -4.2551  0.1592
  177SLPC  H15B20124   0.915   2.624  10.861  1.6927 -0.5068  1.5047
  177SLPC  H15C20125   1.001   2.770  10.812  0.3016  1.9482  1.5562
  177SLPC   C1220126   0.732   2.828  10.795 -0.4605  0.2087  0.4884
  177SLPC  H12A20127   0.626   2.848  10.807 -0.5250  0.5743 -0.6119
  177SLPC  H12B20128   0.736   2.736  10.739 -0.3276  0.1754  0.5524
  177SLPC   C1120129   0.774   2.944  10.706 -0.2125 -0.0469  0.1364
  177SLPC  H11A20130   0.748   2.925  10.600  0.0845 -0.6086  0.1590
  177SLPC  H11B20131   0.884   2.957  10.711 -0.0250 -1.9137  1.9270
  177SLPC     P20132   0.763   3.201  10.768  0.7150 -0.2766 -0.3369
  177SLPC   O1320133   0.654   3.299  10.779 -0.0661  0.0584  0.5303
  177SLPC   O1420134   0.865   3.199  10.873 -0.2987 -0.1461 -0.3826
  177SLPC   O1220135   0.699   3.054  10.745  0.3437 -0.1805 -0.2704
  177SLPC   O1120136   0.824   3.218  10.626 -0.1389 -0.2482  0.3416
  177SLPC    C120137   0.742   3.190  10.511 -0.2135  0.1864  0.7060
  177SLPC    HA20138   0.652   3.127  10.529 -0.1587  0.2684  1.2834
  177SLPC    HB20139   0.692   3.288  10.492 -0.7299 -0.2979 -0.4670
  177SLPC    C220140   0.820   3.155  10.386 -0.1949  0.9602  0.0248
  177SLPC    HS20141   0.855   3.050  10.389 -1.3106  0.4349 -3.3737
  177SLPC   O2120142   0.928   3.244  10.358  0.4347 -0.2925  0.2521
  177SLPC   C2120143   1.045   3.224  10.408 -0.1899 -0.1650 -1.1181
  177SLPC   O2220144   1.080   3.122  10.467 -0.1044  0.3107  0.0023
  177SLPC   C2220145   1.123   3.353  10.387 -0.5479  0.0120 -0.4947
  177SLPC   H2R20146   1.073   3.440  10.435  1.9924  1.0317  0.3799
  177SLPC   H2S20147   1.212   3.350  10.453 -0.3308  0.3531 -0.7745
  177SLPC    C320148   0.722   3.152  10.275 -0.1082 -0.1384 -0.4024
  177SLPC    HX20149   0.726   3.248  10.218 -3.6097 -0.3217 -1.1294
  177SLPC    HY20150   0.617   3.151  10.312 -0.4881 -2.3764 -1.4675
  177SLPC   O3120151   0.760   3.041  10.183  0.4920 -0.3800  0.3952
  177SLPC   C3120152   0.667   3.034  10.080 -0.0644  0.2095  0.4885
  177SLPC   O3220153   0.579   3.113  10.053 -0.7452  0.3157  0.4020
  177SLPC   C3220154   0.715   2.923   9.984 -0.5044  0.1648 -0.1081
  177SLPC   H2X20155   0.773   2.852  10.047 -0.2120  1.0061  0.5802
  177SLPC   H2Y20156   0.782   2.974   9.910 -0.8967  0.8765  0.0205
  177SLPC   C2320157   1.159   3.380  10.238  0.1519 -0.4644 -0.3295
  177SLPC   H3R20158   1.235   3.458  10.257 -0.3920 -0.3619  1.4849
  177SLPC   H3S20159   1.063   3.408  10.190 -0.2274  0.5778  1.0303
  177SLPC   C2420160   1.209   3.268  10.156 -0.1778  0.2614  0.2089
  177SLPC   H4R20161   1.127   3.209  10.109  1.2292 -2.2956  0.8751
  177SLPC   H4S20162   1.261   3.195  10.221 -0.5767 -0.7816 -0.6147
  177SLPC   C2520163   1.296   3.304  10.033 -0.1761  0.1792 -0.5712
  177SLPC   H5R20164   1.328   3.207   9.991 -1.4683 -0.0808 -1.0020
  177SLPC   H5S20165   1.380   3.367  10.068 -0.8607  1.3136 -0.9103
  177SLPC   C2620166   1.222   3.379   9.923 -0.1668 -0.0561  0.3476
  177SLPC   H6R20167   1.190   3.475   9.967  0.6299 -0.5637  2.0988
  177SLPC   H6S20168   1.128   3.323   9.905 -0.7930  0.6945  1.2526
  177SLPC   C2720169   1.319   3.394   9.806  1.0122 -0.4602 -0.1119
  177SLPC   H7R20170   1.322   3.301   9.746 -2.7951 -0.5376 -0.3277
  177SLPC   H7S20171   1.416   3.419   9.853  0.7286  0.2478  0.1075
  177SLPC   C2820172   1.301   3.519   9.715 -0.2345  0.2400 -0.3166
  177SLPC   H8R20173   1.389   3.553   9.655 -0.5681 -0.6819 -1.3546
  177SLPC   H8S20174   1.302   3.603   9.788  0.8277  0.5300 -0.6528
  177SLPC   C2920175   1.172   3.501   9.651 -0.4877 -0.0451 -0.5563
  177SLPC   H9R20176   1.083   3.520   9.713  1.2732 -0.9851  2.3582
  177SLPC  C21020177   1.165   3.460   9.518  0.2566 -0.0432 -0.3513
  177SLPC  H10R20178   1.064   3.458   9.475  0.8225 -2.5949 -1.6590
  177SLPC  C21120179   1.285   3.447   9.420  0.5544 -0.1651 -0.2337
  177SLPC  H11R20180   1.267   3.515   9.334 -2.4531 -0.3640  0.1981
  177SLPC  H11S20181   1.377   3.490   9.464  1.7906  0.3372 -3.1614
  177SLPC  C21220182   1.320   3.306   9.383  0.1363  0.0869 -0.3209
  177SLPC  H12R20183   1.331   3.235   9.467  2.0385  0.4480 -0.2505
  177SLPC  C21320184   1.362   3.260   9.258  0.0085  0.4247 -0.3756
  177SLPC  H13R20185   1.374   3.151   9.261  2.4562  0.6592 -0.7591
  177SLPC  C21420186   1.367   3.331   9.128 -0.9180  0.1529  0.6765
  177SLPC  H14R20187   1.269   3.310   9.079 -1.2177 -0.0033  1.3356
  177SLPC  H14S20188   1.456   3.288   9.077 -1.4215  0.2330 -0.2980
  177SLPC  C21520189   1.388   3.486   9.112  0.4759  0.3989 -0.8133
  177SLPC  H15R20190   1.469   3.529   9.175 -2.1609  0.8939  2.3413
  177SLPC  H15S20191   1.298   3.543   9.143  1.1290  1.0595 -0.1115
  177SLPC  C21620192   1.420   3.520   8.966 -0.3376 -0.8816 -0.2854
  177SLPC  H16R20193   1.331   3.480   8.913 -1.3062  0.8388 -0.0030
  177SLPC  H16S20194   1.520   3.486   8.932 -0.0046 -2.2074  1.8775
  177SLPC  C21720195   1.435   3.668   8.944 -0.3227 -0.0331 -0.6724
  177SLPC  H17R20196   1.524   3.700   9.003 -0.0736  4.1475 -3.0788
  177SLPC  H17S20197   1.349   3.727   8.982  0.2434  1.8471 -2.2508
  177SLPC  C21820198   1.470   3.700   8.800  0.0505 -0.6155  0.0300
  177SLPC  H18R20199   1.508   3.804   8.787 -2.2064  0.1057 -1.1417
  177SLPC  H18S20200   1.369   3.704   8.753 -0.6976 -0.6123  1.6307
  177SLPC  H18T20201   1.545   3.627   8.763  1.7098  1.0077  0.0765
  177SLPC   C3320202   0.600   2.837   9.938  0.1381 -0.4636  0.1943
  177SLPC   H3X20203   0.524   2.822  10.018  0.0535 -2.7040 -0.2956
  177SLPC   H3Y20204   0.641   2.740   9.905 -1.2217 -0.0332 -2.9580
  177SLPC   C3420205   0.535   2.909   9.818 -0.8239  0.8958  0.5579
  177SLPC   H4X20206   0.500   3.014   9.830 -0.6679  1.2780 -2.1388
  177SLPC   H4Y20207   0.438   2.857   9.803 -1.5081  2.5539 -0.9847
  177SLPC   C3520208   0.614   2.892   9.678  0.0217  0.4955  0.0235
  177SLPC   H5X20209   0.617   2.783   9.657 -0.2921  0.3931  0.4863
  177SLPC   H5Y20210   0.722   2.915   9.681  0.3947 -1.2023 -0.1253
  177SLPC   C3620211   0.542   2.965   9.567  0.3822 -0.8194  0.0338
  177SLPC   H6X20212   0.509   3.069   9.589  3.1818 -0.4522  2.9297
  177SLPC   H6Y20213   0.450   2.910   9.539  0.5349 -2.0577  1.8907
  177SLPC   C3720214   0.625   2.958   9.435  0.1796 -0.3598  0.1999
  177SLPC   H7X20215   0.669   2.856   9.431 -0.3400 -0.6921  2.1075
  177SLPC   H7Y20216   0.705   3.030   9.465 -0.7078  0.6185  0.2453
  177SLPC   C3820217   0.541   2.997   9.311  0.6017  0.0222  0.0487
  177SLPC   H8X20218   0.499   3.100   9.319 -0.1367 -0.3780  1.5062
  177SLPC   H8Y20219   0.453   2.929   9.310  0.8336 -0.2772 -3.5421
  177SLPC   C3920220   0.628   2.987   9.183 -0.9188 -0.0928 -0.3295
  177SLPC   H9X20221   0.667   2.885   9.167  0.2160  0.0471  1.4435
  177SLPC   H9Y20222   0.713   3.056   9.203 -0.8124 -0.4062  0.3004
  177SLPC  C31020223   0.578   3.041   9.044  0.9608  0.4927 -0.5680
  177SLPC  H10X20224   0.661   3.029   8.971 -0.5655 -2.3353 -1.9256
  177SLPC  H10Y20225   0.548   3.148   9.044  2.4220  0.9845  3.3478
  177SLPC  C31120226   0.454   2.960   8.996  0.7405  0.4835 -0.0279
  177SLPC  H11X20227   0.364   3.001   9.047 -0.2982  0.1356 -1.5486
  177SLPC  H11Y20228   0.463   2.854   9.028  0.6155  0.6393  0.5288
  177SLPC  C31220229   0.426   2.966   8.851  0.4840  0.0493  0.1075
  177SLPC  H12X20230   0.445   3.067   8.809  1.1998 -1.0177 -2.2454
  177SLPC  H12Y20231   0.318   2.951   8.830  0.3555 -1.7032  1.8703
  177SLPC  C31320232   0.509   2.864   8.780  0.1371 -0.8261  0.0740
  177SLPC  H13X20233   0.498   2.766   8.831 -1.3950  0.3951  2.1882
  177SLPC  H13Y20234   0.615   2.897   8.773 -0.3486  0.9726  1.0023
  177SLPC  C31420235   0.468   2.845   8.636  0.0177  0.2560 -0.1851
  177SLPC  H14X20236   0.358   2.832   8.634 -0.0154  0.5748 -0.4970
  177SLPC  H14Y20237   0.514   2.753   8.594 -2.6358 -1.7555  1.1670
  177SLPC  C31520238   0.506   2.968   8.548 -0.5088  0.1385 -0.7520
  177SLPC  H15X20239   0.613   2.994   8.558 -0.0627 -1.6352 -0.6186
  177SLPC  H15Y20240   0.448   3.056   8.584  0.2517  0.2660  0.1787
  177SLPC  C31620241   0.455   2.946   8.402  0.7878  0.5911  0.2954
  177SLPC  H16X20242   0.347   2.923   8.413  0.9808  0.4382  2.1388
  177SLPC  H16Y20243   0.498   2.854   8.358 -0.0412 -1.1790  3.0273
  177SLPC  C31720244   0.480   3.067   8.316  0.2417  0.0076  0.0749
  177SLPC  H17X20245   0.590   3.068   8.303  0.1794 -0.5129 -0.5366
  177SLPC  H17Y20246   0.447   3.160   8.367  0.1058 -0.3372  0.6262
  177SLPC  C31820247   0.414   3.049   8.175  0.5461  0.1946 -0.5292
  177SLPC  H18X20248   0.408   2.948   8.130  0.7963 -0.6209  1.2149
  177SLPC  H18Y20249   0.473   3.112   8.105  1.7014  2.5263  2.3865
  177SLPC  H18Z20250   0.308   3.082   8.172 -0.4327 -2.6575  0.9834
  178SLPC     N20251   3.559   5.250  11.298 -0.9214  0.5063 -0.4187
  178SLPC   C1320252   3.517   5.367  11.378 -0.2958 -0.2891  0.0488
  178SLPC  H13A20253   3.425   5.410  11.339 -0.4358 -0.1643  0.5054
  178SLPC  H13B20254   3.496   5.339  11.480  1.7969  2.4789  1.2980
  178SLPC  H13C20255   3.598   5.438  11.372 -0.4903 -0.0161  0.5867
  178SLPC   C1420256   3.678   5.200  11.362  0.2803 -0.8803  0.2566
  178SLPC  H14A20257   3.664   5.167  11.464  1.7789 -0.1831  0.7066
  178SLPC  H14B20258   3.712   5.121  11.297  1.3655 -1.4375  1.4862
  178SLPC  H14C20259   3.751   5.280  11.363 -0.9083  0.2517 -1.4945
  178SLPC   C1520260   3.593   5.300  11.167  0.1082 -0.0781 -0.8027
  178SLPC  H15A20261   3.504   5.353  11.136 -0.3119  1.3546  2.6261
  178SLPC  H15B20262   3.680   5.362  11.156  1.0247 -1.4235 -1.1986
  178SLPC  H15C20263   3.603   5.222  11.093 -0.2596 -0.8139 -0.0890
  178SLPC   C1220264   3.460   5.133  11.287  0.1708  0.4722  0.3487
  178SLPC  H12A20265   3.373   5.161  11.229  1.0714  1.4871 -0.5369
  178SLPC  H12B20266   3.431   5.099  11.385  1.0605  0.5959  0.6614
  178SLPC   C1120267   3.513   5.006  11.213 -0.1116  0.2661  0.3936
  178SLPC  H11A20268   3.435   4.927  11.213 -0.7171  0.7667 -3.1262
  178SLPC  H11B20269   3.599   4.968  11.272 -0.0732 -1.9201 -1.0049
  178SLPC     P20270   3.606   4.942  10.979  0.4077 -0.0105  0.7723
  178SLPC   O1320271   3.685   5.018  10.884 -0.3182 -0.0754 -0.0480
  178SLPC   O1420272   3.678   4.843  11.056 -0.6105  0.4385 -0.3453
  178SLPC   O1220273   3.551   5.046  11.080 -0.5981 -0.1125  0.4479
  178SLPC   O1120274   3.480   4.881  10.913 -0.5177  0.7167  0.0830
  178SLPC    C120275   3.354   4.942  10.893 -0.3008  0.7735  0.7758
  178SLPC    HA20276   3.274   4.872  10.924  0.3877 -0.4200 -0.1505
  178SLPC    HB20277   3.338   5.031  10.959 -1.3006 -0.1600  1.8225
  178SLPC    C220278   3.352   4.982  10.742  0.1991  0.4485 -0.3447
  178SLPC    HS20279   3.411   5.073  10.717  0.1946  0.8650  1.1520
  178SLPC   O2120280   3.215   5.000  10.707 -0.6549 -0.7308 -0.1848
  178SLPC   C2120281   3.159   5.102  10.759 -0.0868  0.0466  0.6514
  178SLPC   O2220282   3.212   5.191  10.819 -0.3035 -0.3980  0.1790
  178SLPC   C2220283   3.011   5.113  10.730 -0.1319 -0.4097  0.0382
  178SLPC   H2R20284   2.959   5.106  10.828  1.2153 -0.6005  0.7683
  178SLPC   H2S20285   2.992   5.213  10.687 -3.3555 -1.5193 -1.2474
  178SLPC    C320286   3.423   4.877  10.654  0.0586 -0.5611  0.5483
  178SLPC    HX20287   3.394   4.773  10.682 -0.8063 -0.2753  0.7198
  178SLPC    HY20288   3.530   4.889  10.680 -0.5732  1.4869  2.3655
  178SLPC   O3120289   3.393   4.877  10.510  0.3454  0.0755 -0.5385
  178SLPC   C3120290   3.465   4.971  10.441  0.4712  0.0121  0.1368
  178SLPC   O3220291   3.552   5.032  10.492 -0.4873  0.2463  0.2606
  178SLPC   C3220292   3.425   4.966  10.299  0.8682 -0.3692 -0.0066
  178SLPC   H2X20293   3.316   4.989  10.301  0.6258 -1.5630  0.5668
  178SLPC   H2Y20294   3.416   4.862  10.261 -1.4350  0.7964 -2.9075
  178SLPC   C2320295   2.949   5.010  10.644  0.8546 -0.6397  0.3122
  178SLPC   H3R20296   2.839   5.023  10.647  0.9258 -0.0531  0.4858
  178SLPC   H3S20297   2.964   4.908  10.685  1.2571 -1.9468 -2.9686
  178SLPC   C2420298   2.995   5.027  10.500 -0.0861 -0.0614  0.2434
  178SLPC   H4R20299   3.075   4.952  10.479 -1.1032 -1.5809  1.6530
  178SLPC   H4S20300   3.034   5.130  10.486 -1.7053  1.0502  3.4928
  178SLPC   C2520301   2.891   5.012  10.385  0.6838  0.4916  0.4633
  178SLPC   H5R20302   2.820   5.097  10.381  1.0262  0.7264 -0.7527
  178SLPC   H5S20303   2.829   4.922  10.407 -0.8356  0.9903 -1.6478
  178SLPC   C2620304   2.949   5.015  10.245  0.0010 -0.5335 -0.0650
  178SLPC   H6R20305   2.877   4.955  10.186  0.3557  0.0608 -1.1293
  178SLPC   H6S20306   3.047   4.962  10.249  0.0762 -0.2634  1.8269
  178SLPC   C2720307   2.964   5.155  10.171  0.0876 -0.1295  0.7036
  178SLPC   H7R20308   3.010   5.226  10.243  0.7643 -0.0024  0.1566
  178SLPC   H7S20309   2.860   5.191  10.157 -0.2980 -0.8422  1.6668
  178SLPC   C2820310   3.044   5.140  10.036 -0.1675 -0.3440  0.0029
  178SLPC   H8R20311   3.144   5.092  10.048  0.5901  1.1432 -0.3406
  178SLPC   H8S20312   3.064   5.234   9.980 -1.2731  0.8223  1.5369
  178SLPC   C2920313   2.976   5.040   9.942 -0.2985  0.0955 -0.2827
  178SLPC   H9R20314   2.966   4.937   9.980 -2.7948 -0.1962 -1.5928
  178SLPC  C21020315   2.931   5.060   9.816 -0.4471  0.0863 -0.0274
  178SLPC  H10R20316   2.888   4.972   9.766  1.9179 -0.9623 -0.2964
  178SLPC  C21120317   2.944   5.182   9.729  0.3383 -0.2471  0.2704
  178SLPC  H11R20318   2.913   5.158   9.625  0.2163 -0.7561  0.4201
  178SLPC  H11S20319   3.053   5.204   9.737  0.0290  1.3997  0.0327
  178SLPC  C21220320   2.857   5.291   9.780  0.7739 -0.2432  0.3676
  178SLPC  H12R20321   2.848   5.291   9.890 -2.0426  0.3854  0.1922
  178SLPC  C21320322   2.771   5.373   9.723 -0.7165  0.3776 -0.0662
  178SLPC  H13R20323   2.703   5.433   9.785 -0.9540  0.5681 -0.5129
  178SLPC  C21420324   2.735   5.369   9.579 -0.0474  0.7654  0.3874
  178SLPC  H14R20325   2.801   5.316   9.507  1.4421  1.5463  1.1485
  178SLPC  H14S20326   2.738   5.475   9.546 -3.3831  0.6761 -0.4309
  178SLPC  C21520327   2.588   5.332   9.538 -0.1095 -0.1763  0.2928
  178SLPC  H15R20328   2.575   5.368   9.434  0.7445 -0.5369  0.0609
  178SLPC  H15S20329   2.512   5.372   9.608 -1.9658 -0.2775 -1.6067
  178SLPC  C21620330   2.565   5.178   9.545  0.1345 -0.2956  0.1415
  178SLPC  H16R20331   2.569   5.157   9.654  2.0157  0.0007  0.1494
  178SLPC  H16S20332   2.649   5.124   9.496 -0.1413 -1.1034  0.5501
  178SLPC  C21720333   2.431   5.137   9.487 -0.0542  0.2174 -0.3467
  178SLPC  H17R20334   2.432   5.027   9.506  2.7489  0.1615 -0.5217
  178SLPC  H17S20335   2.428   5.157   9.378 -0.5367  1.5524 -0.0971
  178SLPC  C21820336   2.309   5.195   9.555  0.5747 -0.5351 -0.2426
  178SLPC  H18R20337   2.213   5.158   9.512  0.3250 -0.5814  0.3532
  178SLPC  H18S20338   2.304   5.306   9.562  3.5895 -0.3645 -0.3788
  178SLPC  H18T20339   2.310   5.154   9.658  0.2185 -0.6329 -0.2762
  178SLPC   C3320340   3.492   5.073  10.205  0.0318 -0.1184  0.7136
  178SLPC   H3X20341   3.596   5.039  10.184 -0.3209  1.5915 -4.4267
  178SLPC   H3Y20342   3.488   5.173  10.253  2.1560  0.5398 -0.4076
  178SLPC   C3420343   3.419   5.092  10.073 -1.0213 -0.0385  0.5818
  178SLPC   H4X20344   3.340   5.168  10.089  0.5254  1.6584  0.2457
  178SLPC   H4Y20345   3.357   5.002  10.050 -2.3129  0.5802  1.5967
  178SLPC   C3520346   3.512   5.129   9.957  0.5633  0.1427  0.0969
  178SLPC   H5X20347   3.580   5.043   9.943  2.6463  1.6581  0.7220
  178SLPC   H5Y20348   3.569   5.216   9.995 -0.8542  0.1461  2.3394
  178SLPC   C3620349   3.451   5.170   9.822 -0.0591 -0.8796  0.4826
  178SLPC   H6X20350   3.527   5.204   9.748 -1.2271 -1.9138 -1.2431
  178SLPC   H6Y20351   3.385   5.257   9.839  1.9330  0.7170  0.2249
  178SLPC   C3720352   3.367   5.063   9.761 -0.0321 -0.1171  0.0873
  178SLPC   H7X20353   3.283   5.046   9.832  0.0373  0.5932  0.3462
  178SLPC   H7Y20354   3.419   4.967   9.739 -1.7068 -0.8091 -0.9630
  178SLPC   C3820355   3.308   5.115   9.628  0.1569  0.0439 -0.2845
  178SLPC   H8X20356   3.276   5.220   9.643 -1.2548 -0.1461 -1.9044
  178SLPC   H8Y20357   3.214   5.065   9.598  1.8064 -1.6158 -2.9282
  178SLPC   C3920358   3.420   5.095   9.521 -0.0508  0.2636 -0.0686
  178SLPC   H9X20359   3.439   4.988   9.495  1.3826  0.5364 -0.1862
  178SLPC   H9Y20360   3.518   5.131   9.558  1.1791 -1.9064 -1.1431
  178SLPC  C31020361   3.384   5.187   9.402  0.1445  0.1899  0.3988
  178SLPC  H10X20362   3.464   5.183   9.325 -1.5028  1.6819 -1.4723
  178SLPC  H10Y20363   3.370   5.291   9.437 -0.4841  0.1672  0.2291
  178SLPC  C31120364   3.268   5.154   9.314 -0.3152  0.1359  0.5275
  178SLPC  H11X20365   3.173   5.150   9.372 -1.3922 -0.9796 -1.2606
  178SLPC  H11Y20366   3.273   5.062   9.252 -0.1361  0.2364  0.3934
  178SLPC  C31220367   3.249   5.253   9.189 -0.2603  0.4841 -0.4100
  178SLPC  H12X20368   3.232   5.350   9.241  0.8564 -0.1276  1.1583
  178SLPC  H12Y20369   3.159   5.224   9.131  0.3749  1.3288 -1.8471
  178SLPC  C31320370   3.375   5.279   9.106 -0.1017 -0.2860 -0.2404
  178SLPC  H13X20371   3.397   5.191   9.041 -2.5234 -1.0110 -0.1443
  178SLPC  H13Y20372   3.469   5.298   9.162 -0.3089 -0.1076  0.0489
  178SLPC  C31420373   3.358   5.395   9.006 -0.1226 -0.8515 -0.0795
  178SLPC  H14X20374   3.263   5.392   8.948 -0.5453  0.7569  0.5160
  178SLPC  H14Y20375   3.438   5.392   8.929 -0.5516 -1.4630 -0.5119
  178SLPC  C31520376   3.368   5.531   9.080  0.3859 -0.3925  0.0654
  178SLPC  H15X20377   3.275   5.562   9.132 -0.3228 -0.6824 -1.0207
  178SLPC  H15Y20378   3.450   5.519   9.155  0.5777  1.0268  0.1037
  178SLPC  C31620379   3.407   5.650   8.990 -0.5459 -0.8924 -0.4164
  178SLPC  H16X20380   3.319   5.692   8.937 -1.7604 -0.2745  2.0028
  178SLPC  H16Y20381   3.479   5.617   8.913 -0.7185 -2.2884  0.0076
  178SLPC  C31720382   3.466   5.764   9.071 -0.2082 -0.3357 -0.5993
  178SLPC  H17X20383   3.495   5.851   9.008 -2.9462  0.6490 -0.5470
  178SLPC  H17Y20384   3.557   5.735   9.129 -0.7296 -0.3223  0.2263
  178SLPC  C31820385   3.369   5.834   9.179 -0.0458 -0.1980  0.2886
  178SLPC  H18X20386   3.304   5.760   9.232 -1.3596  0.3680 -0.4979
  178SLPC  H18Y20387   3.306   5.901   9.117  1.3685  1.1123  0.2397
  178SLPC  H18Z20388   3.431   5.894   9.249 -1.6583  0.2589  1.3728
  179SLPC     N20389   4.226   2.307  10.612  0.0287 -0.2949 -0.1684
  179SLPC   C1320390   4.087   2.261  10.606 -0.5721 -0.7691 -0.8680
  179SLPC  H13A20391   4.016   2.338  10.630 -0.4652 -0.6233 -1.0183
  179SLPC  H13B20392   4.065   2.229  10.506  1.0317 -2.2905 -0.7564
  179SLPC  H13C20393   4.066   2.187  10.682 -3.5026 -0.7385 -1.5960
  179SLPC   C1420394   4.321   2.190  10.595  0.4178 -0.5638 -0.0106
  179SLPC  H14A20395   4.314   2.126  10.681  0.0613  0.9610  1.1153
  179SLPC  H14B20396   4.288   2.131  10.510  1.5753  0.8763 -1.5040
  179SLPC  H14C20397   4.424   2.220  10.600 -0.5935  3.3035 -0.3890
  179SLPC   C1520398   4.255   2.369  10.746 -0.3204 -0.3293  0.7013
  179SLPC  H15A20399   4.211   2.467  10.759  2.2773  1.2743 -1.8966
  179SLPC  H15B20400   4.199   2.316  10.821 -0.9961 -2.1751 -1.0342
  179SLPC  H15C20401   4.360   2.372  10.769 -0.2682 -2.5463  0.8355
  179SLPC   C1220402   4.251   2.406  10.505 -0.3960  0.7864  0.0220
  179SLPC  H12A20403   4.215   2.362  10.413 -1.1750 -0.7332  1.0421
  179SLPC  H12B20404   4.358   2.407  10.489 -0.5844  1.2649 -1.3252
  179SLPC   C1120405   4.188   2.547  10.515 -0.2649  0.2425  0.0995
  179SLPC  H11A20406   4.206   2.619  10.432 -2.0442  0.6382  0.0343
  179SLPC  H11B20407   4.239   2.596  10.601 -0.7800  1.9801 -0.5569
  179SLPC     P20408   3.954   2.546  10.423 -0.1585 -0.1970  0.2813
  179SLPC   O1320409   3.858   2.435  10.443 -0.6559  0.5229  0.1219
  179SLPC   O1420410   3.900   2.682  10.398  0.5519 -0.1652  0.1621
  179SLPC   O1220411   4.050   2.543  10.544  0.2214 -0.0472  0.3023
  179SLPC   O1120412   4.042   2.522  10.299 -0.4199  0.4894 -0.2042
  179SLPC    C120413   4.035   2.411  10.202 -0.4627  0.1527 -0.6018
  179SLPC    HA20414   4.102   2.331  10.240 -1.1103  0.6728  1.7303
  179SLPC    HB20415   3.931   2.371  10.196 -0.6494  0.6453 -0.6797
  179SLPC    C220416   4.092   2.448  10.060  0.9501 -1.0357  0.1127
  179SLPC    HS20417   4.129   2.355  10.011 -1.0749 -1.7795 -0.0369
  179SLPC   O2120418   4.189   2.557  10.074 -0.1864  0.0851  0.2801
  179SLPC   C2120419   4.307   2.504  10.118  0.1107  0.4305 -0.3877
  179SLPC   O2220420   4.319   2.384  10.140 -0.5938 -0.0083  0.0609
  179SLPC   C2220421   4.402   2.614  10.148  0.0473 -0.3089  0.8226
  179SLPC   H2R20422   4.355   2.707  10.109  3.9836  1.6180  0.4670
  179SLPC   H2S20423   4.413   2.626  10.258  1.8937  1.9368  0.4450
  179SLPC    C320424   3.981   2.508   9.976  0.0496  0.0591 -0.3983
  179SLPC    HX20425   3.938   2.601  10.018  1.9721  0.9388 -0.3673
  179SLPC    HY20426   3.892   2.441   9.975 -0.5462  0.8417 -0.6808
  179SLPC   O3120427   4.032   2.544   9.847  0.2053 -0.2221  0.4086
  179SLPC   C3120428   4.043   2.442   9.767  0.6370 -0.7049  0.0990
  179SLPC   O3220429   4.005   2.330   9.780  0.2975 -0.4956 -0.1817
  179SLPC   C3220430   4.114   2.506   9.645  0.1159  0.0068  0.1183
  179SLPC   H2X20431   4.215   2.532   9.681  0.1988  2.2124 -1.6479
  179SLPC   H2Y20432   4.055   2.595   9.614 -2.3284 -0.8370  2.1723
  179SLPC   C2320433   4.547   2.581  10.094 -0.5166 -0.0787  0.0288
  179SLPC   H3R20434   4.583   2.482  10.130  0.4334  1.0987  2.4998
  179SLPC   H3S20435   4.619   2.644  10.150  1.6744 -2.9039  0.4876
  179SLPC   C2420436   4.558   2.628   9.946 -0.2488  0.1675 -0.3282
  179SLPC   H4R20437   4.665   2.652   9.925  0.4699 -0.4911  2.3231
  179SLPC   H4S20438   4.493   2.715   9.922 -1.4210 -0.7966 -0.6849
  179SLPC   C2520439   4.545   2.507   9.864  0.3583 -0.4905  0.2137
  179SLPC   H5R20440   4.438   2.479   9.857  0.3830 -0.4401 -0.3590
  179SLPC   H5S20441   4.591   2.424   9.922 -0.7006 -1.4363 -0.2847
  179SLPC   C2620442   4.603   2.539   9.729  0.1653  0.4216  0.0976
  179SLPC   H6R20443   4.713   2.538   9.748  0.1309 -0.6760  0.2319
  179SLPC   H6S20444   4.562   2.638   9.698  1.2923  0.5093 -1.1780
  179SLPC   C2720445   4.570   2.435   9.623 -0.0149  0.7258  0.1830
  179SLPC   H7R20446   4.462   2.412   9.608 -0.0403  1.0591 -0.1331
  179SLPC   H7S20447   4.618   2.338   9.647  0.1641  0.4122 -1.3780
  179SLPC   C2820448   4.638   2.472   9.486  1.2376 -0.0173 -0.3544
  179SLPC   H8R20449   4.630   2.379   9.427 -0.5602 -0.1820  0.1314
  179SLPC   H8S20450   4.746   2.493   9.503  1.3599 -0.4242 -0.6394
  179SLPC   C2920451   4.577   2.581   9.405  0.3014  0.2400  0.2427
  179SLPC   H9R20452   4.489   2.631   9.449  0.2560 -1.8665  2.6899
  179SLPC  C21020453   4.593   2.613   9.279  0.8565  0.5009 -0.3136
  179SLPC  H10R20454   4.527   2.692   9.241  0.6972  1.1608  1.3171
  179SLPC  C21120455   4.685   2.556   9.167  0.3139  0.5775 -0.3244
  179SLPC  H11R20456   4.621   2.554   9.076 -1.0393  0.0588  0.6257
  179SLPC  H11S20457   4.718   2.454   9.197 -1.2141  0.4359  0.9493
  179SLPC  C21220458   4.798   2.660   9.156  0.3125  0.1116 -0.2014
  179SLPC  H12R20459   4.849   2.690   9.249 -1.6093 -1.4533  1.3970
  179SLPC  C21320460   4.827   2.733   9.049  0.4629 -0.1035 -0.6107
  179SLPC  H13R20461   4.910   2.804   9.067  0.0653  0.3327 -0.4926
  179SLPC  C21420462   4.759   2.744   8.916  0.1294 -1.1077  0.0347
  179SLPC  H14R20463   4.682   2.824   8.908  0.9702 -0.4198 -1.3812
  179SLPC  H14S20464   4.706   2.650   8.888 -1.2124  0.2564 -2.1896
  179SLPC  C21520465   4.862   2.777   8.806  0.0140  0.0799  0.5365
  179SLPC  H15R20466   4.942   2.700   8.800 -0.4378 -0.2401 -1.7673
  179SLPC  H15S20467   4.913   2.875   8.818 -1.9372  1.4071 -1.5301
  179SLPC  C21620468   4.790   2.784   8.665 -0.4379 -0.1390  0.5571
  179SLPC  H16R20469   4.698   2.723   8.664 -1.7478  1.8099 -0.3827
  179SLPC  H16S20470   4.870   2.732   8.607 -1.4519 -0.3942 -0.6266
  179SLPC  C21720471   4.779   2.931   8.618 -0.1724  0.5345  0.3017
  179SLPC  H17R20472   4.885   2.967   8.620  0.1604 -0.1921 -2.3702
  179SLPC  H17S20473   4.715   2.997   8.680  0.7461  1.0051  0.7583
  179SLPC  C21820474   4.743   2.950   8.465  0.3730  0.3811  0.0843
  179SLPC  H18R20475   4.754   3.059   8.450  1.6531  0.2968  0.3816
  179SLPC  H18S20476   4.641   2.924   8.428  0.7872 -0.0670 -0.7470
  179SLPC  H18T20477   4.823   2.906   8.403  0.5220  1.1054 -0.2398
  179SLPC   C3320478   4.114   2.408   9.523  0.1649 -0.4088 -0.5778
  179SLPC   H3X20479   4.011   2.367   9.515  0.7741 -1.7159 -2.0699
  179SLPC   H3Y20480   4.191   2.330   9.542  1.2227  1.2716  2.3732
  179SLPC   C3420481   4.157   2.484   9.399 -0.6432  0.3667  0.5066
  179SLPC   H4X20482   4.241   2.553   9.422  2.0096 -2.0030 -1.6221
  179SLPC   H4Y20483   4.071   2.549   9.372 -1.1839  0.9252  3.4612
  179SLPC   C3520484   4.201   2.394   9.289  0.4123 -0.0289 -0.7621
  179SLPC   H5X20485   4.118   2.320   9.280  0.8666 -0.7041  0.4300
  179SLPC   H5Y20486   4.289   2.333   9.318  0.7428  0.9938  0.4420
  179SLPC   C3620487   4.226   2.465   9.158  0.3251  0.4209 -0.1975
  179SLPC   H6X20488   4.299   2.546   9.179  0.9444  0.1480 -1.2705
  179SLPC   H6Y20489   4.129   2.510   9.125  0.7994  0.2023 -1.9109
  179SLPC   C3720490   4.295   2.384   9.042  0.5316 -0.1659 -0.0312
  179SLPC   H7X20491   4.225   2.301   9.020  0.3308 -0.2555  0.9208
  179SLPC   H7Y20492   4.393   2.351   9.083  0.4236 -1.1636 -0.5817
  179SLPC   C3820493   4.322   2.471   8.920 -0.2339  0.4014 -0.0072
  179SLPC   H8X20494   4.396   2.549   8.947  0.2664 -0.0161 -0.1555
  179SLPC   H8Y20495   4.225   2.519   8.896  0.2950  1.3680 -0.1950
  179SLPC   C3920496   4.366   2.388   8.789  0.6570  0.4679 -0.5380
  179SLPC   H9X20497   4.300   2.299   8.779 -0.8872  1.4515  0.5825
  179SLPC   H9Y20498   4.464   2.335   8.798 -0.5547 -1.5418  1.5208
  179SLPC  C31020499   4.364   2.473   8.663 -0.8656 -0.0963 -0.9689
  179SLPC  H10X20500   4.447   2.546   8.677 -0.4687 -0.7120 -0.0408
  179SLPC  H10Y20501   4.267   2.522   8.640 -0.5934  0.7199 -0.4041
  179SLPC  C31120502   4.402   2.388   8.545  0.5560  0.2840 -0.5484
  179SLPC  H11X20503   4.326   2.310   8.523 -1.8651  2.5026 -0.2423
  179SLPC  H11Y20504   4.495   2.335   8.575 -0.0376  0.5842  1.8953
  179SLPC  C31220505   4.410   2.482   8.423 -0.3512 -0.4709  0.3439
  179SLPC  H12X20506   4.506   2.537   8.434 -0.4345 -0.4202  0.8383
  179SLPC  H12Y20507   4.320   2.546   8.417 -0.1927 -0.3076 -0.3087
  179SLPC  C31320508   4.424   2.406   8.295  0.0938  0.1322  0.3189
  179SLPC  H13X20509   4.349   2.325   8.303  0.5746 -0.3838 -0.2611
  179SLPC  H13Y20510   4.530   2.375   8.278 -0.2117  0.6773 -2.9424
  179SLPC  C31420511   4.394   2.475   8.163 -0.3413 -0.0697 -0.1089
  179SLPC  H14X20512   4.451   2.570   8.167  0.8201 -0.7799  0.2489
  179SLPC  H14Y20513   4.286   2.500   8.162  0.0920  1.8696  0.0236
  179SLPC  C31520514   4.442   2.391   8.046 -0.1801 -0.1387  0.4777
  179SLPC  H15X20515   4.413   2.286   8.063  1.4895 -0.3295  2.3187
  179SLPC  H15Y20516   4.553   2.401   8.038 -0.1855 -0.0454  0.5098
  179SLPC  C31620517   4.378   2.452   7.921 -0.1223 -0.7244  0.4348
  179SLPC  H16X20518   4.408   2.558   7.910 -2.6307  0.1712  1.8795
  179SLPC  H16Y20519   4.269   2.462   7.936  0.0983  2.7705  0.0472
  179SLPC  C31720520   4.407   2.370   7.803 -0.0975 -0.5609  0.0388
  179SLPC  H17X20521   4.513   2.338   7.807  0.0293 -0.3315 -1.3064
  179SLPC  H17Y20522   4.397   2.437   7.715 -0.4328  1.6918  1.7544
  179SLPC  C31820523   4.323   2.239   7.805  0.5896 -0.1310 -0.6048
  179SLPC  H18X20524   4.351   2.194   7.707 -0.3398  0.9065 -1.3672
  179SLPC  H18Y20525   4.214   2.259   7.799 -0.1524 -2.8920  2.2463
  179SLPC  H18Z20526   4.350   2.170   7.888  0.3949  0.7189  0.1796
  180SLPC     N20527   4.972   5.889  11.066  0.2993  0.1125 -0.5670
  180SLPC   C1320528   5.097   5.911  11.143 -0.4115 -0.5478 -0.3614
  180SLPC  H13A20529   5.186   5.895  11.084 -0.4633 -1.1842 -0.2640
  180SLPC  H13B20530   5.100   6.005  11.197 -1.4885 -0.8557  0.2412
  180SLPC  H13C20531   5.106   5.838  11.222 -0.4357 -0.4099 -0.2326
  180SLPC   C1420532   4.862   5.935  11.154  0.3612  0.2483  0.1948
  180SLPC  H14A20533   4.869   6.043  11.163 -2.3625  0.3360  1.8795
  180SLPC  H14B20534   4.768   5.928  11.101  0.1708 -2.0585  0.8103
  180SLPC  H14C20535   4.852   5.884  11.248  1.4837 -1.3643 -0.5415
  180SLPC   C1520536   4.950   5.751  11.023 -0.2914  0.5666 -0.8589
  180SLPC  H15A20537   4.872   5.741  10.949 -0.6075  0.8092 -0.5574
  180SLPC  H15B20538   5.047   5.723  10.982  0.8401  1.9236  0.8116
  180SLPC  H15C20539   4.930   5.686  11.107  0.5062  2.1725  0.6084
  180SLPC   C1220540   4.977   5.984  10.942  0.0994 -0.4009  0.1631
  180SLPC  H12A20541   5.013   6.084  10.959 -2.4281  0.2204  2.0862
  180SLPC  H12B20542   4.874   5.998  10.909 -0.2459 -0.8535  1.0428
  180SLPC   C1120543   5.070   5.942  10.821  0.2854 -0.3593 -0.8166
  180SLPC  H11A20544   5.051   6.020  10.744 -2.8620  1.2943  1.4858
  180SLPC  H11B20545   5.048   5.837  10.792 -1.3775 -0.1062 -0.5348
  180SLPC     P20546   5.321   5.862  10.819  0.2870  0.3394  0.3947
  180SLPC   O1320547   5.445   5.905  10.888 -0.3361  0.0114  0.6391
  180SLPC   O1420548   5.290   5.721  10.836 -0.0998  0.0171  0.1766
  180SLPC   O1220549   5.197   5.943  10.873  0.5353 -0.2096  0.3768
  180SLPC   O1120550   5.330   5.897  10.664  0.2814 -0.2033  0.1116
  180SLPC    C120551   5.329   5.796  10.566 -0.1266 -0.2615 -0.0660
  180SLPC    HA20552   5.404   5.719  10.596  1.7160  1.2578 -0.6073
  180SLPC    HB20553   5.226   5.760  10.545  0.3194 -1.9369  0.4991
  180SLPC    C220554   5.373   5.857  10.430 -1.2672 -0.4197 -0.6954
  180SLPC    HS20555   5.472   5.906  10.438 -1.5314  0.7942 -4.1498
  180SLPC   O2120556   5.272   5.941  10.380  0.2060  0.5765 -0.3928
  180SLPC   C2120557   5.306   6.047  10.315 -0.5204  0.7009  0.0000
  180SLPC   O2220558   5.419   6.095  10.299 -0.2499 -0.3528 -0.2083
  180SLPC   C2220559   5.176   6.102  10.245  0.7895 -0.2236  0.0092
  180SLPC   H2R20560   5.097   6.024  10.249  0.5979  0.0039  0.7503
  180SLPC   H2S20561   5.143   6.197  10.292  1.1123  0.0114 -0.2391
  180SLPC    C320562   5.403   5.731  10.345  1.0526 -0.7669  0.0358
  180SLPC    HX20563   5.330   5.649  10.359 -0.3412  0.4802  0.0879
  180SLPC    HY20564   5.497   5.683  10.381  1.2195 -0.6610 -0.2571
  180SLPC   O3120565   5.404   5.771  10.207 -0.1234  0.0930  0.3672
  180SLPC   C3120566   5.509   5.733  10.139 -1.1315  0.0272 -0.5215
  180SLPC   O3220567   5.613   5.684  10.181  0.2195  0.0645  0.1905
  180SLPC   C3220568   5.485   5.759   9.989 -0.3328 -0.2557  0.3133
  180SLPC   H2X20569   5.584   5.782   9.944  0.3229 -0.5736  1.5669
  180SLPC   H2Y20570   5.410   5.841   9.985 -2.2346 -1.7407  3.3618
  180SLPC   C2320571   5.217   6.122  10.099  0.5131 -0.0912 -0.1985
  180SLPC   H3R20572   5.263   6.028  10.061  2.5692  1.2167 -1.0872
  180SLPC   H3S20573   5.308   6.185  10.090  0.9437 -0.7896 -0.8375
  180SLPC   C2420574   5.100   6.156  10.006 -0.4023 -0.6616  0.6912
  180SLPC   H4R20575   5.063   6.258  10.028  0.7613  0.0442 -0.5255
  180SLPC   H4S20576   5.022   6.079  10.021 -0.3045 -0.9743 -0.3146
  180SLPC   C2520577   5.131   6.161   9.855  0.3410 -0.1226  0.3643
  180SLPC   H5R20578   5.163   6.067   9.805 -0.5408  0.0050 -0.4574
  180SLPC   H5S20579   5.207   6.238   9.828  1.1846 -0.9338  0.4086
  180SLPC   C2620580   5.001   6.197   9.778  0.5050  0.2979 -0.5010
  180SLPC   H6R20581   4.983   6.304   9.801  0.2306  0.2062 -0.2993
  180SLPC   H6S20582   4.912   6.143   9.818  1.2500  0.9540  2.1301
  180SLPC   C2720583   5.010   6.170   9.622 -0.5019  0.4696 -0.4073
  180SLPC   H7R20584   5.035   6.062   9.615  0.4394  0.4657  2.2369
  180SLPC   H7S20585   5.100   6.216   9.576  1.2496 -1.7567  0.6999
  180SLPC   C2820586   4.880   6.196   9.543  0.2587 -0.3603  0.8517
  180SLPC   H8R20587   4.798   6.212   9.616 -0.3105  3.6017 -0.5012
  180SLPC   H8S20588   4.855   6.114   9.472 -0.1816  2.0113 -1.8272
  180SLPC   C2920589   4.891   6.328   9.469  0.0553 -0.1376 -0.2303
  180SLPC   H9R20590   4.870   6.419   9.526  1.2940 -1.2341  2.0278
  180SLPC  C21020591   4.939   6.342   9.343 -1.1892  1.4048  0.0308
  180SLPC  H10R20592   4.940   6.446   9.306  2.0843  1.2082 -0.6051
  180SLPC  C21120593   4.974   6.224   9.258 -0.1174 -0.5166 -0.3504
  180SLPC  H11R20594   4.947   6.255   9.155 -0.1038  0.5605 -0.0376
  180SLPC  H11S20595   4.901   6.143   9.281  1.0432 -1.8179 -1.1764
  180SLPC  C21220596   5.109   6.170   9.278  0.1503 -0.1780 -0.2326
  180SLPC  H12R20597   5.142   6.185   9.381  1.1597 -1.4481 -0.3559
  180SLPC  C21320598   5.192   6.119   9.183 -0.2525 -0.0798  0.5845
  180SLPC  H13R20599   5.297   6.099   9.212  0.0258 -0.2837 -0.5584
  180SLPC  C21420600   5.170   6.110   9.030 -0.2958  0.0689 -0.5446
  180SLPC  H14R20601   5.067   6.147   9.009 -1.3152 -2.1065  0.3677
  180SLPC  H14S20602   5.188   6.005   8.997 -0.3217 -0.8776  2.2838
  180SLPC  C21520603   5.261   6.207   8.963 -0.2383 -0.4253 -0.0523
  180SLPC  H15R20604   5.362   6.164   8.979 -0.3548 -1.2406 -1.4565
  180SLPC  H15S20605   5.257   6.305   9.016 -2.0342 -0.3071 -0.3987
  180SLPC  C21620606   5.232   6.204   8.817  0.3886  0.2965 -0.0328
  180SLPC  H16R20607   5.137   6.260   8.802 -0.4301 -0.3813  2.3865
  180SLPC  H16S20608   5.208   6.101   8.783 -1.6718  0.4739  0.7944
  180SLPC  C21720609   5.336   6.266   8.721 -0.4258  0.0818  0.0196
  180SLPC  H17R20610   5.381   6.360   8.757 -0.2033  0.0710 -0.2301
  180SLPC  H17S20611   5.289   6.293   8.624 -0.8637  1.0346  0.4869
  180SLPC  C21820612   5.445   6.160   8.695 -0.4955 -0.4019  0.4577
  180SLPC  H18R20613   5.533   6.216   8.656 -1.2755  2.2791  2.3792
  180SLPC  H18S20614   5.412   6.097   8.610  0.8658  0.7117 -0.9160
  180SLPC  H18T20615   5.468   6.095   8.782  1.5214 -1.4007 -0.8044
  180SLPC   C3320616   5.422   5.647   9.907 -0.1479 -0.6405 -0.3990
  180SLPC   H3X20617   5.315   5.633   9.931 -0.0616  1.9232  1.6063
  180SLPC   H3Y20618   5.478   5.553   9.927  1.1130 -0.2589 -2.0348
  180SLPC   C3420619   5.435   5.677   9.755 -0.3931  0.0887  0.2892
  180SLPC   H4X20620   5.407   5.586   9.697 -0.4132 -0.8706  1.7804
  180SLPC   H4Y20621   5.543   5.700   9.742 -0.9195  2.8325  0.4211
  180SLPC   C3520622   5.351   5.805   9.706 -0.7641 -0.0847 -0.1984
  180SLPC   H5X20623   5.401   5.891   9.756  1.4036 -1.0313 -0.6820
  180SLPC   H5Y20624   5.251   5.788   9.751  0.0302  0.9853  2.0763
  180SLPC   C3620625   5.345   5.828   9.555  0.0179  0.1677  0.3662
  180SLPC   H6X20626   5.290   5.922   9.536  2.8037  2.3156  2.4505
  180SLPC   H6Y20627   5.290   5.745   9.504 -1.5646 -0.0928  2.4602
  180SLPC   C3720628   5.486   5.840   9.487  1.0789 -0.1444 -0.3973
  180SLPC   H7X20629   5.537   5.743   9.500 -0.2174 -0.8047 -0.1646
  180SLPC   H7Y20630   5.547   5.923   9.529  0.7229 -1.1101  2.0805
  180SLPC   C3820631   5.467   5.875   9.339 -0.4895 -0.8746  0.4730
  180SLPC   H8X20632   5.400   5.961   9.317 -0.4851 -0.3500  2.4701
  180SLPC   H8Y20633   5.420   5.782   9.302 -2.4206 -0.2058  1.2046
  180SLPC   C3920634   5.598   5.916   9.272  0.2326 -0.3911  0.0641
  180SLPC   H9X20635   5.680   5.840   9.274  0.4929 -0.2050 -1.9226
  180SLPC   H9Y20636   5.644   6.005   9.320  1.6494 -0.9099 -0.2806
  180SLPC  C31020637   5.581   5.942   9.117  0.2962  0.4070 -0.2766
  180SLPC  H10X20638   5.509   6.026   9.110  1.8998  1.8628  0.2486
  180SLPC  H10Y20639   5.534   5.851   9.074  0.9877  0.6976 -1.6540
  180SLPC  C31120640   5.713   5.950   9.042  0.3417 -0.1595 -0.7736
  180SLPC  H11X20641   5.781   5.865   9.068  0.4004  0.4391  1.0811
  180SLPC  H11Y20642   5.769   6.044   9.061  1.0832 -0.9881  1.2102
  180SLPC  C31220643   5.689   5.955   8.893  0.2450 -0.2922 -0.4460
  180SLPC  H12X20644   5.650   6.058   8.884  1.1979  0.2579  1.4408
  180SLPC  H12Y20645   5.604   5.889   8.866 -0.4450  0.5582 -0.3515
  180SLPC  C31320646   5.813   5.942   8.808  0.3382 -0.1857  0.2457
  180SLPC  H13X20647   5.850   5.841   8.778 -0.2710  0.2893 -2.2012
  180SLPC  H13Y20648   5.901   5.982   8.863 -0.1625  0.1558  0.7962
  180SLPC  C31420649   5.809   6.031   8.684  0.5395 -0.1718  0.0357
  180SLPC  H14X20650   5.914   6.063   8.668  0.6954 -0.5727  0.2392
  180SLPC  H14Y20651   5.748   6.122   8.703  1.7774  0.5507  0.5559
  180SLPC  C31520652   5.741   5.959   8.563 -0.2111 -0.6505  0.1202
  180SLPC  H15X20653   5.644   5.913   8.594 -0.4712 -0.4252 -0.3479
  180SLPC  H15Y20654   5.813   5.877   8.539  0.3384  0.0266 -0.5799
  180SLPC  C31620655   5.705   6.043   8.443  0.3818  0.2383 -0.8130
  180SLPC  H16X20656   5.794   6.074   8.384  1.9611  0.4551  1.6191
  180SLPC  H16Y20657   5.667   6.143   8.473 -1.4565 -0.1561 -1.7724
  180SLPC  C31720658   5.607   5.976   8.346 -0.0991  0.4562  0.2934
  180SLPC  H17X20659   5.511   5.969   8.401 -0.2254  1.4808  0.2173
  180SLPC  H17Y20660   5.650   5.876   8.324  0.4169  0.3120  1.9189
  180SLPC  C31820661   5.585   6.057   8.223  0.4102  0.3344 -0.3733
  180SLPC  H18X20662   5.566   6.161   8.258  1.1180 -0.0368  1.1542
  180SLPC  H18Y20663   5.503   6.020   8.158  1.4386  0.8113 -1.9797
  180SLPC  H18Z20664   5.669   6.037   8.153  1.9309 -0.7142  1.7099
  181SLPC     N20665   1.507   3.724  11.204 -0.2889  0.1044 -0.0084
  181SLPC   C1320666   1.580   3.723  11.342 -0.3015  0.3852 -0.1066
  181SLPC  H13A20667   1.554   3.631  11.393 -0.8606  0.2981 -0.5491
  181SLPC  H13B20668   1.685   3.735  11.321 -0.1697 -1.4018 -0.5631
  181SLPC  H13C20669   1.557   3.809  11.403 -1.5461 -0.2126  0.2773
  181SLPC   C1420670   1.577   3.834  11.131 -0.3531  0.6302 -0.2026
  181SLPC  H14A20671   1.547   3.845  11.028 -3.2548 -0.5480  0.4530
  181SLPC  H14B20672   1.568   3.935  11.170 -1.4498  0.1449  0.8501
  181SLPC  H14C20673   1.683   3.815  11.125 -0.4337  0.6557 -1.8069
  181SLPC   C1520674   1.359   3.746  11.219 -0.4971 -0.9364 -0.9674
  181SLPC  H15A20675   1.324   3.656  11.267  0.7777  0.2389  2.3324
  181SLPC  H15B20676   1.347   3.830  11.286 -0.1348 -2.4929  1.1050
  181SLPC  H15C20677   1.310   3.763  11.125 -0.0691  2.3160 -0.6677
  181SLPC   C1220678   1.543   3.601  11.129  0.3415  0.3108 -0.1114
  181SLPC  H12A20679   1.646   3.607  11.098  0.8496 -1.1629  1.2143
  181SLPC  H12B20680   1.490   3.599  11.035 -1.2408 -1.1567  0.7788
  181SLPC   C1120681   1.497   3.463  11.183 -0.4537 -0.5260  0.0557
  181SLPC  H11A20682   1.526   3.458  11.290 -0.7452  0.8851  0.2024
  181SLPC  H11B20683   1.561   3.387  11.133  0.5870 -0.0824  0.6925
  181SLPC     P20684   1.294   3.408  11.020  0.0217 -0.8014  0.3158
  181SLPC   O1320685   1.313   3.267  10.985 -0.1219 -0.2445 -0.0609
  181SLPC   O1420686   1.155   3.454  11.026  0.6051 -0.1262 -0.1444
  181SLPC   O1220687   1.356   3.443  11.167  0.1135  0.5751 -0.2024
  181SLPC   O1120688   1.369   3.500  10.921  0.6696 -0.2372 -0.1307
  181SLPC    C120689   1.445   3.457  10.809  0.2826  0.6827 -0.6293
  181SLPC    HA20690   1.546   3.422  10.837 -0.1317 -1.2613 -1.4807
  181SLPC    HB20691   1.393   3.372  10.759 -0.1855  0.7908 -0.3288
  181SLPC    C220692   1.465   3.569  10.700  0.0089 -0.0820  0.2424
  181SLPC    HS20693   1.513   3.643  10.767  0.6960 -2.7419  2.7977
  181SLPC   O2120694   1.329   3.610  10.661  0.7334  0.6971 -0.3911
  181SLPC   C2120695   1.312   3.738  10.642 -0.3685 -0.3646 -0.1813
  181SLPC   O2220696   1.400   3.818  10.634 -0.2414 -0.4437  0.7112
  181SLPC   C2220697   1.166   3.774  10.621 -0.0242 -0.4532  0.0206
  181SLPC   H2R20698   1.114   3.683  10.583 -1.2730 -0.4126  1.6068
  181SLPC   H2S20699   1.116   3.799  10.717 -1.5193 -0.2748 -0.7916
  181SLPC    C320700   1.555   3.523  10.585 -0.0819  0.3751  0.3793
  181SLPC    HX20701   1.523   3.430  10.534  0.1559  0.7038 -0.3692
  181SLPC    HY20702   1.639   3.495  10.653  0.9171  2.5016  0.0684
  181SLPC   O3120703   1.609   3.631  10.499 -0.3699 -0.3647  0.0259
  181SLPC   C3120704   1.533   3.661  10.395 -0.8395 -0.1198 -0.5372
  181SLPC   O3220705   1.441   3.592  10.360 -0.1338  0.0041 -0.6925
  181SLPC   C3220706   1.572   3.793  10.335 -0.2271 -0.1171  0.1022
  181SLPC   H2X20707   1.679   3.806  10.361  0.0469  0.4853 -1.2844
  181SLPC   H2Y20708   1.515   3.876  10.384 -0.2951 -0.0465 -0.0971
  181SLPC   C2320709   1.140   3.890  10.523  0.8059  0.3035 -0.4043
  181SLPC   H3R20710   1.214   3.969  10.548 -1.5462  2.2675  0.5415
  181SLPC   H3S20711   1.037   3.923  10.546  0.4705 -1.3786  0.5627
  181SLPC   C2420712   1.153   3.845  10.379  0.6285  0.5639  0.1668
  181SLPC   H4R20713   1.103   3.746  10.375 -0.6190  1.0900  2.1201
  181SLPC   H4S20714   1.259   3.826  10.351 -0.3640 -1.2533 -2.6508
  181SLPC   C2520715   1.084   3.938  10.280  0.2086  0.6145 -0.4348
  181SLPC   H5R20716   1.122   4.041  10.298  0.2173  0.5569 -0.1289
  181SLPC   H5S20717   0.975   3.938  10.300  0.1682  0.9088 -0.6545
  181SLPC   C2620718   1.108   3.883  10.144 -0.4815  0.2627 -0.0311
  181SLPC   H6R20719   1.046   3.791  10.147 -3.2241  2.0644  0.9084
  181SLPC   H6S20720   1.215   3.859  10.126 -0.8129 -0.1932 -1.4671
  181SLPC   C2720721   1.059   3.981  10.038 -0.6147  0.8408 -0.5557
  181SLPC   H7R20722   1.125   4.070  10.041 -1.4868  1.4527  3.6324
  181SLPC   H7S20723   0.960   4.014  10.077  0.5876  1.4025  2.0720
  181SLPC   C2820724   1.063   3.929   9.891  0.3257 -0.3773  0.1284
  181SLPC   H8R20725   1.046   4.021   9.831  0.8975 -0.9967 -1.0018
  181SLPC   H8S20726   0.981   3.855   9.881 -0.0569 -0.0555  0.9450
  181SLPC   C2920727   1.185   3.860   9.845 -0.3959 -0.4443 -0.1549
  181SLPC   H9R20728   1.228   3.783   9.910  2.6540  0.3290 -1.1416
  181SLPC  C21020729   1.243   3.888   9.732 -0.7112  0.3766  0.2977
  181SLPC  H10R20730   1.335   3.828   9.722 -1.3239 -0.2938 -1.3801
  181SLPC  C21120731   1.213   3.978   9.621  0.6665  0.0266 -0.2937
  181SLPC  H11R20732   1.300   4.048   9.624  0.2819  0.5393 -1.0681
  181SLPC  H11S20733   1.120   4.036   9.634  1.9311  1.9203  0.6857
  181SLPC  C21220734   1.221   3.907   9.487  0.5805  0.0653  0.9784
  181SLPC  H12R20735   1.155   3.821   9.468  2.8121 -1.0918 -1.8999
  181SLPC  C21320736   1.296   3.953   9.382  0.0140  1.1213 -0.9387
  181SLPC  H13R20737   1.301   3.890   9.291 -1.4012 -0.5024  0.0808
  181SLPC  C21420738   1.386   4.072   9.381  0.3793  0.3751 -0.4132
  181SLPC  H14R20739   1.448   4.068   9.472 -1.0970 -1.6056  0.5644
  181SLPC  H14S20740   1.322   4.162   9.369  1.1876  1.0319  0.1902
  181SLPC  C21520741   1.481   4.068   9.258  0.3497 -0.4116  0.2687
  181SLPC  H15R20742   1.533   3.970   9.259  1.7482  0.3204  0.7292
  181SLPC  H15S20743   1.558   4.144   9.282 -1.1600  0.7138  1.6320
  181SLPC  C21620744   1.414   4.096   9.124  0.3034  0.1869 -0.1426
  181SLPC  H16R20745   1.374   4.200   9.121 -1.7074 -0.5844 -0.7652
  181SLPC  H16S20746   1.326   4.030   9.109  1.5945 -0.9823 -2.8990
  181SLPC  C21720747   1.507   4.073   9.005  0.2798 -0.5162  0.9305
  181SLPC  H17R20748   1.526   3.964   9.001 -0.1250 -0.5380 -0.5907
  181SLPC  H17S20749   1.611   4.111   9.020  0.2744  0.6279 -1.7416
  181SLPC  C21820750   1.454   4.114   8.866  0.8974 -0.3520  0.4403
  181SLPC  H18R20751   1.534   4.090   8.793  2.4614  1.5579  1.4819
  181SLPC  H18S20752   1.430   4.222   8.859 -1.3314 -0.9033 -0.9892
  181SLPC  H18T20753   1.364   4.057   8.835  0.0276  1.7118 -0.9388
  181SLPC   C3320754   1.531   3.803  10.188  0.1867 -0.2012  0.4705
  181SLPC   H3X20755   1.537   3.907  10.152  0.3118 -0.5204 -0.4378
  181SLPC   H3Y20756   1.422   3.782  10.182 -0.4004  3.1707 -1.3184
  181SLPC   C3420757   1.606   3.698  10.109  0.2151 -0.4890 -0.1017
  181SLPC   H4X20758   1.583   3.597  10.149  2.5055 -0.7081  0.7088
  181SLPC   H4Y20759   1.715   3.714  10.122 -0.1885  1.7054  0.7867
  181SLPC   C3520760   1.595   3.708   9.955  0.5284  0.4215 -0.5893
  181SLPC   H5X20761   1.621   3.812   9.926  3.5895 -0.3662 -0.7832
  181SLPC   H5Y20762   1.486   3.698   9.937 -0.1020  1.8187  2.0894
  181SLPC   C3620763   1.687   3.619   9.887 -0.0482 -0.0441  0.1029
  181SLPC   H6X20764   1.668   3.510   9.898  0.9111 -0.0417  2.1818
  181SLPC   H6Y20765   1.786   3.637   9.935  0.3141  0.3530 -0.7901
  181SLPC   C3720766   1.704   3.664   9.733  0.1613 -0.0169 -0.8201
  181SLPC   H7X20767   1.753   3.763   9.744  0.2731 -0.3358  2.1138
  181SLPC   H7Y20768   1.599   3.681   9.699 -1.2086 -2.6167  1.8532
  181SLPC   C3820769   1.789   3.572   9.644  0.0248  0.2765 -0.3503
  181SLPC   H8X20770   1.874   3.529   9.701 -0.1988 -1.0849 -1.0270
  181SLPC   H8Y20771   1.826   3.625   9.554  0.2669 -0.1938 -0.5313
  181SLPC   C3920772   1.705   3.455   9.591 -0.2530  0.5516 -0.2634
  181SLPC   H9X20773   1.615   3.477   9.530 -0.8298 -0.5798  0.1610
  181SLPC   H9Y20774   1.657   3.398   9.674 -3.3154  0.0356 -2.3527
  181SLPC  C31020775   1.797   3.352   9.516 -0.1720  0.0082 -0.1524
  181SLPC  H10X20776   1.767   3.251   9.550  0.8109 -0.1301  0.3382
  181SLPC  H10Y20777   1.905   3.372   9.536 -0.2006  0.7470 -0.7096
  181SLPC  C31120778   1.773   3.356   9.362  0.3308 -0.1544 -0.6258
  181SLPC  H11X20779   1.665   3.338   9.345  0.3721  0.0674 -1.1370
  181SLPC  H11Y20780   1.825   3.271   9.311 -3.6394 -1.1804 -3.1608
  181SLPC  C31220781   1.830   3.484   9.302 -0.1628  0.2544  1.0542
  181SLPC  H12X20782   1.936   3.504   9.324  0.3232  0.1904 -1.0809
  181SLPC  H12Y20783   1.781   3.577   9.339 -1.0324  0.7177 -1.1477
  181SLPC  C31320784   1.829   3.478   9.147 -0.0072 -0.1777 -0.0692
  181SLPC  H13X20785   1.734   3.430   9.116  0.8996 -1.6960 -0.5537
  181SLPC  H13Y20786   1.921   3.418   9.127 -0.5086 -1.1609  0.5714
  181SLPC  C31420787   1.845   3.617   9.092  0.5285  0.4954  0.2004
  181SLPC  H14X20788   1.926   3.672   9.144 -0.0735  0.3822  1.2706
  181SLPC  H14Y20789   1.753   3.676   9.112 -1.3653 -2.0751 -0.4984
  181SLPC  C31520790   1.849   3.601   8.941 -0.4494 -0.2406 -0.2370
  181SLPC  H15X20791   1.748   3.574   8.902 -1.1239  2.2439 -0.3599
  181SLPC  H15Y20792   1.937   3.538   8.919 -0.2562  0.2181 -0.7963
  181SLPC  C31620793   1.874   3.732   8.870 -0.5343 -0.0674 -0.1099
  181SLPC  H16X20794   1.960   3.779   8.924 -0.6088  1.3133 -1.1655
  181SLPC  H16Y20795   1.782   3.791   8.889 -0.4891 -0.5783  1.8880
  181SLPC  C31720796   1.902   3.730   8.721 -0.3551  0.1574  0.9537
  181SLPC  H17X20797   1.904   3.834   8.683 -1.9171  0.3020  1.2213
  181SLPC  H17Y20798   1.815   3.679   8.674  0.7099  0.3021 -1.2307
  181SLPC  C31820799   2.034   3.665   8.669  0.2653  0.6037 -0.5673
  181SLPC  H18X20800   2.039   3.554   8.671 -1.5555  0.5263  1.4711
  181SLPC  H18Y20801   2.125   3.706   8.719  2.0471 -1.8892 -1.6361
  181SLPC  H18Z20802   2.049   3.684   8.561  0.2739  1.3263 -0.4404
  182SLPC     N20803   0.418   4.859  10.925  0.1930 -0.2839  0.2835
  182SLPC   C1320804   0.324   4.972  10.966 -0.1293  0.1442 -0.3325
  182SLPC  H13A20805   0.328   5.064  10.910  1.6569 -0.0689 -0.5892
  182SLPC  H13B20806   0.224   4.931  10.973  0.5555 -1.8620 -1.9523
  182SLPC  H13C20807   0.349   4.990  11.069 -2.7075  0.3097  0.3065
  182SLPC   C1420808   0.554   4.911  10.911  0.3534 -0.0993  0.5063
  182SLPC  H14A20809   0.624   4.837  10.875  0.6949  0.7941 -0.7124
  182SLPC  H14B20810   0.559   4.986  10.834 -0.9901 -0.9260 -0.4226
  182SLPC  H14C20811   0.598   4.948  11.002  0.9583 -2.8327  1.3744
  182SLPC   C1520812   0.366   4.813  10.792 -0.2004 -0.8682 -0.1667
  182SLPC  H15A20813   0.439   4.753  10.739 -1.4580 -1.7378 -0.9427
  182SLPC  H15B20814   0.282   4.745  10.796 -0.0562 -1.0056  0.6176
  182SLPC  H15C20815   0.334   4.890  10.723 -2.5477  0.3031  2.1302
  182SLPC   C1220816   0.419   4.741  11.013  0.3074  0.1056 -0.3909
  182SLPC  H12A20817   0.459   4.762  11.111  1.6740  0.6125 -1.0396
  182SLPC  H12B20818   0.489   4.664  10.984  1.7737  0.9541  0.8122
  182SLPC   C1120819   0.285   4.671  11.030  0.1351  0.1095  0.6410
  182SLPC  H11A20820   0.206   4.749  11.037 -0.5379 -0.5257  0.2775
  182SLPC  H11B20821   0.298   4.616  11.125  2.5658 -0.1942  0.1704
  182SLPC     P20822   0.104   4.566  10.884 -0.4379  0.7425 -0.0108
  182SLPC   O1320823   0.089   4.431  10.829  0.5638  0.0861  0.2240
  182SLPC   O1420824   0.018   4.603  10.999  0.3845  0.0530  0.9580
  182SLPC   O1220825   0.259   4.573  10.925  0.1404 -0.5856 -0.0932
  182SLPC   O1120826   0.099   4.673  10.772 -0.3349  0.4837  1.0967
  182SLPC    C120827  -0.028   4.714  10.714  0.0873 -0.2134 -0.1232
  182SLPC    HA20828  -0.059   4.625  10.655  0.2127 -1.1923  1.2553
  182SLPC    HB20829  -0.103   4.743  10.791 -0.5816  1.3212 -1.3399
  182SLPC    C220830  -0.010   4.826  10.613  0.2877  0.5000 -0.2990
  182SLPC    HS20831  -0.093   4.823  10.540 -1.9418 -0.2561  2.1749
  182SLPC   O2120832   0.121   4.810  10.547  0.1289  0.1524  0.2646
  182SLPC   C2120833   0.123   4.717  10.462 -0.0661  0.2707 -0.0418
  182SLPC   O2220834   0.028   4.664  10.407  0.4023 -0.1008  0.4287
  182SLPC   C2220835   0.268   4.683  10.439  0.1233 -1.0091 -0.0972
  182SLPC   H2R20836   0.331   4.772  10.421  1.1958 -2.0987 -1.9478
  182SLPC   H2S20837   0.315   4.624  10.521 -0.6244  1.4112  2.1215
  182SLPC    C320838  -0.014   4.968  10.684 -0.1155  0.1208 -0.4812
  182SLPC    HX20839   0.057   4.968  10.769  0.5260  0.2287 -1.0105
  182SLPC    HY20840  -0.113   4.976  10.734 -1.2120  0.9860 -2.7316
  182SLPC   O3120841  -0.008   5.074  10.586  0.3852  0.4417 -0.2840
  182SLPC   C3120842   0.115   5.123  10.579 -0.1649 -0.2704 -0.7784
  182SLPC   O3220843   0.208   5.087  10.651 -0.4171  0.2479 -0.0605
  182SLPC   C3220844   0.120   5.232  10.470  0.1755  0.1189 -0.0984
  182SLPC   H2X20845   0.148   5.331  10.511  1.0739  1.1540 -3.0878
  182SLPC   H2Y20846   0.024   5.234  10.415 -0.3652 -0.4447  0.8112
  182SLPC   C2320847   0.298   4.586  10.320  0.1373 -0.4128  0.7270
  182SLPC   H3R20848   0.243   4.622  10.230  2.0190  0.2837 -0.1698
  182SLPC   H3S20849   0.272   4.480  10.342 -0.8530 -0.2562  0.3688
  182SLPC   C2420850   0.451   4.576  10.276 -0.7900 -0.0835  0.6317
  182SLPC   H4R20851   0.517   4.555  10.363  0.3440  2.1970  0.3504
  182SLPC   H4S20852   0.488   4.670  10.231 -0.5424 -0.3549  0.2556
  182SLPC   C2520853   0.467   4.463  10.180  0.5265 -0.2965 -0.6593
  182SLPC   H5R20854   0.411   4.380  10.228  0.1629 -0.4128 -1.2775
  182SLPC   H5S20855   0.572   4.426  10.177  0.0139 -1.6833 -2.1327
  182SLPC   C2620856   0.427   4.491  10.031  0.2086 -1.2592  0.6436
  182SLPC   H6R20857   0.508   4.536   9.971  0.1077 -0.0985  1.3640
  182SLPC   H6S20858   0.337   4.555  10.022  1.3083  0.3896  1.1308
  182SLPC   C2720859   0.399   4.362   9.945 -0.7160 -0.9407  0.4728
  182SLPC   H7R20860   0.311   4.308   9.986  0.0261 -0.9824  2.0505
  182SLPC   H7S20861   0.489   4.297   9.945 -0.8887 -1.2069 -0.6486
  182SLPC   C2820862   0.364   4.396   9.797 -0.2362 -0.2239  0.0091
  182SLPC   H8R20863   0.342   4.298   9.751 -1.1284 -1.0876  2.2475
  182SLPC   H8S20864   0.453   4.424   9.737  2.0226 -4.9149  1.0129
  182SLPC   C2920865   0.245   4.481   9.788  0.0832 -0.0851  0.0259
  182SLPC   H9R20866   0.171   4.480   9.870  0.4464  0.5752  0.3698
  182SLPC  C21020867   0.231   4.568   9.686 -0.1606  0.1881  0.7511
  182SLPC  H10R20868   0.142   4.632   9.695 -1.4079 -1.0667 -2.0427
  182SLPC  C21120869   0.307   4.590   9.562  0.6931  0.2167 -0.1267
  182SLPC  H11R20870   0.416   4.572   9.573  0.4644  0.0386  2.0490
  182SLPC  H11S20871   0.313   4.694   9.524  1.6077  0.1893 -0.0573
  182SLPC  C21220872   0.271   4.491   9.459  0.2689 -0.0226 -0.0305
  182SLPC  H12R20873   0.282   4.386   9.489 -1.4482  0.0411  0.8954
  182SLPC  C21320874   0.231   4.519   9.331 -0.2842 -0.5714 -0.6121
  182SLPC  H13R20875   0.220   4.432   9.265 -0.5663  0.2236 -1.6225
  182SLPC  C21420876   0.201   4.652   9.268  0.5297  0.6323  0.5646
  182SLPC  H14R20877   0.293   4.714   9.274  0.0091  1.6510 -1.7254
  182SLPC  H14S20878   0.114   4.696   9.323  0.9130  0.6371  1.1764
  182SLPC  C21520879   0.156   4.648   9.118  0.0322  0.2208 -0.2545
  182SLPC  H15R20880   0.106   4.744   9.090 -0.7832 -0.0209  0.3466
  182SLPC  H15S20881   0.075   4.574   9.102 -0.0917 -0.0182  1.4088
  182SLPC  C21620882   0.267   4.632   9.020  0.2032  0.3871 -0.5100
  182SLPC  H16R20883   0.314   4.531   9.021  0.7884  0.6624  0.3802
  182SLPC  H16S20884   0.348   4.705   9.039 -0.7473  0.7927  2.2627
  182SLPC  C21720885   0.220   4.647   8.880 -0.1533 -0.2095  0.2010
  182SLPC  H17R20886   0.172   4.747   8.868 -2.3997 -1.0579  1.7179
  182SLPC  H17S20887   0.138   4.573   8.866  0.5313 -1.3999  2.1956
  182SLPC  C21820888   0.334   4.638   8.773 -0.2102 -0.8045 -0.2139
  182SLPC  H18R20889   0.405   4.556   8.795  3.0571  2.5587  2.3223
  182SLPC  H18S20890   0.393   4.731   8.786 -0.0508 -1.1734  1.8709
  182SLPC  H18T20891   0.291   4.625   8.671 -0.6210  3.3535 -0.6348
  182SLPC   C3320892   0.231   5.209  10.369 -0.0387  0.5622  0.7208
  182SLPC   H3X20893   0.329   5.228  10.418  0.7608 -0.9604 -0.2306
  182SLPC   H3Y20894   0.221   5.279  10.284  0.6153  0.3639  0.4811
  182SLPC   C3420895   0.234   5.065  10.310 -0.1717  1.1254  0.1036
  182SLPC   H4X20896   0.130   5.028  10.314  0.4788 -0.6128  2.0691
  182SLPC   H4Y20897   0.296   4.999  10.375  0.2827  0.2123 -1.2333
  182SLPC   C3520898   0.284   5.064  10.167 -0.1627 -0.3583  0.2514
  182SLPC   H5X20899   0.391   5.094  10.161  1.1600 -4.9377 -1.0057
  182SLPC   H5Y20900   0.216   5.131  10.110  0.0203  1.2347  1.8692
  182SLPC   C3620901   0.277   4.922  10.098  0.7679  0.1259  0.5291
  182SLPC   H6X20902   0.178   4.871  10.093  1.5426 -1.5036  1.3467
  182SLPC   H6Y20903   0.337   4.850  10.158 -0.2798 -0.6258  0.6901
  182SLPC   C3720904   0.331   4.935   9.956  0.0761  0.1535  0.0057
  182SLPC   H7X20905   0.357   4.830   9.934 -0.0049  0.5472 -2.1002
  182SLPC   H7Y20906   0.422   4.999   9.968  1.9218 -2.2739 -0.7026
  182SLPC   C3820907   0.242   4.993   9.848  0.2266  0.0876  0.4894
  182SLPC   H8X20908   0.187   5.082   9.884 -1.0213 -0.1793 -0.7312
  182SLPC   H8Y20909   0.160   4.919   9.839  0.7875 -0.8315  2.7068
  182SLPC   C3920910   0.316   5.013   9.717  0.9308 -0.2149 -0.6969
  182SLPC   H9X20911   0.377   4.923   9.696  0.1887 -0.8176 -0.3125
  182SLPC   H9Y20912   0.384   5.100   9.725  0.6565  0.0432 -1.1931
  182SLPC  C31020913   0.226   5.038   9.597 -0.0424 -0.3620 -0.1415
  182SLPC  H10X20914   0.171   5.134   9.599 -1.0359 -0.9305  0.3059
  182SLPC  H10Y20915   0.162   4.947   9.591  0.1180 -0.6355  1.8701
  182SLPC  C31120916   0.313   5.044   9.470  0.3498  0.2033  0.3086
  182SLPC  H11X20917   0.398   4.974   9.487 -0.8775 -1.3900  0.0434
  182SLPC  H11Y20918   0.353   5.148   9.469  0.7785  0.0652  1.4382
  182SLPC  C31220919   0.238   5.018   9.336  0.0209 -0.1074  0.2275
  182SLPC  H12X20920   0.184   5.115   9.322 -1.1091 -0.6016  1.1605
  182SLPC  H12Y20921   0.167   4.934   9.330  0.6250 -0.5324 -1.2139
  182SLPC  C31320922   0.340   4.986   9.223  0.3244  0.2902 -0.2577
  182SLPC  H13X20923   0.284   4.959   9.131 -1.4621  0.7830  0.6602
  182SLPC  H13Y20924   0.396   4.893   9.247 -0.0973 -0.2186 -1.1942
  182SLPC  C31420925   0.428   5.101   9.181  0.8482 -0.3799  0.0619
  182SLPC  H14X20926   0.493   5.130   9.266 -2.0606 -0.2572  2.3353
  182SLPC  H14Y20927   0.365   5.190   9.160  1.0838 -0.5754 -1.4949
  182SLPC  C31520928   0.512   5.090   9.054 -0.4339  0.2120  0.2695
  182SLPC  H15X20929   0.436   5.082   8.973  0.7131  0.5844 -0.8631
  182SLPC  H15Y20930   0.576   5.000   9.050 -2.3586 -1.1843  0.3553
  182SLPC  C31620931   0.605   5.213   9.045 -0.7521  0.4556 -0.4314
  182SLPC  H16X20932   0.654   5.235   9.142  2.0879 -0.6524 -1.5589
  182SLPC  H16Y20933   0.547   5.306   9.029 -3.5968 -1.3322 -1.0947
  182SLPC  C31720934   0.718   5.191   8.942 -0.6530 -1.0770 -0.6799
  182SLPC  H17X20935   0.801   5.134   8.989  1.2984  0.6989 -1.8333
  182SLPC  H17Y20936   0.780   5.283   8.928  0.6593 -1.3364  2.8152
  182SLPC  C31820937   0.682   5.113   8.812 -0.5794  0.0269  0.2225
  182SLPC  H18X20938   0.784   5.109   8.767  0.5260 -2.9825  2.8347
  182SLPC  H18Y20939   0.604   5.163   8.751  0.2925 -0.5648 -1.4240
  182SLPC  H18Z20940   0.651   5.009   8.835 -1.4786  0.2297 -0.0419
  183SLPC     N20941   1.226   6.021  11.067 -0.5639  0.5243  0.2472
  183SLPC   C1320942   1.084   6.025  11.013 -0.6054 -0.0913 -0.0542
  183SLPC  H13A20943   1.054   6.129  11.008  0.4844  0.3298  1.6954
  183SLPC  H13B20944   1.051   5.983  10.919 -0.3988  0.8804 -0.5649
  183SLPC  H13C20945   1.017   5.980  11.086 -0.0304  0.5964  0.9114
  183SLPC   C1420946   1.247   5.879  11.103  0.3941 -0.8796 -0.3709
  183SLPC  H14A20947   1.155   5.840  11.144  0.1339  0.3878  0.2874
  183SLPC  H14B20948   1.258   5.824  11.011 -1.2083 -0.0697 -1.0618
  183SLPC  H14C20949   1.331   5.859  11.168 -0.1090 -1.0339  0.2350
  183SLPC   C1520950   1.219   6.103  11.193  0.1566 -0.2478  0.4750
  183SLPC  H15A20951   1.196   6.205  11.168  1.3224  0.2136  1.2241
  183SLPC  H15B20952   1.146   6.063  11.261  0.6130  2.0702  2.3917
  183SLPC  H15C20953   1.314   6.090  11.244  0.3865 -0.2146  0.0599
  183SLPC   C1220954   1.325   6.069  10.964  0.1830 -0.4362 -0.1336
  183SLPC  H12A20955   1.424   6.074  11.009  0.2800  1.3738 -0.4987
  183SLPC  H12B20956   1.306   6.175  10.958 -1.9991 -0.7357  1.2390
  183SLPC   C1120957   1.335   6.005  10.825  0.2959 -0.3395  0.7963
  183SLPC  H11A20958   1.385   6.069  10.749 -2.2301  1.2545  0.4054
  183SLPC  H11B20959   1.234   5.989  10.782  1.2824 -0.0325 -1.7173
  183SLPC     P20960   1.533   5.850  10.793 -0.2082  0.4908 -0.0763
  183SLPC   O1320961   1.613   5.954  10.867  0.4458 -0.1572  0.2347
  183SLPC   O1420962   1.574   5.712  10.818  0.2903 -0.1071  0.7238
  183SLPC   O1220963   1.385   5.872  10.833  0.2389  0.3985  0.5948
  183SLPC   O1120964   1.532   5.883  10.647  0.2040  0.2968  0.9901
  183SLPC    C120965   1.458   5.815  10.550 -0.1996 -0.1617  0.0714
  183SLPC    HA20966   1.469   5.705  10.545 -0.5747 -0.1433 -1.4685
  183SLPC    HB20967   1.349   5.834  10.564 -0.2356 -0.4300  0.1488
  183SLPC    C220968   1.494   5.846  10.399  0.3018 -0.8767  0.5243
  183SLPC    HS20969   1.416   5.804  10.331 -0.0171 -0.9264  0.9231
  183SLPC   O2120970   1.627   5.790  10.362  0.5166 -0.5735 -1.0481
  183SLPC   C2120971   1.627   5.663  10.330 -0.5775  0.0384  0.4496
  183SLPC   O2220972   1.530   5.590  10.314 -0.1498  0.0681 -0.1766
  183SLPC   C2220973   1.768   5.613  10.327  0.1270  0.6990  0.2927
  183SLPC   H2R20974   1.845   5.694  10.321  0.6362  0.0912 -1.9920
  183SLPC   H2S20975   1.777   5.559  10.423 -1.1875 -2.3464 -1.2364
  183SLPC    C320976   1.491   5.996  10.367  0.0064  0.5784  0.6730
  183SLPC    HX20977   1.570   6.046  10.426  0.0969  0.1525  0.9174
  183SLPC    HY20978   1.397   6.031  10.414  0.0718  1.4152  0.1907
  183SLPC   O3120979   1.500   6.027  10.222 -0.3894 -0.4602  0.3161
  183SLPC   C3120980   1.613   6.066  10.170  0.1362 -0.4448  0.2184
  183SLPC   O3220981   1.714   6.101  10.226  0.3460  0.1506  0.4807
  183SLPC   C3220982   1.608   6.029  10.022  0.7062 -0.2551  0.1554
  183SLPC   H2X20983   1.504   6.044   9.986  0.5303  0.6127  0.9948
  183SLPC   H2Y20984   1.647   5.926  10.010  0.0260 -0.2790 -2.1594
  183SLPC   C2320985   1.812   5.529  10.208  0.5473  0.0844 -0.0315
  183SLPC   H3R20986   1.738   5.449  10.185 -1.1459  1.4479  0.6428
  183SLPC   H3S20987   1.912   5.482  10.222  1.6065  1.7616 -1.6728
  183SLPC   C2420988   1.830   5.618  10.082  0.0676 -0.4908  0.4598
  183SLPC   H4R20989   1.933   5.659  10.096  0.0893 -0.8666  1.3945
  183SLPC   H4S20990   1.753   5.697  10.068  0.7382 -0.2668 -2.3736
  183SLPC   C2520991   1.830   5.533   9.954 -0.2508  0.2523 -0.2112
  183SLPC   H5R20992   1.727   5.516   9.916 -0.6622  0.4816  0.7745
  183SLPC   H5S20993   1.874   5.435   9.982  1.3325  0.5736 -1.5486
  183SLPC   C2620994   1.915   5.584   9.847  0.7046 -0.5703 -0.1957
  183SLPC   H6R20995   2.012   5.607   9.895  1.7160 -1.7529 -1.6457
  183SLPC   H6S20996   1.887   5.676   9.792  0.7985 -1.4402 -1.7489
  183SLPC   C2720997   1.941   5.474   9.741  0.1244 -0.4224  0.3005
  183SLPC   H7R20998   1.846   5.470   9.684 -0.5317  1.4403  1.2297
  183SLPC   H7S20999   1.970   5.382   9.795 -0.1116 -0.5982  0.1294
  183SLPC   C2821000   2.058   5.529   9.650 -0.1698 -0.5046 -0.6229
  183SLPC   H8R21001   2.084   5.449   9.578 -2.6041 -2.0542  0.1456
  183SLPC   H8S21002   2.143   5.535   9.721 -0.4401  0.4237 -0.3694
  183SLPC   C2921003   2.035   5.661   9.572  0.7169 -0.9688 -0.1617
  183SLPC   H9R21004   1.968   5.739   9.612  0.1114 -0.2463 -2.4850
  183SLPC  C21021005   2.061   5.684   9.443 -0.0724 -0.3359  0.1704
  183SLPC  H10R21006   2.048   5.786   9.403 -1.4014 -1.1853 -1.6508
  183SLPC  C21121007   2.133   5.598   9.342 -0.4255 -0.0925 -0.0752
  183SLPC  H11R21008   2.127   5.496   9.386 -0.0504  0.8253  2.1566
  183SLPC  H11S21009   2.241   5.621   9.351 -0.0864 -2.2353  1.7283
  183SLPC  C21221010   2.088   5.604   9.199 -0.4084  0.2890  0.4657
  183SLPC  H12R21011   2.046   5.702   9.173  2.0748  1.3454  0.3651
  183SLPC  C21321012   2.104   5.506   9.108  0.5317  1.1830 -0.2999
  183SLPC  H13R21013   2.065   5.531   9.008 -0.9821  0.4256  0.0821
  183SLPC  C21421014   2.164   5.368   9.123 -0.2104  0.0260 -0.2806
  183SLPC  H14R21015   2.113   5.293   9.059 -1.9431  1.5299 -0.7070
  183SLPC  H14S21016   2.163   5.327   9.226  1.8361 -1.3435 -0.7839
  183SLPC  C21521017   2.318   5.377   9.076  0.2239  0.1165 -1.2038
  183SLPC  H15R21018   2.382   5.448   9.133  2.7609 -3.3224  0.4067
  183SLPC  H15S21019   2.325   5.421   8.975 -2.0382  1.4674 -0.7933
  183SLPC  C21621020   2.380   5.238   9.085  1.0720  0.1906  0.1749
  183SLPC  H16R21021   2.327   5.174   9.011 -0.5415  2.4460 -0.6743
  183SLPC  H16S21022   2.343   5.190   9.178  0.0599 -0.4427 -0.5446
  183SLPC  C21721023   2.531   5.232   9.087  0.1179  0.8406  1.0574
  183SLPC  H17R21024   2.566   5.128   9.101 -0.7530 -0.2167 -3.9838
  183SLPC  H17S21025   2.569   5.274   9.183 -0.5425 -1.4487  2.3373
  183SLPC  C21821026   2.604   5.307   8.974  0.2040 -0.3056 -0.2765
  183SLPC  H18R21027   2.588   5.417   8.981 -0.2433 -0.4543  1.4224
  183SLPC  H18S21028   2.554   5.264   8.885 -0.2975 -2.2949  0.9316
  183SLPC  H18T21029   2.714   5.293   8.979 -0.1833 -3.0212  2.3366
  183SLPC   C3321030   1.705   6.123   9.932 -0.1814 -0.3016 -0.1625
  183SLPC   H3X21031   1.810   6.108   9.964 -0.5354 -2.1446  0.1790
  183SLPC   H3Y21032   1.683   6.231   9.948  1.7157 -0.1798  1.8997
  183SLPC   C3421033   1.688   6.104   9.781 -0.1733 -0.9718  0.5014
  183SLPC   H4X21034   1.782   6.149   9.742 -2.1308  0.2636 -3.0133
  183SLPC   H4Y21035   1.591   6.144   9.746 -0.5108 -2.7853 -0.6816
  183SLPC   C3521036   1.695   5.954   9.739 -0.1165 -0.7051 -0.6667
  183SLPC   H5X21037   1.593   5.910   9.734 -0.0951 -0.7926 -0.3492
  183SLPC   H5Y21038   1.760   5.899   9.812  1.5135  2.2382  0.1962
  183SLPC   C3621039   1.746   5.928   9.598 -0.2287 -0.4495  0.0033
  183SLPC   H6X21040   1.769   5.819   9.592 -0.5471 -0.5471  0.5858
  183SLPC   H6Y21041   1.839   5.986   9.580 -0.9885  0.8053  0.0640
  183SLPC   C3721042   1.657   5.971   9.478 -0.6270  0.0022 -0.1798
  183SLPC   H7X21043   1.635   6.079   9.473 -2.4042 -0.3569 -0.1793
  183SLPC   H7Y21044   1.562   5.915   9.486  0.1808 -1.2678  0.8603
  183SLPC   C3821045   1.722   5.935   9.345 -0.3042 -0.5030  0.6560
  183SLPC   H8X21046   1.644   5.970   9.275  1.4109 -0.0613 -1.0778
  183SLPC   H8Y21047   1.728   5.824   9.346 -0.5159 -0.5181  2.1360
  183SLPC   C3921048   1.856   6.000   9.315 -0.0742  0.2269 -0.6226
  183SLPC   H9X21049   1.942   5.976   9.382 -2.0459 -0.0454  1.9138
  183SLPC   H9Y21050   1.850   6.110   9.319  0.9371  0.3043 -1.1496
  183SLPC  C31021051   1.894   5.963   9.167 -0.4657 -0.3665  0.3135
  183SLPC  H10X21052   1.806   5.960   9.098  1.1651  0.1142 -1.8230
  183SLPC  H10Y21053   1.951   5.868   9.156  1.8035  0.9619  0.5236
  183SLPC  C31121054   2.002   6.057   9.099 -0.3777  0.0609  0.3407
  183SLPC  H11X21055   1.953   6.156   9.092 -0.6168  0.0084  1.1790
  183SLPC  H11Y21056   2.035   6.028   8.997  1.0813 -1.5100  1.2447
  183SLPC  C31221057   2.130   6.078   9.185 -0.2967 -0.4519  0.2436
  183SLPC  H12X21058   2.176   5.983   9.221 -0.2122 -0.1257  1.0046
  183SLPC  H12Y21059   2.096   6.135   9.274 -1.4352 -0.2756 -0.2881
  183SLPC  C31321060   2.240   6.159   9.115 -0.3473 -0.6276 -0.1606
  183SLPC  H13X21061   2.208   6.265   9.107 -1.4957 -0.7592  2.3465
  183SLPC  H13Y21062   2.243   6.119   9.012  0.8373 -1.6018  0.2401
  183SLPC  C31421063   2.379   6.160   9.183 -0.4810  0.4541 -0.2476
  183SLPC  H14X21064   2.414   6.055   9.179 -1.1854  0.1812  0.6835
  183SLPC  H14Y21065   2.371   6.194   9.288 -1.1795 -0.5473  0.0246
  183SLPC  C31521066   2.485   6.242   9.101 -0.0728 -0.7526  0.0022
  183SLPC  H15X21067   2.579   6.216   9.155  1.7371  3.3337 -1.0041
  183SLPC  H15Y21068   2.467   6.351   9.107 -0.1884 -0.7212 -0.9076
  183SLPC  C31621069   2.496   6.208   8.952 -0.3127  0.1616  0.1545
  183SLPC  H16X21070   2.420   6.256   8.887 -0.6475 -0.5874 -0.0062
  183SLPC  H16Y21071   2.497   6.098   8.935  0.2725 -0.0521  1.5021
  183SLPC  C31721072   2.628   6.263   8.897 -1.0023 -0.5046 -0.0212
  183SLPC  H17X21073   2.712   6.201   8.937 -0.7432  0.5223  1.0734
  183SLPC  H17Y21074   2.649   6.368   8.927  0.8673 -1.6772  3.0533
  183SLPC  C31821075   2.645   6.248   8.744  0.2991  0.0191  0.5485
  183SLPC  H18X21076   2.638   6.144   8.706 -2.3079  0.1850  0.5247
  183SLPC  H18Y21077   2.744   6.285   8.709 -0.7402  1.2684 -1.1489
  183SLPC  H18Z21078   2.559   6.299   8.695  0.1642 -1.1858 -0.4976
  184SLPC     N21079   3.228   3.595  10.626  0.0546  0.3315 -0.4061
  184SLPC   C1321080   3.265   3.677  10.749  0.3108  0.6415 -0.2668
  184SLPC  H13A21081   3.187   3.669  10.823  1.6578 -0.9652  1.0497
  184SLPC  H13B21082   3.354   3.646  10.803  0.4273  3.4058  1.2306
  184SLPC  H13C21083   3.294   3.777  10.723  1.7473  0.6053  1.0759
  184SLPC   C1421084   3.098   3.660  10.582  0.0175  0.6093  0.0991
  184SLPC  H14A21085   3.077   3.625  10.483  0.2958  1.1916 -0.1712
  184SLPC  H14B21086   3.023   3.644  10.658 -1.8920  0.4856 -1.8055
  184SLPC  H14C21087   3.103   3.768  10.579  2.5902  0.4860 -1.3634
  184SLPC   C1521088   3.201   3.459  10.682 -0.0764 -0.4742  0.2045
  184SLPC  H15A21089   3.289   3.412  10.724  0.8240 -1.0754 -2.2859
  184SLPC  H15B21090   3.125   3.469  10.759 -0.0696  0.1845  0.1230
  184SLPC  H15C21091   3.165   3.387  10.609 -2.5655  0.6648  0.2684
  184SLPC   C1221092   3.329   3.590  10.518 -0.5361 -0.1760  0.2530
  184SLPC  H12A21093   3.353   3.690  10.485  0.9453 -1.3232 -2.3087
  184SLPC  H12B21094   3.277   3.545  10.434 -0.0009  2.2627 -1.4404
  184SLPC   C1121095   3.463   3.515  10.535 -0.3660 -0.0151 -0.3832
  184SLPC  H11A21096   3.510   3.499  10.435 -1.8998  0.4098 -1.1826
  184SLPC  H11B21097   3.439   3.421  10.590  0.9839 -1.0916 -1.5672
  184SLPC     P21098   3.666   3.676  10.549 -0.0577 -0.0174 -0.0683
  184SLPC   O1321099   3.664   3.815  10.587  0.2640  0.0715 -0.3659
  184SLPC   O1421100   3.793   3.609  10.573  0.2489 -0.0981  0.0438
  184SLPC   O1221101   3.554   3.593  10.614 -0.1219  0.0525 -0.6117
  184SLPC   O1121102   3.640   3.670  10.395  0.6904  0.1676  0.2463
  184SLPC    C121103   3.714   3.755  10.304  0.0451 -0.2046 -0.3467
  184SLPC    HA21104   3.717   3.860  10.339 -1.2983 -0.5040  0.7272
  184SLPC    HB21105   3.817   3.713  10.299 -0.6708 -1.9167 -1.5394
  184SLPC    C221106   3.660   3.756  10.163  0.1074 -0.1919  0.3899
  184SLPC    HS21107   3.657   3.648  10.138  1.6782 -0.3080  0.6242
  184SLPC   O2121108   3.759   3.831  10.086  0.3871  0.1912 -0.2554
  184SLPC   C2121109   3.867   3.756  10.041 -0.3166 -0.2271  0.0956
  184SLPC   O2221110   3.873   3.639  10.020  0.3125 -0.0441  0.1969
  184SLPC   C2221111   3.979   3.856  10.012 -0.7768  0.9793  0.6025
  184SLPC   H2R21112   3.937   3.956   9.986 -2.0554 -0.4255 -3.0219
  184SLPC   H2S21113   4.051   3.876  10.095  2.7207 -4.2679 -0.9313
  184SLPC    C321114   3.514   3.827  10.140 -0.0929  0.1201  0.2398
  184SLPC    HX21115   3.511   3.920  10.201  1.1510  0.4154 -0.1483
  184SLPC    HY21116   3.443   3.755  10.187  2.4814 -1.9735  1.1010
  184SLPC   O3121117   3.481   3.854   9.999  0.0863 -0.3706 -0.0613
  184SLPC   C3121118   3.409   3.768   9.932 -0.4533 -0.2345  0.0457
  184SLPC   O3221119   3.364   3.663   9.974 -0.0847  0.4358  0.0721
  184SLPC   C3221120   3.379   3.809   9.787  0.0463  0.0653  0.0434
  184SLPC   H2X21121   3.393   3.918   9.768  1.0866  0.3185  2.1479
  184SLPC   H2Y21122   3.276   3.789   9.749  0.5645  1.4415 -2.2008
  184SLPC   C2321123   4.058   3.816   9.883  0.6289 -0.8970 -0.9671
  184SLPC   H3R21124   4.091   3.710   9.883  1.1318 -0.7424 -0.8499
  184SLPC   H3S21125   4.151   3.877   9.890 -0.3105  0.4058  0.4092
  184SLPC   C2421126   3.981   3.845   9.755 -0.4798  0.5059 -1.7233
  184SLPC   H4R21127   3.946   3.950   9.750  0.0055  0.7561 -0.2434
  184SLPC   H4S21128   3.886   3.788   9.766 -0.3485  0.6836  0.6044
  184SLPC   C2521129   4.043   3.814   9.625  0.7218  0.3756 -1.7242
  184SLPC   H5R21130   3.968   3.794   9.546  0.5221  2.9003 -2.2208
  184SLPC   H5S21131   4.107   3.725   9.640 -0.3223 -0.0040  0.6979
  184SLPC   C2621132   4.136   3.925   9.574 -0.2024 -0.4595 -0.3919
  184SLPC   H6R21133   4.213   3.966   9.644  1.8434 -0.0541 -2.7929
  184SLPC   H6S21134   4.078   4.011   9.533  0.8278  0.2342 -0.4414
  184SLPC   C2721135   4.221   3.879   9.446 -0.1827 -0.4464 -0.0679
  184SLPC   H7R21136   4.294   3.804   9.484  0.1496 -0.7399 -1.2584
  184SLPC   H7S21137   4.285   3.967   9.423  0.9096 -0.6053  2.2085
  184SLPC   C2821138   4.134   3.807   9.339  0.5444  0.1201  0.3851
  184SLPC   H8R21139   4.047   3.865   9.301  0.7666  1.2349  1.5564
  184SLPC   H8S21140   4.104   3.714   9.392 -0.0633  0.0322 -0.1059
  184SLPC   C2921141   4.212   3.775   9.214  0.6306  0.2044  0.4969
  184SLPC   H9R21142   4.208   3.858   9.142 -0.2224  1.4648  1.9576
  184SLPC  C21021143   4.283   3.663   9.184  0.6291  0.4119  0.2126
  184SLPC  H10R21144   4.317   3.653   9.080  0.2443 -1.8613  0.2703
  184SLPC  C21121145   4.301   3.541   9.274 -0.5790  0.2379  0.0883
  184SLPC  H11R21146   4.228   3.464   9.242  1.7098 -2.5064  1.2363
  184SLPC  H11S21147   4.288   3.563   9.382  1.2492 -0.9485  0.5804
  184SLPC  C21221148   4.438   3.491   9.242 -0.2787 -0.1067  0.2301
  184SLPC  H12R21149   4.438   3.426   9.153 -0.8519  2.3820 -1.6550
  184SLPC  C21321150   4.551   3.499   9.311  0.6210 -0.0948 -0.6962
  184SLPC  H13R21151   4.645   3.452   9.279  0.0065 -0.9366 -1.2900
  184SLPC  C21421152   4.562   3.581   9.436 -0.0029  0.5742  0.2787
  184SLPC  H14R21153   4.491   3.667   9.433  2.0634  2.2681 -1.1020
  184SLPC  H14S21154   4.666   3.619   9.442  0.1633 -0.1874  2.5126
  184SLPC  C21521155   4.540   3.500   9.569 -0.4667 -0.2556  0.2289
  184SLPC  H15R21156   4.443   3.445   9.574 -0.5179 -0.1415  0.4879
  184SLPC  H15S21157   4.533   3.575   9.650 -0.2498 -0.0776  0.0834
  184SLPC  C21621158   4.641   3.391   9.602  0.0736 -0.3049 -0.3864
  184SLPC  H16R21159   4.740   3.440   9.595  0.2354 -0.8169 -1.6808
  184SLPC  H16S21160   4.627   3.318   9.520  0.4508 -0.9468  0.1156
  184SLPC  C21721161   4.628   3.326   9.738 -0.0090  0.4929 -0.8212
  184SLPC  H17R21162   4.703   3.245   9.733 -1.7254 -1.0579 -1.7815
  184SLPC  H17S21163   4.531   3.280   9.768  1.9244 -4.1047 -1.2055
  184SLPC  C21821164   4.663   3.425   9.846 -0.2596 -0.6679 -0.1442
  184SLPC  H18R21165   4.757   3.474   9.814 -0.1362 -1.8270 -1.5923
  184SLPC  H18S21166   4.673   3.375   9.945 -0.8509  2.4889  1.5896
  184SLPC  H18T21167   4.587   3.503   9.867 -1.4674 -2.3731  2.0845
  184SLPC   C3321168   3.484   3.736   9.697 -0.3507  0.7847  0.1595
  184SLPC   H3X21169   3.510   3.632   9.727  2.1154  1.3154 -0.0087
  184SLPC   H3Y21170   3.584   3.783   9.712  0.2429 -0.7216  1.1088
  184SLPC   C3421171   3.445   3.745   9.546  0.1765 -0.3058  0.1046
  184SLPC   H4X21172   3.429   3.852   9.520 -1.4350 -0.4381  0.5394
  184SLPC   H4Y21173   3.344   3.699   9.539  0.7025 -1.2704 -1.6133
  184SLPC   C3521174   3.531   3.659   9.456  0.3911  0.3829  0.1815
  184SLPC   H5X21175   3.496   3.658   9.351 -0.4641 -2.4564  0.4593
  184SLPC   H5Y21176   3.550   3.553   9.485  0.3558  0.2395 -0.3195
  184SLPC   C3621177   3.674   3.722   9.442 -0.3890 -0.3290  0.3560
  184SLPC   H6X21178   3.727   3.710   9.539  1.5719  2.0261 -0.3793
  184SLPC   H6Y21179   3.653   3.831   9.433  0.5204 -0.2699 -1.2571
  184SLPC   C3721180   3.763   3.667   9.332  0.5620 -0.2353  0.4156
  184SLPC   H7X21181   3.861   3.720   9.335  0.0417  0.6860  2.4956
  184SLPC   H7Y21182   3.711   3.683   9.235  0.0539  0.9367  0.8655
  184SLPC   C3821183   3.796   3.518   9.343  0.8118 -0.1067  0.4038
  184SLPC   H8X21184   3.709   3.453   9.321 -0.3876  1.9920 -1.2561
  184SLPC   H8Y21185   3.812   3.492   9.449  0.3208 -3.7005 -0.3321
  184SLPC   C3921186   3.923   3.488   9.262  0.3101 -0.3351 -0.6747
  184SLPC   H9X21187   3.953   3.384   9.288 -0.4450 -0.1524  0.9627
  184SLPC   H9Y21188   4.003   3.561   9.286 -1.6991  1.6556  0.1520
  184SLPC  C31021189   3.902   3.499   9.112  0.1713  0.3747  0.0673
  184SLPC  H10X21190   3.980   3.553   9.054 -0.2723  1.7058  0.7042
  184SLPC  H10Y21191   3.812   3.559   9.089  1.2688  1.4039 -1.6479
  184SLPC  C31121192   3.870   3.366   9.037  0.5819 -0.2291 -0.2450
  184SLPC  H11X21193   3.826   3.286   9.101 -1.5615  0.8426 -0.3392
  184SLPC  H11Y21194   3.962   3.329   8.987  0.6915 -1.9660  1.2071
  184SLPC  C31221195   3.775   3.389   8.918 -0.0067  0.6832 -0.1871
  184SLPC  H12X21196   3.817   3.476   8.862  1.7923 -0.1601 -0.1864
  184SLPC  H12Y21197   3.675   3.417   8.958 -0.9572 -1.7025 -0.7708
  184SLPC  C31321198   3.755   3.259   8.839 -0.0513  0.3331  0.0079
  184SLPC  H13X21199   3.701   3.180   8.896  1.6803 -0.8896 -0.0014
  184SLPC  H13Y21200   3.858   3.229   8.809 -1.4160 -1.1219 -3.4953
  184SLPC  C31421201   3.674   3.266   8.709  0.5100 -0.4628  0.7886
  184SLPC  H14X21202   3.655   3.165   8.667 -3.5969  0.4769  0.1038
  184SLPC  H14Y21203   3.725   3.326   8.630 -0.3041 -1.3512 -0.4400
  184SLPC  C31521204   3.538   3.325   8.724 -0.1863  0.2867  0.1245
  184SLPC  H15X21205   3.554   3.432   8.751  1.3234  0.8780 -2.9114
  184SLPC  H15Y21206   3.485   3.274   8.808 -0.3919  0.6645  0.2285
  184SLPC  C31621207   3.461   3.308   8.598 -0.0095 -0.0621  0.3547
  184SLPC  H16X21208   3.443   3.199   8.585 -0.8846  0.1722 -0.4641
  184SLPC  H16Y21209   3.530   3.345   8.519  0.3344  1.0302  1.1496
  184SLPC  C31721210   3.320   3.378   8.603  0.2813 -0.3550  0.1385
  184SLPC  H17X21211   3.261   3.354   8.512 -1.1616  1.1592  0.6405
  184SLPC  H17Y21212   3.328   3.489   8.591  0.0381 -0.4969 -1.3979
  184SLPC  C31821213   3.233   3.348   8.724 -0.5251  0.3881  0.0021
  184SLPC  H18X21214   3.127   3.365   8.694 -0.2910  2.2208  0.1420
  184SLPC  H18Y21215   3.265   3.410   8.810  1.1743  2.7744 -2.2675
  184SLPC  H18Z21216   3.243   3.243   8.759  1.1771  1.0741  1.6446
  185SLPC     N21217   1.998   6.244   6.323 -0.0904  0.7796 -0.7596
  185SLPC   C1321218   1.978   6.318   6.204 -0.3574 -0.2089 -0.4382
  185SLPC  H13A21219   2.043   6.300   6.120 -0.0127  0.7333 -0.3814
  185SLPC  H13B21220   1.881   6.298   6.161 -0.4728  0.6207 -0.5832
  185SLPC  H13C21221   1.974   6.422   6.233  0.0001 -0.1447 -0.6162
  185SLPC   C1421222   2.139   6.279   6.369  0.1656 -0.6651 -0.2948
  185SLPC  H14A21223   2.221   6.253   6.305  1.2311  0.5372  0.5555
  185SLPC  H14B21224   2.147   6.385   6.390  1.2164 -0.5343 -1.3368
  185SLPC  H14C21225   2.159   6.227   6.462  0.7488 -0.4085 -0.2760
  185SLPC   C1521226   1.994   6.100   6.292  0.1897  0.5607  0.3233
  185SLPC  H15A21227   2.024   6.045   6.381  0.6517 -0.1048 -0.2380
  185SLPC  H15B21228   1.900   6.057   6.261  1.7681 -2.6276 -0.2154
  185SLPC  H15C21229   2.065   6.079   6.213 -0.1979  0.5378 -0.0173
  185SLPC   C1221230   1.899   6.284   6.421 -0.0088  0.4576  0.0741
  185SLPC  H12A21231   1.916   6.219   6.506  0.9805 -0.7463 -1.0344
  185SLPC  H12B21232   1.805   6.268   6.370 -0.1305 -2.3967  1.1261
  185SLPC   C1121233   1.896   6.430   6.480 -0.0878 -0.6586 -0.2490
  185SLPC  H11A21234   1.982   6.448   6.548  0.4458 -1.5480 -0.6752
  185SLPC  H11B21235   1.798   6.441   6.531  0.0636 -0.0873 -0.0703
  185SLPC     P21236   1.765   6.588   6.310 -0.2463  0.0699 -0.0880
  185SLPC   O1321237   1.806   6.712   6.235  0.2250 -0.0818 -0.3510
  185SLPC   O1421238   1.699   6.477   6.241  0.0561  0.0379  0.0818
  185SLPC   O1221239   1.896   6.534   6.381 -0.2053  0.3506  0.6040
  185SLPC   O1121240   1.675   6.627   6.437 -0.2048  0.0939 -0.6004
  185SLPC    C121241   1.686   6.758   6.490 -0.7973  0.2108  0.2861
  185SLPC    HA21242   1.730   6.837   6.426 -1.0158  0.6989  0.7256
  185SLPC    HB21243   1.587   6.805   6.509 -1.2825 -0.2641 -1.0612
  185SLPC    C221244   1.754   6.750   6.630  0.1371 -0.0717 -0.2355
  185SLPC    HS21245   1.852   6.697   6.631  0.7881  1.1102  0.0988
  185SLPC   O2121246   1.662   6.689   6.717 -0.5995 -0.1114 -0.3195
  185SLPC   C2121247   1.705   6.575   6.788  0.2789  0.1128 -0.4164
  185SLPC   O2221248   1.815   6.534   6.778  0.5502  0.4041  0.0745
  185SLPC   C2221249   1.598   6.514   6.872  1.2392  0.0517  0.3174
  185SLPC   H2R21250   1.514   6.585   6.887  1.0020 -0.2502  0.4225
  185SLPC   H2S21251   1.557   6.423   6.823  1.7672 -0.0165  0.0006
  185SLPC    C321252   1.787   6.890   6.692  0.4317 -0.4017  0.5917
  185SLPC    HX21253   1.698   6.956   6.699 -0.3983 -1.5882  1.4020
  185SLPC    HY21254   1.872   6.934   6.636 -0.6392  0.7167 -0.1707
  185SLPC   O3121255   1.814   6.869   6.829 -0.2369 -0.0129  0.5315
  185SLPC   C3121256   1.865   6.974   6.890 -0.1351  0.7004  0.7564
  185SLPC   O3221257   1.884   7.081   6.841  0.5119  0.4299 -0.1462
  185SLPC   C3221258   1.882   6.948   7.043 -0.0779 -0.4075 -0.0562
  185SLPC   H2X21259   1.786   6.894   7.062 -0.9150  0.5213 -1.5614
  185SLPC   H2Y21260   1.879   7.045   7.098 -1.8845  1.4272 -3.2493
  185SLPC   C2321261   1.663   6.467   7.007  0.4585  0.1578 -0.0419
  185SLPC   H3R21262   1.717   6.555   7.046  4.8740 -2.1193 -0.6708
  185SLPC   H3S21263   1.734   6.383   6.990  0.0611 -0.0477 -0.6856
  185SLPC   C2421264   1.560   6.422   7.114 -0.5289 -0.0242  0.3035
  185SLPC   H4R21265   1.511   6.325   7.090 -0.4321 -0.3028  1.1777
  185SLPC   H4S21266   1.483   6.501   7.128  1.2567  1.7190  0.4455
  185SLPC   C2521267   1.629   6.401   7.250 -0.2384 -0.2942  0.4771
  185SLPC   H5R21268   1.691   6.490   7.273 -0.2520 -0.5621  1.5737
  185SLPC   H5S21269   1.705   6.322   7.236  1.5004  1.1069  1.7720
  185SLPC   C2621270   1.525   6.368   7.355 -0.7778  0.6008  0.4977
  185SLPC   H6R21271   1.463   6.284   7.318 -0.7183  0.8217 -0.1045
  185SLPC   H6S21272   1.459   6.457   7.358 -0.3943  0.8859  0.4885
  185SLPC   C2721273   1.588   6.342   7.495  0.2028  0.4871  0.0423
  185SLPC   H7R21274   1.690   6.301   7.475  0.1339 -0.0577  0.7853
  185SLPC   H7S21275   1.536   6.256   7.543  0.8118 -1.2336 -2.2532
  185SLPC   C2821276   1.596   6.466   7.577  0.1890  0.1802  0.2969
  185SLPC   H8R21277   1.495   6.511   7.563 -1.1535 -2.2983  1.6549
  185SLPC   H8S21278   1.670   6.537   7.534 -0.8981  1.4009  0.4282
  185SLPC   C2921279   1.627   6.426   7.724  0.1986  0.6889  0.0562
  185SLPC   H9R21280   1.589   6.325   7.745  1.1405  0.1768 -0.6483
  185SLPC  C21021281   1.662   6.500   7.825  0.3514 -0.1903  0.1162
  185SLPC  H10R21282   1.692   6.453   7.919  0.8209 -0.7356 -0.3020
  185SLPC  C21121283   1.683   6.652   7.830 -0.0387 -0.6584 -0.2120
  185SLPC  H11R21284   1.635   6.699   7.741 -0.7294  0.2455  0.6246
  185SLPC  H11S21285   1.792   6.677   7.825 -0.3275  0.5517 -0.5754
  185SLPC  C21221286   1.630   6.721   7.955  0.2776 -0.0942 -0.3092
  185SLPC  H12R21287   1.529   6.765   7.955  0.3596  0.1683  1.7788
  185SLPC  C21321288   1.702   6.727   8.075 -0.3123 -0.6294 -0.6620
  185SLPC  H13R21289   1.662   6.786   8.158  0.0608  0.3720 -1.1917
  185SLPC  C21421290   1.843   6.684   8.106  0.2139  0.9339  0.2417
  185SLPC  H14R21291   1.913   6.770   8.115 -0.1950  1.2562  0.3673
  185SLPC  H14S21292   1.880   6.612   8.031  1.3950  1.5157  0.2525
  185SLPC  C21521293   1.848   6.606   8.236  0.8370  0.4173  0.2376
  185SLPC  H15R21294   1.803   6.667   8.317 -0.2484  1.2413 -0.9669
  185SLPC  H15S21295   1.957   6.602   8.255  1.0692 -0.3926 -1.2058
  185SLPC  C21621296   1.808   6.454   8.234 -0.2853 -0.1846 -0.5689
  185SLPC  H16R21297   1.856   6.406   8.322 -2.2021 -0.0072  0.5972
  185SLPC  H16S21298   1.840   6.413   8.136  1.9523 -1.4971  0.6611
  185SLPC  C21721299   1.660   6.434   8.243 -0.2098  0.3234  0.5631
  185SLPC  H17R21300   1.617   6.488   8.157  2.3095  1.1722 -0.2100
  185SLPC  H17S21301   1.614   6.467   8.339  1.7229 -2.0184  2.3605
  185SLPC  C21821302   1.616   6.280   8.250  0.6375 -1.2032  0.2618
  185SLPC  H18R21303   1.506   6.275   8.265  0.6839 -0.3929  0.8983
  185SLPC  H18S21304   1.651   6.218   8.335  1.0425 -0.7001  0.4644
  185SLPC  H18T21305   1.642   6.230   8.154  1.7337 -0.0673 -0.0549
  185SLPC   C3321306   2.005   6.863   7.080 -1.0113 -0.5576  0.4652
  185SLPC   H3X21307   2.092   6.932   7.075  0.4199 -2.2890  0.8743
  185SLPC   H3Y21308   2.026   6.783   7.007 -0.9675 -0.3470  0.2466
  185SLPC   C3421309   2.002   6.799   7.216  0.2899 -0.0218 -0.2331
  185SLPC   H4X21310   2.076   6.716   7.217  0.7014  0.3252 -0.9666
  185SLPC   H4Y21311   1.899   6.757   7.214  0.1684  0.2455  0.2832
  185SLPC   C3521312   2.024   6.910   7.316  0.4316  0.3558 -0.3780
  185SLPC   H5X21313   1.941   6.984   7.315 -0.2446 -0.2965  2.8170
  185SLPC   H5Y21314   2.120   6.960   7.292  1.9218 -1.8990  0.7085
  185SLPC   C3621315   2.015   6.860   7.466  0.4746  0.1292  0.1170
  185SLPC   H6X21316   2.083   6.772   7.478 -0.5053 -0.6137  0.2825
  185SLPC   H6Y21317   1.916   6.810   7.473  0.6359 -0.0625  0.9888
  185SLPC   C3721318   2.018   6.967   7.574 -0.0647 -0.2578 -0.2274
  185SLPC   H7X21319   1.931   7.036   7.569 -0.6692 -1.0087 -0.1510
  185SLPC   H7Y21320   2.108   7.031   7.557 -1.1707  1.2543 -0.5078
  185SLPC   C3821321   2.017   6.901   7.711  0.3076 -0.0682  0.4812
  185SLPC   H8X21322   2.099   6.826   7.724 -3.2730 -4.1093  0.7546
  185SLPC   H8Y21323   1.928   6.835   7.719 -0.1200  0.1923 -1.7806
  185SLPC   C3921324   2.017   7.000   7.832  0.7750 -0.8351  0.3249
  185SLPC   H9X21325   2.076   7.091   7.809 -0.5915 -0.4135 -1.6687
  185SLPC   H9Y21326   2.055   6.949   7.923 -2.7240 -2.0326  1.2224
  185SLPC  C31021327   1.869   7.042   7.856 -0.4189 -0.4799  0.2535
  185SLPC  H10X21328   1.815   6.947   7.879 -0.4433 -0.3259  0.8388
  185SLPC  H10Y21329   1.834   7.078   7.756  2.7693  1.9180 -0.0816
  185SLPC  C31121330   1.853   7.154   7.960 -0.0207 -0.5552  0.1515
  185SLPC  H11X21331   1.895   7.250   7.924 -0.0284  0.0756  1.7772
  185SLPC  H11Y21332   1.891   7.113   8.056 -1.2496 -0.5894  0.6370
  185SLPC  C31221333   1.706   7.191   8.000 -0.5890 -0.1228 -1.0005
  185SLPC  H12X21334   1.645   7.217   7.911 -1.3823  1.9895  0.1114
  185SLPC  H12Y21335   1.713   7.290   8.051  2.1441 -0.3324 -0.8641
  185SLPC  C31321336   1.634   7.094   8.089 -1.1603 -0.3789 -0.2705
  185SLPC  H13X21337   1.704   7.071   8.171 -2.4418  1.2499  1.3164
  185SLPC  H13Y21338   1.620   7.003   8.026  0.5781 -0.1274 -1.0556
  185SLPC  C31421339   1.501   7.138   8.152 -0.2528  0.3867  0.0415
  185SLPC  H14X21340   1.426   7.056   8.155 -0.6760  0.6743 -1.9030
  185SLPC  H14Y21341   1.456   7.220   8.093 -3.0001 -1.5357 -0.6017
  185SLPC  C31521342   1.526   7.199   8.290  0.7189 -0.3314  0.5457
  185SLPC  H15X21343   1.595   7.285   8.274  1.7985 -1.2497  0.2050
  185SLPC  H15Y21344   1.576   7.122   8.352  0.7780 -2.1311 -1.6667
  185SLPC  C31621345   1.398   7.229   8.360 -0.4463 -0.3029  0.0521
  185SLPC  H16X21346   1.336   7.137   8.372 -0.3664 -0.8538 -3.2897
  185SLPC  H16Y21347   1.340   7.300   8.298  1.5606  1.3841  0.0210
  185SLPC  C31721348   1.421   7.295   8.498 -0.7148 -0.6182 -0.0453
  185SLPC  H17X21349   1.492   7.228   8.550 -0.9162 -0.6106  0.2383
  185SLPC  H17Y21350   1.330   7.294   8.561 -1.5740  2.1721 -1.1736
  185SLPC  C31821351   1.477   7.437   8.497  0.3735  0.6355  0.5094
  185SLPC  H18X21352   1.498   7.474   8.600 -0.3155 -3.7937  2.3972
  185SLPC  H18Y21353   1.410   7.508   8.446  1.0577  0.0637 -1.2252
  185SLPC  H18Z21354   1.575   7.426   8.446  0.9788 -1.6127  2.0419
  186SLPC     N21355   2.491   2.459   6.172 -0.0810  0.4558 -0.7401
  186SLPC   C1321356   2.453   2.324   6.108  0.3739 -0.3894  0.3010
  186SLPC  H13A21357   2.540   2.268   6.077  0.9816  0.9687 -0.4948
  186SLPC  H13B21358   2.375   2.269   6.158 -0.4057  0.9002  0.5361
  186SLPC  H13C21359   2.405   2.350   6.014  3.1283 -0.1880 -1.0966
  186SLPC   C1421360   2.362   2.535   6.193 -0.3406  0.1065  0.5075
  186SLPC  H14A21361   2.284   2.478   6.241 -1.5725  2.3642  1.2771
  186SLPC  H14B21362   2.380   2.620   6.258  2.0931  0.8686 -1.1272
  186SLPC  H14C21363   2.315   2.559   6.099 -1.2654 -0.5774  0.7842
  186SLPC   C1521364   2.573   2.547   6.075 -0.1708  0.0930  0.1663
  186SLPC  H15A21365   2.611   2.624   6.140 -0.5445 -1.1637  1.9211
  186SLPC  H15B21366   2.654   2.480   6.049  0.2185  0.5480  0.1935
  186SLPC  H15C21367   2.514   2.570   5.987  0.6568  2.0086  0.1013
  186SLPC   C1221368   2.556   2.428   6.304  0.5503 -0.2177 -0.5501
  186SLPC  H12A21369   2.651   2.381   6.286  0.7370  0.0398 -0.2279
  186SLPC  H12B21370   2.488   2.367   6.361  2.1307 -0.7805  0.7451
  186SLPC   C1121371   2.578   2.551   6.402 -0.0072 -0.2643 -0.1481
  186SLPC  H11A21372   2.634   2.512   6.490 -0.3118 -0.1868  0.0812
  186SLPC  H11B21373   2.486   2.593   6.448  0.0359  0.4048 -0.6694
  186SLPC     P21374   2.805   2.672   6.352  0.2546  0.3762  0.3717
  186SLPC   O1321375   2.860   2.540   6.307  0.0467  0.1740 -0.5021
  186SLPC   O1421376   2.856   2.797   6.290 -0.6268  0.6625 -0.7849
  186SLPC   O1221377   2.650   2.663   6.336  0.4858 -0.1446 -0.1242
  186SLPC   O1121378   2.808   2.674   6.511  0.6069  0.4064 -0.4119
  186SLPC    C121379   2.830   2.798   6.579  0.4673 -0.3541  0.1093
  186SLPC    HA21380   2.935   2.824   6.555 -0.8092  1.9592 -3.3249
  186SLPC    HB21381   2.768   2.878   6.534 -0.3720 -0.6095  0.8018
  186SLPC    C221382   2.802   2.795   6.730 -1.0894  0.4319 -0.5587
  186SLPC    HS21383   2.855   2.884   6.768 -0.7660 -0.1921  0.4694
  186SLPC   O2121384   2.843   2.675   6.797 -0.4072  0.0066 -0.0695
  186SLPC   C2121385   2.973   2.664   6.806 -0.3365  0.1751 -0.2293
  186SLPC   O2221386   3.051   2.758   6.777 -0.5273 -0.5864  0.3669
  186SLPC   C2221387   3.026   2.535   6.866 -0.8102  0.3345  0.8076
  186SLPC   H2R21388   3.044   2.459   6.787  1.7176  2.7590 -1.0684
  186SLPC   H2S21389   3.124   2.555   6.916 -1.9822  1.9057  2.5490
  186SLPC    C321390   2.644   2.799   6.758  0.0702  0.4567  0.0138
  186SLPC    HX21391   2.599   2.712   6.706  1.3590 -0.0746 -0.2334
  186SLPC    HY21392   2.602   2.879   6.694 -1.7821 -0.7186 -0.2929
  186SLPC   O3121393   2.617   2.790   6.906 -1.0560  0.3452 -0.0192
  186SLPC   C3121394   2.659   2.897   6.979 -0.8554 -0.1860 -0.1841
  186SLPC   O3221395   2.708   2.997   6.929 -0.3369 -0.0195 -0.1329
  186SLPC   C3221396   2.644   2.879   7.132 -0.2656 -0.2538 -0.1528
  186SLPC   H2X21397   2.540   2.843   7.153 -0.3014 -0.2682 -0.3572
  186SLPC   H2Y21398   2.660   2.979   7.176 -3.2546  0.1976  0.0647
  186SLPC   C2321399   2.922   2.473   6.963  0.5808  0.1893  0.1790
  186SLPC   H3R21400   2.849   2.420   6.898 -1.2556  1.9305  0.7606
  186SLPC   H3S21401   2.870   2.554   7.019 -1.1132 -0.5393 -0.3136
  186SLPC   C2421402   2.985   2.370   7.064  0.7171 -0.2121  0.0517
  186SLPC   H4R21403   3.080   2.405   7.110  0.3505 -0.3346  0.9145
  186SLPC   H4S21404   2.996   2.273   7.012  0.0613 -1.3053  1.9024
  186SLPC   C2521405   2.873   2.343   7.174 -0.3556 -0.1816 -0.3235
  186SLPC   H5R21406   2.798   2.282   7.120  0.6792 -0.6793 -1.2250
  186SLPC   H5S21407   2.829   2.440   7.205  0.2485 -0.4509  1.4391
  186SLPC   C2621408   2.923   2.275   7.299  0.4858 -0.2467  0.0303
  186SLPC   H6R21409   3.019   2.316   7.337  0.4471  0.2964 -0.4488
  186SLPC   H6S21410   2.952   2.172   7.270  0.9241 -0.2182  0.3742
  186SLPC   C2721411   2.799   2.257   7.395 -1.3270 -0.8107 -0.1377
  186SLPC   H7R21412   2.710   2.206   7.352  0.0385 -2.3845 -1.1794
  186SLPC   H7S21413   2.774   2.359   7.432  0.0503 -1.5005  2.8972
  186SLPC   C2821414   2.841   2.175   7.522 -0.1627  0.3676  0.3725
  186SLPC   H8R21415   2.947   2.202   7.543 -0.2326 -0.7490  2.2541
  186SLPC   H8S21416   2.837   2.066   7.504 -3.0707  0.1602  1.8902
  186SLPC   C2921417   2.758   2.214   7.642  0.1020  0.4765  0.0552
  186SLPC   H9R21418   2.685   2.295   7.628 -0.4731 -0.1026 -0.3557
  186SLPC  C21021419   2.755   2.150   7.759 -0.3515 -0.4774  0.3177
  186SLPC  H10R21420   2.699   2.190   7.844  0.0334  0.4807  0.1268
  186SLPC  C21121421   2.844   2.030   7.793  0.2016 -0.9474  0.4183
  186SLPC  H11R21422   2.926   2.010   7.721 -1.4878  0.6654 -1.9974
  186SLPC  H11S21423   2.789   1.933   7.796 -2.0322 -0.1299 -6.0538
  186SLPC  C21221424   2.913   2.055   7.925 -0.3945  0.5845 -0.2376
  186SLPC  H12R21425   2.994   2.129   7.917 -0.5930  0.8793  0.4765
  186SLPC  C21321426   2.889   1.997   8.044  0.1119  0.3212  0.0674
  186SLPC  H13R21427   2.951   2.032   8.127  0.4297  3.3123 -1.3708
  186SLPC  C21421428   2.798   1.882   8.077 -0.2305  0.4592 -0.5385
  186SLPC  H14R21429   2.858   1.789   8.075 -1.9185 -0.6364 -1.6408
  186SLPC  H14S21430   2.722   1.867   7.997  0.0781 -0.5522 -0.6523
  186SLPC  C21521431   2.733   1.896   8.217  0.4597  0.1214  0.3457
  186SLPC  H15R21432   2.661   1.980   8.205  0.8914  0.1862 -2.1870
  186SLPC  H15S21433   2.809   1.929   8.290 -1.9224  1.4182  2.3175
  186SLPC  C21621434   2.650   1.770   8.258  0.6405 -1.0970 -0.5995
  186SLPC  H16R21435   2.716   1.681   8.257  1.2357 -0.6811  0.4353
  186SLPC  H16S21436   2.565   1.757   8.189 -0.6915  1.3269  0.4974
  186SLPC  C21721437   2.576   1.798   8.389  0.0349  0.1184 -0.0553
  186SLPC  H17R21438   2.527   1.896   8.400  0.8511  0.5628 -0.3026
  186SLPC  H17S21439   2.654   1.807   8.467 -0.5612  1.4463  0.3985
  186SLPC  C21821440   2.478   1.684   8.424  0.2271 -0.6255 -0.4452
  186SLPC  H18R21441   2.470   1.696   8.535  0.7867 -0.9632 -0.3682
  186SLPC  H18S21442   2.517   1.583   8.401 -0.1843 -0.6117 -1.1974
  186SLPC  H18T21443   2.388   1.693   8.359  2.3579  1.9010 -3.1642
  186SLPC   C3321444   2.754   2.804   7.213  0.0265 -0.4846 -0.2530
  186SLPC   H3X21445   2.854   2.833   7.176  0.0448 -0.5074 -0.2223
  186SLPC   H3Y21446   2.740   2.696   7.187 -1.0204 -0.4811  0.2518
  186SLPC   C3421447   2.744   2.822   7.367  0.1975  0.0589  0.5385
  186SLPC   H4X21448   2.645   2.783   7.400 -0.3751  1.8066  0.9685
  186SLPC   H4Y21449   2.761   2.929   7.393 -0.2238  0.6353 -1.4576
  186SLPC   C3521450   2.839   2.730   7.442  0.3718  0.1388  0.4425
  186SLPC   H5X21451   2.946   2.758   7.443  0.0398  1.4541  1.5020
  186SLPC   H5Y21452   2.824   2.625   7.407  0.3320  0.4545 -0.4940
  186SLPC   C3621453   2.797   2.730   7.586  0.7421 -0.0269  0.4477
  186SLPC   H6X21454   2.688   2.714   7.599  0.9157 -0.2673  1.6498
  186SLPC   H6Y21455   2.820   2.825   7.639  1.2601  0.4891 -0.6789
  186SLPC   C3721456   2.869   2.616   7.661 -0.4144  0.9267 -0.5988
  186SLPC   H7X21457   2.980   2.624   7.660 -0.4359  1.3383  0.1794
  186SLPC   H7Y21458   2.842   2.524   7.605 -5.2707  1.2016  1.1151
  186SLPC   C3821459   2.843   2.595   7.811 -0.7796  0.7493 -0.8092
  186SLPC   H8X21460   2.737   2.567   7.828 -0.3267 -1.6299 -1.7152
  186SLPC   H8Y21461   2.853   2.692   7.864 -1.4361  0.6188 -0.4384
  186SLPC   C3921462   2.929   2.495   7.884 -0.1430 -0.4162  0.6367
  186SLPC   H9X21463   3.037   2.511   7.865 -0.2796  0.3277  0.5089
  186SLPC   H9Y21464   2.912   2.395   7.838 -1.7874  2.4830 -5.5934
  186SLPC  C31021465   2.897   2.481   8.035 -0.0279  0.1955 -0.2014
  186SLPC  H10X21466   2.789   2.458   8.051  0.2441  0.5016  2.3537
  186SLPC  H10Y21467   2.921   2.570   8.096 -1.2634 -0.6051  1.5032
  186SLPC  C31121468   2.978   2.373   8.102  0.0922 -0.0399  0.2367
  186SLPC  H11X21469   3.087   2.394   8.103 -0.2743  2.2034 -1.7967
  186SLPC  H11Y21470   2.971   2.283   8.037 -1.2463  0.0134  0.3059
  186SLPC  C31221471   2.942   2.346   8.248  0.4580  0.3891  0.4064
  186SLPC  H12X21472   2.845   2.295   8.266 -0.0627  0.5836 -1.6637
  186SLPC  H12Y21473   2.933   2.447   8.294  0.2716  0.6908 -0.2767
  186SLPC  C31321474   3.059   2.269   8.316  0.0761 -0.6767  0.6323
  186SLPC  H13X21475   3.160   2.315   8.306  0.0464 -0.6872  0.2849
  186SLPC  H13Y21476   3.070   2.173   8.260  0.6787 -0.4549  0.3673
  186SLPC  C31421477   3.029   2.236   8.463 -0.5673  0.1287  0.9437
  186SLPC  H14X21478   2.928   2.190   8.472 -0.2583 -0.5245  1.1214
  186SLPC  H14Y21479   3.044   2.328   8.524  1.6847  1.5990 -1.7374
  186SLPC  C31521480   3.126   2.137   8.519 -0.4589  0.3810 -0.1340
  186SLPC  H15X21481   3.112   2.037   8.473  3.1493 -0.1831 -0.1534
  186SLPC  H15Y21482   3.105   2.114   8.626 -0.1791  1.8661  0.2541
  186SLPC  C31621483   3.279   2.160   8.503 -0.1609  0.4207  0.7702
  186SLPC  H16X21484   3.315   2.158   8.398 -1.6556 -1.5240  0.2592
  186SLPC  H16Y21485   3.330   2.082   8.563  0.5055  0.4268  0.2091
  186SLPC  C31721486   3.313   2.291   8.564  0.9244  0.0772 -0.6970
  186SLPC  H17X21487   3.284   2.303   8.671  0.9197  1.2289 -0.8191
  186SLPC  H17Y21488   3.264   2.365   8.498  0.8642  1.1924  0.5749
  186SLPC  C31821489   3.463   2.329   8.560 -0.4626  0.1058  0.0924
  186SLPC  H18X21490   3.471   2.440   8.572  1.3576  0.0735 -0.6387
  186SLPC  H18Y21491   3.510   2.321   8.460 -2.1668  0.9003 -0.7825
  186SLPC  H18Z21492   3.539   2.277   8.622 -0.3396 -0.0162 -0.1615
  187SLPC     N21493   2.840   6.231   6.209  0.2498  0.4258  0.5739
  187SLPC   C1321494   2.952   6.180   6.127 -0.1447  0.2114 -0.1018
  187SLPC  H13A21495   2.932   6.076   6.106  1.0649 -0.1485  0.5060
  187SLPC  H13B21496   2.976   6.248   6.046 -0.3375 -0.4933 -0.7636
  187SLPC  H13C21497   3.042   6.180   6.186 -0.2054 -1.6441  0.0327
  187SLPC   C1421498   2.716   6.230   6.121  0.5302  0.0810  0.2975
  187SLPC  H14A21499   2.675   6.133   6.097 -0.7857  0.6989  0.0149
  187SLPC  H14B21500   2.629   6.276   6.164 -2.0292 -0.4880 -3.9541
  187SLPC  H14C21501   2.722   6.284   6.028 -1.5605 -1.6497 -0.8778
  187SLPC   C1521502   2.861   6.371   6.253 -1.0026  0.5948  0.8430
  187SLPC  H15A21503   2.922   6.380   6.342 -3.8154  2.6088  2.6470
  187SLPC  H15B21504   2.901   6.421   6.165 -2.5968 -1.4911 -1.1214
  187SLPC  H15C21505   2.767   6.414   6.283 -1.8179 -2.8439  3.4971
  187SLPC   C1221506   2.814   6.144   6.335 -0.1703  0.2228 -0.1190
  187SLPC  H12A21507   2.798   6.040   6.311  0.6456 -0.1025  0.7169
  187SLPC  H12B21508   2.722   6.178   6.380  0.8274 -0.0808  2.2270
  187SLPC   C1121509   2.917   6.148   6.448  0.2559 -0.5247  0.0384
  187SLPC  H11A21510   3.012   6.109   6.406  0.5821 -0.0987  0.3812
  187SLPC  H11B21511   2.874   6.079   6.525  0.8196 -0.3621  0.5024
  187SLPC     P21512   3.049   6.317   6.594  0.2915 -0.3315  0.2831
  187SLPC   O1321513   3.169   6.259   6.537  0.0907 -0.5182  0.6892
  187SLPC   O1421514   3.053   6.460   6.612  0.0628  0.0956  0.1288
  187SLPC   O1221515   2.926   6.279   6.503  0.1849  0.1118 -0.6373
  187SLPC   O1121516   3.026   6.259   6.734  0.2312  0.2092 -0.1602
  187SLPC    C121517   3.028   6.121   6.754 -0.0568  0.2027 -0.4164
  187SLPC    HA21518   2.931   6.095   6.802  0.5536  3.0766  2.5785
  187SLPC    HB21519   3.046   6.061   6.662  1.4174  0.1220 -0.0904
  187SLPC    C221520   3.144   6.083   6.856  0.4184 -0.3649 -1.1062
  187SLPC    HS21521   3.117   5.981   6.892 -0.4469  0.0518 -0.5423
  187SLPC   O2121522   3.150   6.163   6.975  0.1853  0.4891  0.5290
  187SLPC   C2121523   3.038   6.171   7.056  0.3091  0.0041  0.0366
  187SLPC   O2221524   2.927   6.127   7.027  0.0766 -0.1189 -0.1211
  187SLPC   C2221525   3.084   6.239   7.190 -0.3372 -0.1376  0.2907
  187SLPC   H2R21526   3.189   6.214   7.216 -0.1612 -0.8298 -1.0820
  187SLPC   H2S21527   3.086   6.347   7.161  0.8096 -1.0678 -3.2882
  187SLPC    C321528   3.285   6.074   6.791 -1.0482  0.0672  0.3015
  187SLPC    HX21529   3.298   6.181   6.765 -0.4686  0.0383  0.4655
  187SLPC    HY21530   3.281   6.022   6.692 -0.1688  0.6757 -0.0620
  187SLPC   O3121531   3.385   6.018   6.882 -0.2684 -0.2537  0.3633
  187SLPC   C3121532   3.370   5.885   6.899 -0.6513 -0.2415 -0.6851
  187SLPC   O3221533   3.300   5.814   6.832 -0.7512 -0.2451  0.0305
  187SLPC   C3221534   3.461   5.835   7.010 -0.7474  0.2374 -0.9205
  187SLPC   H2X21535   3.551   5.900   7.006 -1.2559  1.0603  0.5107
  187SLPC   H2Y21536   3.488   5.730   6.987  0.2331  0.2242  0.1915
  187SLPC   C2321537   3.002   6.194   7.308 -0.3144  0.4974  1.1443
  187SLPC   H3R21538   2.999   6.084   7.322 -0.3359 -0.1382 -3.0469
  187SLPC   H3S21539   2.897   6.230   7.307  0.3220  2.3765  0.6181
  187SLPC   C2421540   3.054   6.263   7.434 -0.7503  0.5812  0.3003
  187SLPC   H4R21541   3.069   6.372   7.417 -0.1828  0.6480  1.1938
  187SLPC   H4S21542   3.156   6.228   7.459 -1.1886 -1.4454 -0.6663
  187SLPC   C2521543   2.960   6.236   7.556  0.6839 -0.1354 -0.3384
  187SLPC   H5R21544   2.950   6.126   7.554  0.0064 -0.0761 -0.6444
  187SLPC   H5S21545   2.865   6.288   7.530  0.1701 -1.3331 -0.8925
  187SLPC   C2621546   3.006   6.269   7.687  0.3667 -0.1831  0.1497
  187SLPC   H6R21547   3.012   6.378   7.709  0.3699 -0.7689  3.2738
  187SLPC   H6S21548   3.109   6.229   7.690  0.8632  0.9720 -0.7768
  187SLPC   C2721549   2.932   6.199   7.805 -0.0811 -0.2124 -0.0330
  187SLPC   H7R21550   2.923   6.089   7.793  1.5287 -0.1513 -2.1166
  187SLPC   H7S21551   2.830   6.243   7.809  1.1935  2.7899  1.9464
  187SLPC   C2821552   2.974   6.243   7.945  0.6803 -0.3140  0.1157
  187SLPC   H8R21553   2.907   6.203   8.023 -0.3490  2.0951  0.4950
  187SLPC   H8S21554   2.957   6.352   7.956 -1.0969 -0.5041 -0.5901
  187SLPC   C2921555   3.123   6.217   7.980 -0.3006  1.0831 -0.2477
  187SLPC   H9R21556   3.194   6.272   7.918 -0.9211  3.0136  0.7199
  187SLPC  C21021557   3.175   6.164   8.090 -0.0270 -0.2824  0.2665
  187SLPC  H10R21558   3.284   6.151   8.085  0.0614  1.1417 -1.9868
  187SLPC  C21121559   3.102   6.087   8.195  0.2080 -1.2172  0.0007
  187SLPC  H11R21560   3.150   5.988   8.205  2.0037 -0.5482 -1.6546
  187SLPC  H11S21561   3.002   6.058   8.156 -1.2556  2.2249  0.9675
  187SLPC  C21221562   3.090   6.168   8.321 -0.0483 -0.5759  0.4556
  187SLPC  H12R21563   3.097   6.277   8.305  2.3711 -0.9445 -1.2340
  187SLPC  C21321564   3.067   6.119   8.447  0.1422 -0.1582  0.2277
  187SLPC  H13R21565   3.075   6.191   8.530  2.3306 -1.0202  0.8003
  187SLPC  C21421566   3.049   5.981   8.505  0.3605  0.1027 -0.5772
  187SLPC  H14R21567   3.047   5.904   8.425 -2.1735 -1.3779  0.8292
  187SLPC  H14S21568   2.954   5.967   8.562 -0.3797 -0.2550 -1.8682
  187SLPC  C21521569   3.159   5.929   8.610 -0.2903  0.9052 -0.5763
  187SLPC  H15R21570   3.260   5.925   8.563 -0.2229  1.4440 -0.4770
  187SLPC  H15S21571   3.126   5.823   8.622 -0.1913  0.8509 -0.7685
  187SLPC  C21621572   3.160   6.015   8.738 -0.1852  0.3093  0.7149
  187SLPC  H16R21573   3.198   6.112   8.700  0.3704  0.4967  1.7317
  187SLPC  H16S21574   3.230   5.984   8.819 -0.4618 -2.7067 -0.1379
  187SLPC  C21721575   3.024   6.037   8.805 -0.5409 -0.1045 -0.6974
  187SLPC  H17R21576   2.978   5.937   8.812 -1.5682  0.4632  1.1231
  187SLPC  H17S21577   2.967   6.115   8.749  1.1138  2.7611  1.4534
  187SLPC  C21821578   3.039   6.097   8.940  0.1547 -0.1267 -0.7310
  187SLPC  H18R21579   3.064   6.205   8.933 -0.7850  0.0399 -1.5711
  187SLPC  H18S21580   3.099   6.041   9.014  0.3605 -2.3399 -2.5070
  187SLPC  H18T21581   2.937   6.094   8.983 -0.3039 -0.3256 -1.7987
  187SLPC   C3321582   3.404   5.843   7.151  0.8536 -0.0984  0.2657
  187SLPC   H3X21583   3.305   5.793   7.154  0.5889  0.3947 -0.2014
  187SLPC   H3Y21584   3.388   5.950   7.175 -1.9147 -1.1248  3.3107
  187SLPC   C3421585   3.490   5.767   7.251  0.4378  0.1518 -0.1278
  187SLPC   H4X21586   3.594   5.807   7.247  1.5298 -2.5206  0.4819
  187SLPC   H4Y21587   3.487   5.658   7.227  0.6317  0.3474 -1.0632
  187SLPC   C3521588   3.447   5.803   7.398  0.0987 -0.0172  0.7886
  187SLPC   H5X21589   3.352   5.752   7.424 -0.0225  0.2044  0.7702
  187SLPC   H5Y21590   3.432   5.913   7.399 -1.6186 -0.2289 -0.3622
  187SLPC   C3621591   3.562   5.770   7.500 -0.5761  1.0670  0.1822
  187SLPC   H6X21592   3.648   5.825   7.457 -0.4529  0.2205 -0.6550
  187SLPC   H6Y21593   3.585   5.662   7.503 -0.2348  1.1649  1.4202
  187SLPC   C3721594   3.521   5.823   7.636  0.6433 -0.5367 -0.4543
  187SLPC   H7X21595   3.615   5.822   7.696  0.0168 -0.4815  0.5299
  187SLPC   H7Y21596   3.504   5.933   7.631  0.1375 -0.5951 -0.0559
  187SLPC   C3821597   3.412   5.744   7.702 -0.4551 -0.0487  0.5530
  187SLPC   H8X21598   3.458   5.644   7.719 -1.1449 -0.0424  2.4962
  187SLPC   H8Y21599   3.333   5.724   7.625 -0.3536  0.7473  0.2418
  187SLPC   C3921600   3.365   5.802   7.834  0.7302  0.2953  0.1658
  187SLPC   H9X21601   3.269   5.757   7.866 -0.2863  0.2093 -2.8591
  187SLPC   H9Y21602   3.348   5.911   7.816  0.0216 -0.2211 -2.5369
  187SLPC  C31021603   3.465   5.785   7.947 -0.2570  0.3565 -0.1360
  187SLPC  H10X21604   3.544   5.862   7.933 -0.2942  0.6093  0.9880
  187SLPC  H10Y21605   3.513   5.687   7.930 -1.2760  0.1985 -2.3053
  187SLPC  C31121606   3.394   5.794   8.079  0.1418  0.8740  0.6134
  187SLPC  H11X21607   3.351   5.698   8.115 -1.1328  0.6217 -1.4770
  187SLPC  H11Y21608   3.309   5.864   8.060 -0.6859 -0.1352  0.5139
  187SLPC  C31221609   3.486   5.841   8.189 -0.3381 -0.6822  0.8617
  187SLPC  H12X21610   3.498   5.951   8.177 -0.8398 -0.6496  0.6230
  187SLPC  H12Y21611   3.587   5.803   8.163  0.2398 -0.2099  2.4106
  187SLPC  C31321612   3.434   5.812   8.329  0.0786 -0.0814 -0.2105
  187SLPC  H13X21613   3.415   5.702   8.334 -0.9919  0.0165 -1.6565
  187SLPC  H13Y21614   3.334   5.860   8.340  0.1040 -0.7463  3.4374
  187SLPC  C31421615   3.526   5.853   8.440 -0.0708 -0.0812  0.4689
  187SLPC  H14X21616   3.604   5.774   8.444  1.3890  1.2157 -1.4420
  187SLPC  H14Y21617   3.472   5.853   8.537 -0.9740 -0.0500 -0.0341
  187SLPC  C31521618   3.597   5.989   8.427  0.0207 -0.1555  0.0254
  187SLPC  H15X21619   3.523   6.072   8.439  0.5320  0.6085 -1.8624
  187SLPC  H15Y21620   3.663   6.002   8.338  1.7208 -3.2339  0.7635
  187SLPC  C31621621   3.695   5.997   8.549  0.4671  1.0944  0.0517
  187SLPC  H16X21622   3.785   6.055   8.519  1.1862 -0.2586 -0.4654
  187SLPC  H16Y21623   3.735   5.898   8.579  2.0800  1.9722  0.8165
  187SLPC  C31721624   3.645   6.077   8.664  0.0747 -0.6142  0.5669
  187SLPC  H17X21625   3.608   6.178   8.635  4.2919  0.8997  0.0082
  187SLPC  H17Y21626   3.740   6.099   8.718  0.1544  1.6178 -0.4080
  187SLPC  C31821627   3.563   6.004   8.761  0.1163 -0.2422 -0.4989
  187SLPC  H18X21628   3.616   5.910   8.788  2.2087  1.0235 -0.1207
  187SLPC  H18Y21629   3.461   5.973   8.730 -1.2314  0.3627  3.0738
  187SLPC  H18Z21630   3.544   6.066   8.851 -0.0620  1.4066 -1.6516
  188SLPC     N21631   4.505   0.549   6.074  0.1497 -0.2308  0.7587
  188SLPC   C1321632   4.618   0.642   6.048 -0.1957  0.3705  0.0562
  188SLPC  H13A21633   4.653   0.687   6.140 -0.8977 -0.3581  0.6979
  188SLPC  H13B21634   4.698   0.592   5.996 -1.6729  0.9561 -2.8997
  188SLPC  H13C21635   4.578   0.718   5.984 -1.1621  0.7531  1.0903
  188SLPC   C1421636   4.466   0.488   5.941  0.0649 -0.0401  0.3118
  188SLPC  H14A21637   4.441   0.561   5.865  0.9649  0.6174  0.6316
  188SLPC  H14B21638   4.554   0.435   5.907  1.1604  1.1010  1.2836
  188SLPC  H14C21639   4.376   0.432   5.961  0.4050 -0.3212  1.0599
  188SLPC   C1521640   4.384   0.620   6.120  0.3437 -0.2105 -0.0096
  188SLPC  H15A21641   4.413   0.679   6.206  0.3027 -0.4941  0.2016
  188SLPC  H15B21642   4.342   0.679   6.040  3.2903  0.3619 -1.2123
  188SLPC  H15C21643   4.307   0.548   6.144  0.1324 -0.6149 -1.8124
  188SLPC   C1221644   4.546   0.437   6.168 -0.1489  0.2481 -1.2724
  188SLPC  H12A21645   4.575   0.478   6.264 -0.2120 -3.9318  0.6472
  188SLPC  H12B21646   4.631   0.389   6.122  0.2734 -1.7968  1.5288
  188SLPC   C1121647   4.448   0.319   6.189  0.5383  0.7766 -0.3048
  188SLPC  H11A21648   4.498   0.235   6.243 -1.2428 -0.2207 -0.1651
  188SLPC  H11B21649   4.428   0.270   6.091 -0.8715 -1.7439  1.1871
  188SLPC     P21650   4.306   0.388   6.398 -0.0958 -0.0570  0.0745
  188SLPC   O1321651   4.330   0.262   6.474 -0.0356  0.0475 -0.5324
  188SLPC   O1421652   4.383   0.504   6.442 -0.5260  0.7460  0.5100
  188SLPC   O1221653   4.321   0.357   6.244 -0.5618 -0.0239 -0.2150
  188SLPC   O1121654   4.155   0.423   6.400  0.3174 -0.0930 -0.9221
  188SLPC    C121655   4.088   0.429   6.533 -0.2607 -0.4301  0.2155
  188SLPC    HA21656   3.982   0.404   6.511 -0.0910  1.5544 -3.3779
  188SLPC    HB21657   4.127   0.359   6.609  1.2310  1.1673  0.9542
  188SLPC    C221658   4.093   0.570   6.600  0.2523 -0.0204  0.5502
  188SLPC    HS21659   4.198   0.601   6.613  0.5871 -0.3212 -1.3308
  188SLPC   O2121660   4.020   0.557   6.727  0.1120 -0.4344 -0.4862
  188SLPC   C2121661   4.074   0.480   6.821  0.0204 -0.9762  0.5950
  188SLPC   O2221662   4.194   0.442   6.822  0.0245  0.2094  0.6705
  188SLPC   C2221663   3.963   0.442   6.928  0.0520  0.2698  0.4119
  188SLPC   H2R21664   3.874   0.416   6.868  0.9180  0.0366 -0.8058
  188SLPC   H2S21665   3.990   0.351   6.984 -1.2460 -0.2084  0.2706
  188SLPC    C321666   4.035   0.684   6.520  0.0595 -0.2769  0.2931
  188SLPC    HX21667   3.941   0.649   6.473  1.1612 -0.5132 -1.7877
  188SLPC    HY21668   4.115   0.701   6.445 -0.3748 -1.0687 -0.3477
  188SLPC   O3121669   4.001   0.801   6.602  0.1571 -0.3183  0.1018
  188SLPC   C3121670   4.095   0.892   6.614  0.4918 -0.2561  0.0287
  188SLPC   O3221671   4.210   0.892   6.567 -0.5034 -0.3447  0.2386
  188SLPC   C3221672   4.036   1.007   6.696 -0.0865 -0.3056 -0.6950
  188SLPC   H2X21673   3.949   0.971   6.755 -0.6707  1.9006 -0.1563
  188SLPC   H2Y21674   3.986   1.070   6.619 -3.4907 -1.3751  0.5337
  188SLPC   C2321675   3.937   0.556   7.032  0.2527  0.2289  0.9458
  188SLPC   H3R21676   3.865   0.509   7.103  0.5082 -1.6000  0.0178
  188SLPC   H3S21677   3.885   0.644   6.988  0.1387 -0.5043 -0.4076
  188SLPC   C2421678   4.056   0.587   7.116  0.6190 -0.5686  0.5680
  188SLPC   H4R21679   4.131   0.645   7.059 -0.4155  0.6398  0.4054
  188SLPC   H4S21680   4.100   0.493   7.155  1.0243 -0.0240  1.4238
  188SLPC   C2521681   4.012   0.675   7.232 -0.5007 -0.8692  0.1132
  188SLPC   H5R21682   3.940   0.752   7.196  0.7936  0.2478 -0.1380
  188SLPC   H5S21683   4.089   0.743   7.276 -2.5798 -0.5437  3.4576
  188SLPC   C2621684   3.968   0.599   7.356  0.3829  0.5199 -0.9327
  188SLPC   H6R21685   4.052   0.538   7.396  0.1090  0.2092 -0.8277
  188SLPC   H6S21686   3.900   0.520   7.318  0.5863 -0.7873  1.3035
  188SLPC   C2721687   3.899   0.676   7.469  0.1282 -0.3569  0.5014
  188SLPC   H7R21688   3.818   0.739   7.426  1.3757  0.5456 -0.5749
  188SLPC   H7S21689   3.977   0.748   7.502  0.0855 -0.3557  0.6002
  188SLPC   C2821690   3.849   0.583   7.580  0.1154  0.5869  0.2905
  188SLPC   H8R21691   3.925   0.503   7.592  0.6458  0.9564 -0.5414
  188SLPC   H8S21692   3.766   0.523   7.537  0.8607 -0.4924  0.3550
  188SLPC   C2921693   3.811   0.651   7.711  0.4749 -0.0142  0.0743
  188SLPC   H9R21694   3.710   0.694   7.718  0.1461 -0.6150 -0.9167
  188SLPC  C21021695   3.893   0.696   7.805  0.1673  0.9533 -0.4212
  188SLPC  H10R21696   3.852   0.729   7.901 -0.1101 -1.6393  0.3867
  188SLPC  C21121697   4.041   0.666   7.801 -0.6195  0.1593  0.8957
  188SLPC  H11R21698   4.090   0.715   7.888  0.5051 -0.9324  0.8822
  188SLPC  H11S21699   4.082   0.726   7.717 -0.1868  1.2023  1.8200
  188SLPC  C21221700   4.099   0.526   7.800  0.0283  0.6547  0.0794
  188SLPC  H12R21701   4.130   0.481   7.705 -0.1408 -1.1566  0.8571
  188SLPC  C21321702   4.129   0.460   7.916  0.0834  0.2977  0.0462
  188SLPC  H13R21703   4.171   0.358   7.919  0.0211  0.3057  2.4124
  188SLPC  C21421704   4.111   0.513   8.052 -0.4193 -1.0513 -0.1797
  188SLPC  H14R21705   4.074   0.618   8.053  1.1930 -0.4388 -2.2482
  188SLPC  H14S21706   4.209   0.506   8.104 -1.1256  1.4778  1.5970
  188SLPC  C21521707   4.012   0.406   8.121  0.4094  0.0124 -0.8277
  188SLPC  H15R21708   4.062   0.306   8.121 -0.9909 -0.7039 -0.8231
  188SLPC  H15S21709   3.917   0.393   8.065 -1.2205 -1.7179  2.1519
  188SLPC  C21621710   3.973   0.444   8.260 -0.2447 -0.1637 -0.5868
  188SLPC  H16R21711   3.917   0.540   8.270  0.4955  0.3779 -1.5943
  188SLPC  H16S21712   4.058   0.447   8.331 -0.9316  1.3078  0.2037
  188SLPC  C21721713   3.875   0.339   8.328  0.1085 -1.2060 -0.0146
  188SLPC  H17R21714   3.905   0.233   8.340 -1.6415 -1.9612 -2.0075
  188SLPC  H17S21715   3.802   0.319   8.247 -1.4096 -1.5600  1.4247
  188SLPC  C21821716   3.798   0.393   8.451 -0.0891 -0.5837 -0.4684
  188SLPC  H18R21717   3.724   0.324   8.495 -0.7551  0.9255  0.8374
  188SLPC  H18S21718   3.746   0.488   8.427  1.9036  0.4780 -0.7178
  188SLPC  H18T21719   3.864   0.434   8.530 -0.8124 -2.5133  1.1687
  188SLPC   C3321720   4.137   1.072   6.788 -0.0292 -0.2503  0.1413
  188SLPC   H3X21721   4.124   1.182   6.796 -4.3275 -0.6055 -0.7204
  188SLPC   H3Y21722   4.240   1.052   6.749 -0.4298 -0.8951 -0.5947
  188SLPC   C3421723   4.137   1.014   6.929  0.5272 -0.3203  0.0238
  188SLPC   H4X21724   4.154   0.905   6.911 -0.3103  0.0456 -3.3053
  188SLPC   H4Y21725   4.043   1.030   6.985  0.8947  0.4396  0.4357
  188SLPC   C3521726   4.251   1.067   7.016  0.5445  0.3041 -0.1703
  188SLPC   H5X21727   4.230   1.176   7.025 -0.6847  0.0962 -0.3479
  188SLPC   H5Y21728   4.350   1.059   6.968 -0.0903  0.4256 -1.5186
  188SLPC   C3621729   4.257   1.006   7.159 -0.1606  0.4158  0.1136
  188SLPC   H6X21730   4.360   1.023   7.196 -0.1977 -1.7753  1.3119
  188SLPC   H6Y21731   4.259   0.895   7.148 -0.9738  0.2551  1.4070
  188SLPC   C3721732   4.143   1.038   7.253  0.8534 -0.1396  0.0991
  188SLPC   H7X21733   4.046   0.989   7.231  0.7802  0.4820 -0.9691
  188SLPC   H7Y21734   4.125   1.147   7.248 -3.6723 -0.8715 -1.4358
  188SLPC   C3821735   4.183   1.009   7.394  0.3632 -0.0090 -0.4909
  188SLPC   H8X21736   4.280   1.058   7.420  0.1323  0.4270 -0.4308
  188SLPC   H8Y21737   4.182   0.900   7.415  1.0612 -0.1502 -1.1716
  188SLPC   C3921738   4.087   1.071   7.502 -0.5698 -0.0891 -0.0584
  188SLPC   H9X21739   3.992   1.015   7.487 -0.3443 -0.4912  0.0336
  188SLPC   H9Y21740   4.067   1.181   7.496 -0.2750  0.0436  1.2144
  188SLPC  C31021741   4.139   1.058   7.648 -0.3166  0.8546  0.0070
  188SLPC  H10X21742   4.234   1.112   7.667 -0.8366  2.0848 -0.8061
  188SLPC  H10Y21743   4.158   0.949   7.660  0.8743  0.9376 -0.9820
  188SLPC  C31121744   4.033   1.099   7.742  0.2215 -0.5329  0.4808
  188SLPC  H11X21745   3.937   1.052   7.712 -0.5407  1.0424  0.4172
  188SLPC  H11Y21746   4.024   1.209   7.742 -1.9225 -0.5858 -3.8574
  188SLPC  C31221747   4.051   1.049   7.890  0.2235 -0.0810  0.4466
  188SLPC  H12X21748   4.058   0.938   7.884 -0.1338 -0.1304  0.8763
  188SLPC  H12Y21749   3.961   1.075   7.949 -0.9369  0.3622 -1.4630
  188SLPC  C31321750   4.180   1.090   7.961 -0.1330 -0.0493  0.2732
  188SLPC  H13X21751   4.267   1.063   7.898  0.4593  3.7400 -0.6492
  188SLPC  H13Y21752   4.176   1.033   8.057  0.7855 -1.7224 -0.6639
  188SLPC  C31421753   4.199   1.237   7.979  0.3032  0.4393 -0.1917
  188SLPC  H14X21754   4.104   1.292   7.999 -0.5408 -0.6241 -1.2018
  188SLPC  H14Y21755   4.232   1.281   7.882 -2.7082  0.6516 -1.2015
  188SLPC  C31521756   4.312   1.269   8.089  0.0714 -0.1529  0.3021
  188SLPC  H15X21757   4.336   1.378   8.091  1.4958 -0.4622  0.3257
  188SLPC  H15Y21758   4.409   1.220   8.071  1.6673  2.2105  2.1325
  188SLPC  C31621759   4.262   1.237   8.231 -0.0560 -0.6444 -0.4438
  188SLPC  H16X21760   4.350   1.204   8.291  0.5496  0.0129 -0.9599
  188SLPC  H16Y21761   4.184   1.158   8.226 -0.6083 -0.4254  3.5678
  188SLPC  C31721762   4.205   1.359   8.301  0.6463  0.1378  0.1927
  188SLPC  H17X21763   4.129   1.333   8.377  1.7591  0.9420  1.6133
  188SLPC  H17Y21764   4.148   1.415   8.224  1.6737 -2.5184 -2.5782
  188SLPC  C31821765   4.300   1.458   8.359 -0.2742  0.2669 -0.7249
  188SLPC  H18X21766   4.244   1.544   8.399  1.9254  1.6624 -0.5577
  188SLPC  H18Y21767   4.372   1.498   8.284 -0.1303  0.8216 -0.2938
  188SLPC  H18Z21768   4.360   1.417   8.443 -1.0735  1.1004  0.2615
  189SLPC     N21769   6.651   2.257   6.196  0.3905 -0.2709  0.2943
  189SLPC   C1321770   6.675   2.382   6.125  0.0316 -0.5981  0.4857
  189SLPC  H13A21771   6.590   2.441   6.094  0.7242  1.0163  1.5368
  189SLPC  H13B21772   6.730   2.445   6.193  4.2219 -0.7491 -2.4987
  189SLPC  H13C21773   6.742   2.353   6.045 -0.1516 -0.0889  0.1393
  189SLPC   C1421774   6.780   2.190   6.235 -0.0779  0.0151  0.2304
  189SLPC  H14A21775   6.828   2.240   6.317 -1.6138  0.6551  0.7553
  189SLPC  H14B21776   6.766   2.090   6.273 -2.6320 -0.0332 -0.7174
  189SLPC  H14C21777   6.838   2.184   6.144 -1.2045  1.0501 -0.5707
  189SLPC   C1521778   6.591   2.157   6.102 -0.5730 -0.2604 -0.5940
  189SLPC  H15A21779   6.660   2.145   6.020 -1.0850 -2.0156 -0.7932
  189SLPC  H15B21780   6.571   2.059   6.143  0.1078 -0.5377 -0.9123
  189SLPC  H15C21781   6.495   2.190   6.065 -0.8628 -1.0833 -0.5879
  189SLPC   C1221782   6.563   2.270   6.312  0.2149 -0.1621 -0.4470
  189SLPC  H12A21783   6.530   2.172   6.342  0.2779  0.1119  0.5353
  189SLPC  H12B21784   6.470   2.321   6.291  0.5015 -0.1463 -1.7104
  189SLPC   C1121785   6.616   2.343   6.442 -0.3159  0.0090 -0.3390
  189SLPC  H11A21786   6.676   2.268   6.498  0.8841  1.6822  0.6701
  189SLPC  H11B21787   6.534   2.376   6.509 -1.2428 -0.1588 -1.3992
  189SLPC     P21788   6.694   2.595   6.450 -0.1678  0.6555 -0.1778
  189SLPC   O1321789   6.830   2.643   6.485 -0.0414  0.6055 -0.5148
  189SLPC   O1421790   6.620   2.669   6.347 -0.6813 -0.1243  0.7371
  189SLPC   O1221791   6.703   2.446   6.404  0.2950  0.4566 -0.1788
  189SLPC   O1121792   6.606   2.594   6.583 -1.2427  0.2617 -0.0347
  189SLPC    C121793   6.666   2.563   6.712  0.2803  0.7920  0.1332
  189SLPC    HA21794   6.732   2.473   6.714 -0.7299  0.0567  2.0859
  189SLPC    HB21795   6.726   2.653   6.739  1.2637  0.5261 -1.1434
  189SLPC    C221796   6.566   2.540   6.826  0.9090 -0.9638 -0.1799
  189SLPC    HS21797   6.631   2.526   6.915 -0.6908 -3.6266  0.6209
  189SLPC   O2121798   6.481   2.427   6.810 -0.4279  0.0780  0.0652
  189SLPC   C2121799   6.535   2.312   6.782 -0.2897  0.8331 -0.2521
  189SLPC   O2221800   6.654   2.288   6.768 -0.3148  0.0907 -0.7683
  189SLPC   C2221801   6.432   2.202   6.780  0.0849  0.6509 -0.1494
  189SLPC   H2R21802   6.333   2.248   6.798  0.0092  0.8205 -1.0010
  189SLPC   H2S21803   6.431   2.165   6.676  0.1143  5.1470 -1.8818
  189SLPC    C321804   6.472   2.663   6.845  0.4366  0.5499  0.3203
  189SLPC    HX21805   6.409   2.676   6.754 -0.4343  0.5244  0.9151
  189SLPC    HY21806   6.539   2.752   6.845  0.9055  0.2016  0.5665
  189SLPC   O3121807   6.396   2.659   6.968  0.1000 -0.7364 -0.3010
  189SLPC   C3121808   6.452   2.716   7.075  1.1787  0.1781  0.7651
  189SLPC   O3221809   6.555   2.778   7.083 -0.0760 -0.2481 -0.4828
  189SLPC   C3221810   6.365   2.677   7.198  0.4294  0.2368 -0.4634
  189SLPC   H2X21811   6.304   2.586   7.180 -1.8584  1.2501  1.8027
  189SLPC   H2Y21812   6.286   2.755   7.192 -1.1511 -1.3195 -0.1521
  189SLPC   C2321813   6.472   2.099   6.883 -0.5956 -0.7250  0.1051
  189SLPC   H3R21814   6.581   2.087   6.862 -0.2305  1.1080  0.8094
  189SLPC   H3S21815   6.420   2.004   6.861 -0.2227 -0.9067 -0.0111
  189SLPC   C2421816   6.448   2.131   7.027  0.2218  0.6845 -0.4041
  189SLPC   H4R21817   6.339   2.121   7.047 -0.3041  1.8811 -2.4963
  189SLPC   H4S21818   6.488   2.227   7.064  1.2176 -0.3331  1.2110
  189SLPC   C2521819   6.535   2.038   7.119 -0.2630  0.6849 -0.7902
  189SLPC   H5R21820   6.641   2.046   7.087  0.8528  1.1935  2.8751
  189SLPC   H5S21821   6.504   1.931   7.108  1.4725  0.2615 -1.7259
  189SLPC   C2621822   6.524   2.056   7.270 -0.0712  1.3868  0.2881
  189SLPC   H6R21823   6.527   2.165   7.289  1.3130  1.5173 -0.6129
  189SLPC   H6S21824   6.613   2.007   7.315 -1.4566  0.0836  1.7052
  189SLPC   C2721825   6.389   2.006   7.336  0.1298 -0.7647  0.4434
  189SLPC   H7R21826   6.405   1.909   7.387  0.0484  0.0292  2.0026
  189SLPC   H7S21827   6.311   1.982   7.261  0.1209  2.2189 -0.5494
  189SLPC   C2821828   6.317   2.111   7.425  0.2290  0.1413  1.6068
  189SLPC   H8R21829   6.216   2.068   7.442  0.0594 -0.4598 -0.7277
  189SLPC   H8S21830   6.302   2.206   7.369  0.8285 -0.7811 -0.1657
  189SLPC   C2921831   6.390   2.130   7.557 -0.4807 -0.2276 -0.0662
  189SLPC   H9R21832   6.498   2.105   7.555 -0.5039 -0.3395  0.0638
  189SLPC  C21021833   6.336   2.162   7.676 -0.2803  0.3868  0.6182
  189SLPC  H10R21834   6.399   2.168   7.765  2.7926  0.5414 -1.4854
  189SLPC  C21121835   6.191   2.209   7.702  0.4932 -0.7112  0.1673
  189SLPC  H11R21836   6.129   2.120   7.678 -3.0422  1.7821 -0.3894
  189SLPC  H11S21837   6.171   2.289   7.628 -0.7791 -0.6270  0.5769
  189SLPC  C21221838   6.162   2.269   7.837  0.9131 -0.1718  0.2293
  189SLPC  H12R21839   6.117   2.369   7.831  0.9623 -0.1819 -0.3932
  189SLPC  C21321840   6.184   2.205   7.956  0.2144 -0.1704 -0.0932
  189SLPC  H13R21841   6.166   2.267   8.045  0.7816 -1.0836  0.6720
  189SLPC  C21421842   6.232   2.063   7.976  0.7209 -0.2728 -0.7828
  189SLPC  H14R21843   6.327   2.038   7.924  2.2053  0.4558  1.5047
  189SLPC  H14S21844   6.148   2.011   7.926 -2.6214  3.6402  0.4923
  189SLPC  C21521845   6.245   2.009   8.120  0.0709 -0.0462  0.3723
  189SLPC  H15R21846   6.144   1.977   8.152  0.9737 -1.8905  1.4920
  189SLPC  H15S21847   6.277   2.103   8.170  0.4834 -0.6065  1.1742
  189SLPC  C21621848   6.340   1.884   8.118  0.5626  0.3214 -0.0097
  189SLPC  H16R21849   6.424   1.899   8.047  1.1635  0.1191  0.6555
  189SLPC  H16S21850   6.283   1.797   8.078  0.3984  0.1428  0.6027
  189SLPC  C21721851   6.413   1.863   8.252  0.3412  0.5010  0.6812
  189SLPC  H17R21852   6.331   1.856   8.326 -1.4936 -1.5718 -1.4553
  189SLPC  H17S21853   6.484   1.948   8.267 -0.8540  1.3079  1.9188
  189SLPC  C21821854   6.505   1.736   8.273  0.0554  0.0140  0.5637
  189SLPC  H18R21855   6.462   1.645   8.225 -0.0866  0.3354  0.0827
  189SLPC  H18S21856   6.510   1.718   8.383  2.1349 -0.2766  0.4450
  189SLPC  H18T21857   6.610   1.753   8.242 -0.4403 -1.5578 -2.0546
  189SLPC   C3321858   6.438   2.676   7.332  0.3858 -0.2215  0.3716
  189SLPC   H3X21859   6.491   2.771   7.353 -1.1829  0.5719  0.8321
  189SLPC   H3Y21860   6.497   2.581   7.332  0.2725 -0.2913  0.2126
  189SLPC   C3421861   6.334   2.657   7.439  0.5464  0.6535  0.8543
  189SLPC   H4X21862   6.264   2.575   7.415 -1.2067  2.7272 -1.3911
  189SLPC   H4Y21863   6.271   2.747   7.451 -1.0293 -0.1064 -1.3517
  189SLPC   C3521864   6.393   2.631   7.581  0.2686  0.2597 -0.5703
  189SLPC   H5X21865   6.450   2.716   7.625  1.0033  0.0222 -1.0389
  189SLPC   H5Y21866   6.465   2.546   7.583  0.0211  0.0670  0.9309
  189SLPC   C3621867   6.289   2.591   7.687  0.5251 -0.2688  0.6204
  189SLPC   H6X21868   6.259   2.488   7.658  1.7992  0.4862 -3.5557
  189SLPC   H6Y21869   6.201   2.658   7.701  0.0280 -0.4928 -1.3518
  189SLPC   C3721870   6.352   2.572   7.831 -0.4837 -0.0332 -0.1466
  189SLPC   H7X21871   6.459   2.540   7.833 -1.0909 -2.2207 -1.3648
  189SLPC   H7Y21872   6.286   2.515   7.900 -2.0652  1.4596 -0.4231
  189SLPC   C3821873   6.355   2.704   7.917  0.3422 -0.0478  0.2836
  189SLPC   H8X21874   6.407   2.781   7.856 -0.7880 -0.0517 -0.7102
  189SLPC   H8Y21875   6.421   2.694   8.006  1.6017  2.4718 -0.3397
  189SLPC   C3921876   6.220   2.755   7.964 -0.3837  0.6416 -0.1839
  189SLPC   H9X21877   6.179   2.682   8.037 -0.3640  0.0412 -0.7597
  189SLPC   H9Y21878   6.152   2.757   7.876 -0.5179 -2.2850 -0.2209
  189SLPC  C31021879   6.239   2.886   8.042 -0.0149  0.1127  0.6577
  189SLPC  H10X21880   6.265   2.970   7.974 -2.7958  0.5070  0.0356
  189SLPC  H10Y21881   6.329   2.879   8.108  0.2892  2.6021  0.5568
  189SLPC  C31121882   6.106   2.937   8.103 -0.4435 -0.4939  0.1877
  189SLPC  H11X21883   6.045   2.854   8.145 -0.1320 -0.7926  0.0556
  189SLPC  H11Y21884   6.046   2.980   8.021  1.3300  0.4580 -0.6470
  189SLPC  C31221885   6.141   3.041   8.214  0.4429  0.0880 -0.4768
  189SLPC  H12X21886   6.200   3.118   8.160  2.6540 -0.5096  1.0448
  189SLPC  H12Y21887   6.212   2.992   8.284  0.2286 -0.2753 -0.5082
  189SLPC  C31321888   6.013   3.093   8.275  0.3902 -0.4278  0.3556
  189SLPC  H13X21889   5.940   3.010   8.270 -0.3716  0.1074  2.2922
  189SLPC  H13Y21890   5.971   3.185   8.228 -0.5993 -0.9725  0.1713
  189SLPC  C31421891   6.031   3.131   8.427 -0.5828 -0.1334  0.6412
  189SLPC  H14X21892   6.130   3.180   8.438 -1.5660  1.9115  0.6026
  189SLPC  H14Y21893   6.047   3.045   8.494 -0.7549 -2.1036 -1.7729
  189SLPC  C31521894   5.932   3.238   8.481 -1.0036  0.5122  0.0030
  189SLPC  H15X21895   5.830   3.206   8.451 -1.2705 -0.9202  2.2932
  189SLPC  H15Y21896   5.950   3.338   8.436  0.5030 -0.1010 -0.7900
  189SLPC  C31621897   5.938   3.261   8.636  0.3448 -0.6993  0.0895
  189SLPC  H16X21898   6.043   3.283   8.664  0.9176 -1.3481 -1.4514
  189SLPC  H16Y21899   5.901   3.175   8.697 -0.7122  0.3724  0.9641
  189SLPC  C31721900   5.854   3.384   8.683 -0.9197  0.5579 -0.1518
  189SLPC  H17X21901   5.900   3.461   8.619 -0.2474  1.0857  0.9367
  189SLPC  H17Y21902   5.872   3.398   8.792  0.7968  0.0479 -0.3488
  189SLPC  C31821903   5.702   3.369   8.656  0.2079 -0.5464  0.1911
  189SLPC  H18X21904   5.653   3.461   8.695  1.5880  0.8327 -1.2501
  189SLPC  H18Y21905   5.661   3.279   8.706 -0.2127  0.3285  1.4612
  189SLPC  H18Z21906   5.688   3.357   8.547  0.6917 -0.1574  0.0841
  190SLPC     N21907   0.265   1.175   6.350  0.4171 -0.9011 -0.0987
  190SLPC   C1321908   0.287   1.189   6.209 -0.0625  0.3354  0.1696
  190SLPC  H13A21909   0.280   1.294   6.184  0.5759 -0.1377 -2.0148
  190SLPC  H13B21910   0.385   1.153   6.182 -1.0495 -1.0243 -1.6915
  190SLPC  H13C21911   0.213   1.151   6.140  1.1127 -0.8759 -0.4396
  190SLPC   C1421912   0.143   1.248   6.391 -0.2078 -0.3137 -0.1709
  190SLPC  H14A21913   0.144   1.233   6.498 -0.8441 -1.2379 -0.2866
  190SLPC  H14B21914   0.150   1.353   6.370 -1.4866  0.1522  1.6209
  190SLPC  H14C21915   0.048   1.212   6.355 -1.3497  2.0430  0.4095
  190SLPC   C1521916   0.380   1.240   6.421 -0.1081 -0.6168 -0.2721
  190SLPC  H15A21917   0.473   1.184   6.416  0.4582  0.3099 -0.3697
  190SLPC  H15B21918   0.398   1.341   6.389  0.2150 -0.0569  1.5866
  190SLPC  H15C21919   0.366   1.246   6.528  2.0753  0.2862  0.0009
  190SLPC   C1221920   0.257   1.031   6.390  1.1178 -0.5908  0.3455
  190SLPC  H12A21921   0.270   1.027   6.497  1.1953  1.2166  0.4076
  190SLPC  H12B21922   0.337   0.980   6.338  1.4623 -1.2080  1.4620
  190SLPC   C1121923   0.122   0.965   6.357  0.4029  0.4678 -0.1916
  190SLPC  H11A21924   0.034   1.023   6.391  1.0488 -0.1435  2.6903
  190SLPC  H11B21925   0.107   0.867   6.408  0.7278  1.3854  1.7131
  190SLPC     P21926  -0.013   0.911   6.141  0.2547 -0.1989 -0.1781
  190SLPC   O1321927  -0.096   1.033   6.112  0.0092  0.6889 -0.8338
  190SLPC   O1421928   0.021   0.824   6.031 -0.2581  0.0478  0.5623
  190SLPC   O1221929   0.127   0.953   6.216  0.0888 -0.1403 -0.4447
  190SLPC   O1121930  -0.087   0.818   6.244  0.1591 -0.1573 -0.4626
  190SLPC    C121931  -0.233   0.814   6.257  0.3726  0.2920 -0.0410
  190SLPC    HA21932  -0.274   0.868   6.169  4.0341  0.8889 -1.4914
  190SLPC    HB21933  -0.267   0.709   6.260 -0.3178  0.4285 -2.2317
  190SLPC    C221934  -0.291   0.903   6.377  0.1143  0.0071  0.5020
  190SLPC    HS21935  -0.224   0.991   6.388  0.9082 -0.6970  1.4542
  190SLPC   O2121936  -0.300   0.826   6.495  0.1936  0.0455  0.0176
  190SLPC   C2121937  -0.223   0.867   6.598  0.4340  0.3386 -0.2220
  190SLPC   O2221938  -0.137   0.955   6.589  0.1719  0.6645  0.7004
  190SLPC   C2221939  -0.271   0.788   6.719  0.2093  0.6565  0.2016
  190SLPC   H2R21940  -0.380   0.768   6.704  0.4906 -2.0056  1.4594
  190SLPC   H2S21941  -0.217   0.692   6.708  2.0209  1.6591  0.1810
  190SLPC    C321942  -0.435   0.951   6.342 -0.4819 -0.1635  0.5582
  190SLPC    HX21943  -0.502   0.863   6.351 -3.0968  1.5763 -1.1993
  190SLPC    HY21944  -0.448   0.983   6.237  1.2981  1.4052  0.7904
  190SLPC   O3121945  -0.485   1.052   6.426  0.6284  0.4763 -0.5023
  190SLPC   C3121946  -0.448   1.171   6.394  0.1176  0.3120 -0.9322
  190SLPC   O3221947  -0.385   1.197   6.294 -0.1041 -0.2404  0.5613
  190SLPC   C3221948  -0.500   1.276   6.502 -0.4114  0.0653 -0.0196
  190SLPC   H2X21949  -0.543   1.356   6.437 -1.5215 -0.7846 -0.3466
  190SLPC   H2Y21950  -0.406   1.305   6.553  1.7579 -0.1743 -3.6388
  190SLPC   C2321951  -0.234   0.854   6.849 -0.2922 -0.2055  0.3785
  190SLPC   H3R21952  -0.291   0.800   6.928  0.5342 -1.2586  0.2637
  190SLPC   H3S21953  -0.256   0.962   6.834 -0.0890 -0.4622 -1.8724
  190SLPC   C2421954  -0.087   0.837   6.882  0.1670 -0.4804 -0.6480
  190SLPC   H4R21955  -0.015   0.855   6.799  1.8566 -0.2699  0.8419
  190SLPC   H4S21956  -0.061   0.731   6.902  4.1031  0.5796  0.2100
  190SLPC   C2521957  -0.044   0.926   6.994 -0.2575 -0.8339 -0.8890
  190SLPC   H5R21958  -0.031   1.033   6.966 -1.7401 -0.8942 -1.8899
  190SLPC   H5S21959   0.058   0.899   7.026 -1.0975 -0.0059  2.7094
  190SLPC   C2621960  -0.134   0.927   7.122 -0.3582 -0.1204 -0.1686
  190SLPC   H6R21961  -0.137   0.822   7.158  1.6497 -1.2082 -3.0483
  190SLPC   H6S21962  -0.235   0.964   7.094 -0.5027 -1.6550 -1.7507
  190SLPC   C2721963  -0.069   1.014   7.232  0.9450 -0.6038 -0.1056
  190SLPC   H7R21964  -0.060   1.119   7.195 -0.2385  0.0982  1.5173
  190SLPC   H7S21965   0.035   0.979   7.248  1.5458 -0.6898 -3.7573
  190SLPC   C2821966  -0.155   1.014   7.365  0.7022  0.6152  0.1127
  190SLPC   H8R21967  -0.130   0.920   7.420  1.4582  1.5723  1.4479
  190SLPC   H8S21968  -0.262   1.029   7.342  0.6300 -0.6153 -0.4239
  190SLPC   C2921969  -0.123   1.130   7.450 -0.2966 -0.1493  0.4449
  190SLPC   H9R21970  -0.141   1.227   7.400  0.6328 -0.4398 -0.4716
  190SLPC  C21021971  -0.075   1.124   7.575 -1.0065 -0.4620  0.7024
  190SLPC  H10R21972  -0.047   1.220   7.623  2.0319 -0.8752 -0.1028
  190SLPC  C21121973  -0.033   1.006   7.652  0.2010  1.0476  0.6093
  190SLPC  H11R21974   0.026   1.034   7.741 -2.2768 -1.6416  3.1773
  190SLPC  H11S21975   0.035   0.941   7.593 -0.8267  0.5558 -0.0461
  190SLPC  C21221976  -0.143   0.916   7.706  0.2096 -0.2260  0.4237
  190SLPC  H12R21977  -0.206   0.875   7.626  1.5624 -1.9939  0.2524
  190SLPC  C21321978  -0.178   0.899   7.840  0.3548  0.0726 -0.0344
  190SLPC  H13R21979  -0.275   0.847   7.848 -0.7907  2.2469  0.7101
  190SLPC  C21421980  -0.119   0.961   7.961  0.1492 -0.6874 -0.3526
  190SLPC  H14R21981  -0.203   1.009   8.016 -1.0053 -3.2772  0.2023
  190SLPC  H14S21982  -0.045   1.037   7.929 -1.6106  1.7650  1.1674
  190SLPC  C21521983  -0.049   0.860   8.041  0.4387  0.0371 -0.5659
  190SLPC  H15R21984   0.047   0.839   7.989 -1.0151 -2.9188 -2.1567
  190SLPC  H15S21985  -0.107   0.766   8.055  0.4652  0.1709  0.5565
  190SLPC  C21621986  -0.017   0.912   8.188  0.2098  0.4646  0.5327
  190SLPC  H16R21987  -0.106   0.918   8.253  1.6491 -0.5178  2.6712
  190SLPC  H16S21988   0.026   1.010   8.160 -1.4566  1.4055  1.2078
  190SLPC  C21721989   0.083   0.823   8.271  0.4381 -0.9370  0.4130
  190SLPC  H17R21990   0.173   0.800   8.209  0.6599  2.0555 -0.4726
  190SLPC  H17S21991   0.030   0.727   8.292  1.6462 -1.8548 -0.6261
  190SLPC  C21821992   0.115   0.876   8.407 -0.2326  0.6257 -0.4387
  190SLPC  H18R21993   0.034   0.857   8.481 -1.1843 -0.2510 -1.6936
  190SLPC  H18S21994   0.143   0.983   8.409  0.9043  0.3269  0.3276
  190SLPC  H18T21995   0.204   0.818   8.442 -1.1893 -0.0194  1.0000
  190SLPC   C3321996  -0.620   1.217   6.578 -0.2372 -0.5284 -0.3626
  190SLPC   H3X21997  -0.692   1.165   6.512  0.5552 -1.1087 -0.7864
  190SLPC   H3Y21998  -0.666   1.302   6.633  1.4833 -1.9916  3.5769
  190SLPC   C3421999  -0.581   1.124   6.687  0.1442  0.5086 -0.6466
  190SLPC   H4X22000  -0.479   1.083   6.669 -0.0388  0.2757 -1.1732
  190SLPC   H4Y22001  -0.656   1.043   6.697  0.3613  0.6444  2.5663
  190SLPC   C3522002  -0.584   1.202   6.820 -0.5388 -0.3850  0.0229
  190SLPC   H5X22003  -0.690   1.221   6.848  0.0664 -0.4170  2.5020
  190SLPC   H5Y22004  -0.529   1.298   6.810 -1.1296 -0.0693 -0.1758
  190SLPC   C3622005  -0.518   1.128   6.947 -0.4238  0.0394  0.6237
  190SLPC   H6X22006  -0.409   1.112   6.933 -0.8070 -1.2162 -1.1307
  190SLPC   H6Y22007  -0.568   1.029   6.954  0.3916 -0.2929  1.9234
  190SLPC   C3722008  -0.565   1.191   7.079 -1.2601  0.2020  0.5260
  190SLPC   H7X22009  -0.673   1.187   7.103 -0.7587  4.1133  3.9416
  190SLPC   H7Y22010  -0.540   1.299   7.075  1.5904 -0.4318  0.2833
  190SLPC   C3822011  -0.497   1.129   7.207  0.1716  0.2257 -0.4631
  190SLPC   H8X22012  -0.388   1.149   7.208 -0.0224  1.2893 -0.0709
  190SLPC   H8Y22013  -0.512   1.019   7.203  2.3264 -0.0740 -0.5437
  190SLPC   C3922014  -0.564   1.179   7.337 -0.7620  0.1589  0.8848
  190SLPC   H9X22015  -0.664   1.138   7.365 -0.3238 -1.1913  0.4788
  190SLPC   H9Y22016  -0.595   1.285   7.324  2.1771  0.9402 -0.1662
  190SLPC  C31022017  -0.460   1.171   7.448 -0.4855  0.6228  0.1800
  190SLPC  H10X22018  -0.381   1.235   7.403 -0.7994  1.0582  0.2561
  190SLPC  H10Y22019  -0.427   1.065   7.449 -0.2856  0.6888  0.4022
  190SLPC  C31122020  -0.512   1.215   7.580  0.3189 -0.6294 -0.4456
  190SLPC  H11X22021  -0.602   1.151   7.591 -0.6892  1.1022  1.5675
  190SLPC  H11Y22022  -0.536   1.323   7.573 -0.0908 -0.7363 -0.6886
  190SLPC  C31222023  -0.421   1.183   7.704  0.1216 -0.2668 -0.5259
  190SLPC  H12X22024  -0.316   1.196   7.671  0.8399 -1.2347  1.2742
  190SLPC  H12Y22025  -0.443   1.077   7.728  0.2558 -0.1077  0.3537
  190SLPC  C31322026  -0.453   1.268   7.818 -0.4871 -0.3193 -0.6778
  190SLPC  H13X22027  -0.554   1.239   7.854 -0.3960 -0.2282 -0.3402
  190SLPC  H13Y22028  -0.441   1.375   7.791 -0.2834  0.3530  1.9398
  190SLPC  C31422029  -0.360   1.247   7.940  0.2148 -0.0378 -0.6554
  190SLPC  H14X22030  -0.257   1.252   7.897  0.6449 -1.7008  0.1107
  190SLPC  H14Y22031  -0.367   1.151   7.995 -2.4032  1.4020  1.6604
  190SLPC  C31522032  -0.386   1.352   8.046 -0.1309  0.5676  0.6248
  190SLPC  H15X22033  -0.496   1.360   8.066 -0.5407 -0.3015 -1.1661
  190SLPC  H15Y22034  -0.352   1.447   8.000  1.6478 -0.2369  0.2586
  190SLPC  C31622035  -0.313   1.323   8.175 -0.0033  0.2999 -0.6527
  190SLPC  H16X22036  -0.346   1.223   8.211 -4.0051  1.7794  0.0913
  190SLPC  H16Y22037  -0.336   1.398   8.254 -0.1058  1.1067 -1.4445
  190SLPC  C31722038  -0.158   1.311   8.159 -0.0402 -0.1200 -0.2946
  190SLPC  H17X22039  -0.139   1.220   8.098 -0.9042 -0.9117  0.6090
  190SLPC  H17Y22040  -0.101   1.306   8.254  2.5623 -0.3649 -1.8352
  190SLPC  C31822041  -0.090   1.429   8.086  0.2726 -0.0142 -0.0222
  190SLPC  H18X22042   0.021   1.424   8.084  0.4403  1.8854  2.3788
  190SLPC  H18Y22043  -0.113   1.524   8.138 -1.5230  2.0769 -4.3641
  190SLPC  H18Z22044  -0.112   1.436   7.978  1.4027  0.4823 -0.2186
  191SLPC     N22045   5.501   3.511   6.132 -0.1311  0.3600  0.7593
  191SLPC   C1322046   5.567   3.406   6.081  0.0632  0.2869 -0.0869
  191SLPC  H13A22047   5.574   3.323   6.149  1.6617 -0.1042 -0.7212
  191SLPC  H13B22048   5.516   3.373   5.991  2.2371 -1.0055 -0.8799
  191SLPC  H13C22049   5.670   3.422   6.055  0.4163 -2.5412 -0.6093
  191SLPC   C1422050   5.368   3.463   6.181 -0.1939 -0.1134 -0.7947
  191SLPC  H14A22051   5.317   3.553   6.213  1.3816  0.9892 -1.3255
  191SLPC  H14B22052   5.312   3.415   6.102  1.0614 -1.1110 -1.0938
  191SLPC  H14C22053   5.379   3.393   6.262 -1.3847 -0.2238 -0.7224
  191SLPC   C1522054   5.492   3.619   6.041  0.3123  1.1215  0.1087
  191SLPC  H15A22055   5.454   3.711   6.084  0.1363  1.5469 -0.9379
  191SLPC  H15B22056   5.591   3.646   6.009  0.3507 -1.5902 -2.2413
  191SLPC  H15C22057   5.426   3.592   5.960  0.6858  1.5888 -0.3586
  191SLPC   C1222058   5.582   3.564   6.244 -0.0706 -0.3819 -0.3190
  191SLPC  H12A22059   5.573   3.482   6.313  0.8945  0.0539  0.3268
  191SLPC  H12B22060   5.543   3.656   6.286 -0.5889 -0.8761  0.3044
  191SLPC   C1122061   5.733   3.592   6.223  0.2270  0.0767 -0.5080
  191SLPC  H11A22062   5.775   3.495   6.189  1.4061  0.4662 -0.2199
  191SLPC  H11B22063   5.770   3.616   6.325 -1.6610  1.6112 -0.1443
  191SLPC     P22064   5.724   3.855   6.171 -0.0166  0.0823 -0.1496
  191SLPC   O1322065   5.787   3.937   6.071  0.1128 -0.3580 -0.3810
  191SLPC   O1422066   5.574   3.869   6.199  0.3786  0.4208  0.1283
  191SLPC   O1222067   5.750   3.702   6.131 -0.1629  0.6613  0.1770
  191SLPC   O1122068   5.806   3.870   6.307  0.0636 -0.1555 -0.1506
  191SLPC    C122069   5.943   3.910   6.294 -0.7170 -0.0418  0.2625
  191SLPC    HA22070   5.971   3.973   6.207 -1.3793 -1.7993 -1.2574
  191SLPC    HB22071   5.970   3.982   6.374 -1.1438  0.5019 -0.0744
  191SLPC    C222072   6.045   3.789   6.306  0.4947 -0.1620  0.4871
  191SLPC    HS22073   6.024   3.731   6.214 -0.1633  1.7390 -0.5903
  191SLPC   O2122074   6.000   3.716   6.422 -0.0087 -0.6260 -0.1995
  191SLPC   C2122075   6.027   3.589   6.434  0.1965  0.4132  1.2263
  191SLPC   O2222076   6.080   3.527   6.341  0.2023  0.0708  0.3040
  191SLPC   C2222077   5.976   3.532   6.559  0.6071 -0.0222  0.2411
  191SLPC   H2R22078   5.867   3.549   6.568  0.7243  0.7644  0.2457
  191SLPC   H2S22079   6.010   3.427   6.551  1.0512 -0.0683  2.3979
  191SLPC    C322080   6.197   3.836   6.307 -0.1256  0.1044  0.7255
  191SLPC    HX22081   6.209   3.903   6.220  0.6408 -0.4178  0.4179
  191SLPC    HY22082   6.267   3.751   6.289 -1.6458 -1.0662  0.2828
  191SLPC   O3122083   6.225   3.913   6.427  0.0606  0.1440  0.1796
  191SLPC   C3122084   6.282   3.845   6.521  0.4860  0.1633 -0.4484
  191SLPC   O3222085   6.293   3.722   6.529 -0.6415  0.6720 -0.1100
  191SLPC   C3222086   6.335   3.939   6.631 -0.1393  0.7390 -0.2619
  191SLPC   H2X22087   6.294   4.042   6.625 -2.4128 -0.3190 -4.7710
  191SLPC   H2Y22088   6.446   3.947   6.635 -0.1298  0.5376 -0.1147
  191SLPC   C2322089   6.017   3.609   6.686  1.0490 -0.2356  0.3965
  191SLPC   H3R22090   5.999   3.719   6.687  1.0222 -0.2171 -1.3106
  191SLPC   H3S22091   6.126   3.591   6.696  1.6936  1.9157 -2.2850
  191SLPC   C2422092   5.958   3.538   6.812 -0.0345  0.3011 -0.2272
  191SLPC   H4R22093   5.985   3.431   6.796  2.2149  0.8035 -0.0336
  191SLPC   H4S22094   5.848   3.549   6.819  0.1037  0.6592  1.5383
  191SLPC   C2522095   6.014   3.576   6.950 -0.0612  0.1818 -0.1086
  191SLPC   H5R22096   6.006   3.683   6.980 -0.3126  0.4881 -1.2231
  191SLPC   H5S22097   6.119   3.543   6.942 -0.2608 -0.2405 -1.0741
  191SLPC   C2622098   5.943   3.489   7.059 -0.1169 -0.6610  0.6541
  191SLPC   H6R22099   5.924   3.391   7.010 -1.3211 -0.7279  1.2562
  191SLPC   H6S22100   5.845   3.539   7.073 -0.5856 -1.5963  0.7758
  191SLPC   C2722101   6.020   3.465   7.196 -1.1844  0.2343 -0.8156
  191SLPC   H7R22102   6.111   3.405   7.175 -1.1048 -0.2897  1.0124
  191SLPC   H7S22103   5.965   3.403   7.270  2.4385 -0.4290  1.4233
  191SLPC   C2822104   6.075   3.597   7.255 -0.1561  0.0842 -0.6146
  191SLPC   H8R22105   5.983   3.659   7.258  0.1645  0.4844  2.0935
  191SLPC   H8S22106   6.147   3.648   7.186  1.8848 -0.8032  0.8191
  191SLPC   C2922107   6.142   3.595   7.392 -0.2372  0.2712  0.7739
  191SLPC   H9R22108   6.079   3.625   7.477 -0.1679  2.3397  0.1211
  191SLPC  C21022109   6.268   3.560   7.420 -0.1813 -0.1544 -0.0847
  191SLPC  H10R22110   6.302   3.577   7.523 -1.5059 -0.4519  0.4118
  191SLPC  C21122111   6.369   3.520   7.317 -0.5629  0.2293 -0.0534
  191SLPC  H11R22112   6.315   3.501   7.222 -0.9011 -0.8886  0.3615
  191SLPC  H11S22113   6.390   3.414   7.341 -0.8566  0.0151 -0.7311
  191SLPC  C21222114   6.500   3.586   7.318 -0.1113 -0.7718  0.8220
  191SLPC  H12R22115   6.514   3.651   7.230 -2.2431  1.2809  1.9629
  191SLPC  C21322116   6.595   3.578   7.412 -0.0067  0.0750 -0.9007
  191SLPC  H13R22117   6.685   3.640   7.410  0.0421 -0.0029 -1.2415
  191SLPC  C21422118   6.590   3.493   7.534  0.9714  0.0900 -0.5368
  191SLPC  H14R22119   6.690   3.450   7.556 -0.3102 -2.8366 -0.1486
  191SLPC  H14S22120   6.527   3.402   7.523  1.2097 -0.2276  0.6702
  191SLPC  C21522121   6.548   3.567   7.666  0.2765  0.1708  0.8306
  191SLPC  H15R22122   6.448   3.613   7.651  0.4359  0.4244  0.5559
  191SLPC  H15S22123   6.624   3.643   7.691  2.1744 -0.9588 -1.2821
  191SLPC  C21622124   6.543   3.471   7.783 -0.1960  1.0519 -1.2273
  191SLPC  H16R22125   6.640   3.420   7.802 -0.5877  0.8801  0.3876
  191SLPC  H16S22126   6.468   3.390   7.768  0.5298  0.2067 -0.3532
  191SLPC  C21722127   6.494   3.542   7.915 -0.6262  0.2747 -0.5967
  191SLPC  H17R22128   6.404   3.601   7.887 -0.6280  0.0121 -1.1543
  191SLPC  H17S22129   6.571   3.612   7.954 -0.1990  1.0591 -2.7307
  191SLPC  C21822130   6.436   3.441   8.012 -0.4851  0.3485 -0.2218
  191SLPC  H18R22131   6.370   3.369   7.959 -0.6772 -0.6995  1.4123
  191SLPC  H18S22132   6.387   3.497   8.094  1.2250 -0.4092  1.3601
  191SLPC  H18T22133   6.519   3.381   8.054 -1.9877 -1.1003  0.7312
  191SLPC   C3322134   6.292   3.883   6.770 -0.2445  0.3303  0.2286
  191SLPC   H3X22135   6.356   3.797   6.798  0.0000  0.0247 -1.2371
  191SLPC   H3Y22136   6.184   3.861   6.779  0.3235 -2.1102  1.5115
  191SLPC   C3422137   6.308   3.990   6.887  0.2805 -0.8466  0.1877
  191SLPC   H4X22138   6.225   4.064   6.876  1.4629  0.6107  0.8988
  191SLPC   H4Y22139   6.404   4.044   6.873 -0.6613  0.4543 -1.4852
  191SLPC   C3522140   6.288   3.916   7.022  0.3688 -0.1955 -0.2492
  191SLPC   H5X22141   6.379   3.855   7.037  0.2203 -0.4941 -0.5549
  191SLPC   H5Y22142   6.190   3.863   7.014  0.7406 -1.0724  0.8809
  191SLPC   C3622143   6.258   4.018   7.141 -0.1375  0.5511 -0.5124
  191SLPC   H6X22144   6.166   4.074   7.117  0.2943  1.0484 -1.0242
  191SLPC   H6Y22145   6.344   4.088   7.133 -0.8705  1.4061 -0.9366
  191SLPC   C3722146   6.265   3.944   7.282 -0.5608 -0.5299  0.5767
  191SLPC   H7X22147   6.362   3.891   7.292 -0.0169  0.1215 -1.0956
  191SLPC   H7Y22148   6.180   3.873   7.294  0.3779 -1.4431  2.0380
  191SLPC   C3822149   6.250   4.053   7.383 -0.1501 -0.2190  0.2774
  191SLPC   H8X22150   6.170   4.119   7.342 -1.7062 -2.3648 -0.2171
  191SLPC   H8Y22151   6.348   4.105   7.387 -1.0662  1.9095 -2.9292
  191SLPC   C3922152   6.205   4.000   7.527 -0.3891 -0.4248  0.2647
  191SLPC   H9X22153   6.107   3.948   7.520 -1.4337  1.8854 -4.0144
  191SLPC   H9Y22154   6.182   4.094   7.581 -0.4190 -0.1330 -0.2562
  191SLPC  C31022155   6.304   3.903   7.592  0.5447 -0.8783 -0.1400
  191SLPC  H10X22156   6.409   3.923   7.562 -0.4927  1.0531 -2.7594
  191SLPC  H10Y22157   6.280   3.806   7.542 -2.6708  0.3079 -1.0478
  191SLPC  C31122158   6.270   3.868   7.743 -0.9615 -0.1491  0.2229
  191SLPC  H11X22159   6.300   3.762   7.759  4.9700  1.4445  1.0734
  191SLPC  H11Y22160   6.159   3.861   7.744 -1.0009  0.2366 -0.8955
  191SLPC  C31222161   6.339   3.956   7.848  0.6190 -0.6737 -0.7726
  191SLPC  H12X22162   6.293   4.056   7.833  1.4558 -0.0149  0.9587
  191SLPC  H12Y22163   6.442   3.963   7.807  1.5671  1.3389  1.7980
  191SLPC  C31322164   6.338   3.902   7.991  0.0399 -0.0200  0.8503
  191SLPC  H13X22165   6.401   3.975   8.046  0.2635  0.8892 -0.5757
  191SLPC  H13Y22166   6.393   3.807   8.005  3.2426  1.7424  0.6301
  191SLPC  C31422167   6.202   3.888   8.055  0.5831 -1.0832 -0.6716
  191SLPC  H14X22168   6.120   3.850   7.989 -0.6997  1.0790 -0.3429
  191SLPC  H14Y22169   6.155   3.986   8.076 -0.7256 -2.0185  0.9015
  191SLPC  C31522170   6.213   3.820   8.195  0.3098 -0.4306  0.8065
  191SLPC  H15X22171   6.309   3.858   8.236  1.3300 -1.2781 -0.7308
  191SLPC  H15Y22172   6.218   3.710   8.180  0.4112 -0.3584  0.2867
  191SLPC  C31622173   6.098   3.861   8.291  0.5692 -0.7677  0.5295
  191SLPC  H16X22174   5.999   3.839   8.245 -0.9098  1.0180  2.7400
  191SLPC  H16Y22175   6.099   3.972   8.304 -0.1261 -0.7186  0.1793
  191SLPC  C31722176   6.103   3.794   8.428  0.2253  0.2521  0.7766
  191SLPC  H17X22177   6.007   3.822   8.476  1.4190  3.8924  1.1510
  191SLPC  H17Y22178   6.191   3.839   8.478  1.0767 -0.2715 -0.2432
  191SLPC  C31822179   6.097   3.638   8.435 -0.0926  0.3012  0.0335
  191SLPC  H18X22180   6.193   3.597   8.395 -0.8941 -0.3397 -1.2803
  191SLPC  H18Y22181   6.001   3.606   8.390 -1.8496  3.9286  1.0382
  191SLPC  H18Z22182   6.091   3.602   8.540 -1.4206 -1.9203 -0.7734
  192SLPC     N22183   6.398   4.480   6.112 -0.0661 -0.7007  0.0468
  192SLPC   C1322184   6.372   4.590   6.011 -0.0271 -0.6335  0.0620
  192SLPC  H13A22185   6.449   4.588   5.935 -0.8436  2.1580 -0.8756
  192SLPC  H13B22186   6.278   4.575   5.961 -1.1015  2.1679  1.1527
  192SLPC  H13C22187   6.367   4.683   6.066  1.0619 -0.1519 -0.6313
  192SLPC   C1422188   6.417   4.351   6.046  0.2198 -0.0470  0.1858
  192SLPC  H14A22189   6.441   4.274   6.118  0.1986 -1.2955 -1.1138
  192SLPC  H14B22190   6.323   4.339   5.993  1.2956  1.9373 -2.2754
  192SLPC  H14C22191   6.495   4.353   5.972  0.7183  1.2949  0.7276
  192SLPC   C1522192   6.283   4.480   6.200 -0.0847  0.0737 -0.0389
  192SLPC  H15A22193   6.264   4.572   6.252 -1.3959 -0.0317 -0.3021
  192SLPC  H15B22194   6.192   4.459   6.145  1.0090 -0.6747 -1.6154
  192SLPC  H15C22195   6.287   4.398   6.270 -0.0502 -1.2336 -1.5329
  192SLPC   C1222196   6.514   4.530   6.198 -0.2477 -0.9922  0.2471
  192SLPC  H12A22197   6.495   4.635   6.215 -3.4897 -1.0703 -2.3738
  192SLPC  H12B22198   6.599   4.527   6.132  1.7035 -0.5099  2.6846
  192SLPC   C1122199   6.537   4.462   6.336  0.0298 -0.3160  0.4047
  192SLPC  H11A22200   6.521   4.353   6.325  0.4017 -0.4936  1.6250
  192SLPC  H11B22201   6.468   4.497   6.415  0.5233 -2.7034  1.9387
  192SLPC     P22202   6.729   4.605   6.458 -0.1261  0.0975  0.4674
  192SLPC   O1322203   6.876   4.615   6.456  0.0843  0.6053  0.3538
  192SLPC   O1422204   6.649   4.722   6.413  0.2469 -0.5145 -0.4857
  192SLPC   O1222205   6.676   4.485   6.371 -0.1931  0.3026 -0.4063
  192SLPC   O1122206   6.685   4.567   6.604  0.0292 -0.7241 -0.9158
  192SLPC    C122207   6.636   4.437   6.639 -0.2027  0.3532  0.1690
  192SLPC    HA22208   6.526   4.448   6.650 -0.2258 -1.3689  1.7495
  192SLPC    HB22209   6.649   4.353   6.567 -0.1170  2.2049 -2.0593
  192SLPC    C222210   6.683   4.384   6.776  0.6373 -0.4719  0.0108
  192SLPC    HS22211   6.631   4.288   6.797 -0.6056 -0.3228 -2.2439
  192SLPC   O2122212   6.635   4.479   6.880  0.1428 -0.0059 -0.0306
  192SLPC   C2122213   6.506   4.465   6.913  0.6183  0.0717  0.2755
  192SLPC   O2222214   6.428   4.381   6.869 -0.6435 -0.3554 -0.1623
  192SLPC   C2222215   6.466   4.574   7.018 -0.2495 -0.0155  0.0406
  192SLPC   H2R22216   6.552   4.640   7.042 -0.5091 -0.1759  1.4563
  192SLPC   H2S22217   6.390   4.637   6.969 -0.4204 -0.5418 -0.3865
  192SLPC    C322218   6.833   4.367   6.792 -0.2270  0.4278  0.1228
  192SLPC    HX22219   6.878   4.464   6.760  1.4652 -0.3549  0.0791
  192SLPC    HY22220   6.869   4.288   6.722  1.1874  0.3487  0.9151
  192SLPC   O3122221   6.871   4.342   6.930 -0.1603 -0.0277  0.5029
  192SLPC   C3122222   6.994   4.328   6.957  0.5376  0.0006 -0.1057
  192SLPC   O3222223   7.088   4.348   6.878  0.2210 -0.2461 -0.4527
  192SLPC   C3222224   7.009   4.281   7.099  0.5985  0.6547  0.4761
  192SLPC   H2X22225   6.976   4.175   7.105 -0.9534  1.1887  1.6318
  192SLPC   H2Y22226   6.958   4.342   7.177 -0.4218 -0.4757  0.7078
  192SLPC   C2322227   6.405   4.502   7.140  0.1884  1.1635 -0.1393
  192SLPC   H3R22228   6.333   4.423   7.108 -1.0173  1.1710  2.4197
  192SLPC   H3S22229   6.338   4.572   7.194 -0.3615 -0.1000  0.8615
  192SLPC   C2422230   6.521   4.435   7.224  0.1426  0.5476  0.3206
  192SLPC   H4R22231   6.600   4.511   7.242  1.1220 -0.9113  2.4277
  192SLPC   H4S22232   6.564   4.352   7.164 -1.7416  1.6789 -2.7150
  192SLPC   C2522233   6.467   4.387   7.351 -0.2601  0.1474 -0.0980
  192SLPC   H5R22234   6.518   4.292   7.378  0.4751  0.5204 -0.1567
  192SLPC   H5S22235   6.359   4.362   7.355 -0.0330 -1.1045 -1.2966
  192SLPC   C2622236   6.504   4.475   7.471  0.1511  0.5189 -0.7353
  192SLPC   H6R22237   6.488   4.584   7.459  1.0984  0.7983  0.4741
  192SLPC   H6S22238   6.613   4.469   7.494  0.2513 -0.1903 -1.3831
  192SLPC   C2722239   6.428   4.424   7.593 -0.7429 -0.7297 -0.4270
  192SLPC   H7R22240   6.441   4.316   7.617 -1.6344 -1.5678 -3.5570
  192SLPC   H7S22241   6.319   4.440   7.579 -0.8196  1.9920  2.6072
  192SLPC   C2822242   6.449   4.519   7.712 -0.5813  0.0622 -0.1099
  192SLPC   H8R22243   6.429   4.627   7.691  0.4931  0.2374 -0.2801
  192SLPC   H8S22244   6.557   4.518   7.739 -0.4185 -0.4765 -0.7567
  192SLPC   C2922245   6.361   4.484   7.830  0.3751  0.2219 -0.6918
  192SLPC   H9R22246   6.253   4.492   7.808 -0.2519 -0.0765  2.1135
  192SLPC  C21022247   6.394   4.467   7.960 -0.3481 -0.7711 -0.3127
  192SLPC  H10R22248   6.320   4.468   8.041 -0.2405 -1.8679 -0.2020
  192SLPC  C21122249   6.530   4.463   8.017  0.2863 -0.1053  0.5181
  192SLPC  H11R22250   6.536   4.513   8.116  0.7287 -0.5410  0.7101
  192SLPC  H11S22251   6.604   4.520   7.956  0.3752  1.0310  1.6580
  192SLPC  C21222252   6.588   4.319   8.026 -0.2686  0.2739 -0.6054
  192SLPC  H12R22253   6.546   4.236   7.967 -1.1566  0.5906 -0.4238
  192SLPC  C21322254   6.690   4.280   8.099  0.2363 -0.0583 -0.5471
  192SLPC  H13R22255   6.727   4.176   8.098  0.2540 -0.0683  0.2639
  192SLPC  C21422256   6.787   4.365   8.187  0.1160  0.2463  0.1523
  192SLPC  H14R22257   6.758   4.472   8.178  0.6797  0.3859  0.0158
  192SLPC  H14S22258   6.890   4.363   8.146 -0.4733  2.7750 -1.5705
  192SLPC  C21522259   6.788   4.327   8.343 -0.1323  0.3560  0.5341
  192SLPC  H15R22260   6.823   4.222   8.358  1.8700  1.1622  1.6514
  192SLPC  H15S22261   6.683   4.341   8.377 -0.7938  1.5071 -1.8761
  192SLPC  C21622262   6.872   4.425   8.428  0.9520  0.4995 -0.0513
  192SLPC  H16R22263   6.836   4.527   8.406 -1.7746 -0.2121  0.9598
  192SLPC  H16S22264   6.978   4.429   8.395  0.5832  0.8777 -1.2080
  192SLPC  C21722265   6.854   4.398   8.582 -0.1826 -0.6808  0.5705
  192SLPC  H17R22266   6.887   4.492   8.631 -1.2204 -0.0218  0.0243
  192SLPC  H17S22267   6.751   4.362   8.604  0.1362  0.3279  4.0550
  192SLPC  C21822268   6.935   4.274   8.638  0.3435  0.3557  0.0579
  192SLPC  H18R22269   6.888   4.257   8.737  2.0617  0.4722  0.9177
  192SLPC  H18S22270   7.043   4.300   8.641  0.0108  1.9453 -1.1955
  192SLPC  H18T22271   6.917   4.192   8.565  4.7007  0.7229 -1.5958
  192SLPC   C3322272   7.161   4.278   7.143  0.2213  0.1761 -1.0512
  192SLPC   H3X22273   7.220   4.362   7.103 -0.2567  0.5297 -1.0181
  192SLPC   H3Y22274   7.204   4.186   7.099  2.7989  0.5782  0.5432
  192SLPC   C3422275   7.188   4.283   7.292  0.6970 -0.1326 -0.2487
  192SLPC   H4X22276   7.112   4.346   7.342 -1.8493 -2.4019 -1.1600
  192SLPC   H4Y22277   7.286   4.325   7.325  1.7880 -1.2899 -1.9318
  192SLPC   C3522278   7.193   4.144   7.349 -0.8474  0.2799 -0.7114
  192SLPC   H5X22279   7.267   4.092   7.285 -1.2628  0.3525 -1.2577
  192SLPC   H5Y22280   7.096   4.090   7.338 -0.0520 -1.4584  0.4930
  192SLPC   C3622281   7.238   4.148   7.501  0.0048 -0.1477 -0.0514
  192SLPC   H6X22282   7.168   4.208   7.563  0.3781 -0.2797  0.4992
  192SLPC   H6Y22283   7.337   4.197   7.517 -0.0567 -0.5866  1.7545
  192SLPC   C3722284   7.243   4.004   7.549 -0.1964  0.5520  0.5680
  192SLPC   H7X22285   7.295   3.944   7.472  0.6338  4.4113 -2.0183
  192SLPC   H7Y22286   7.143   3.955   7.544 -0.7717  1.7110  0.5808
  192SLPC   C3822287   7.311   3.996   7.689 -0.2661  0.3113  0.5614
  192SLPC   H8X22288   7.274   4.082   7.749 -0.7020  0.6645 -0.2067
  192SLPC   H8Y22289   7.421   3.999   7.670 -0.0183  0.5205  1.9489
  192SLPC   C3922290   7.284   3.863   7.763  0.0351  0.4968 -0.0847
  192SLPC   H9X22291   7.345   3.782   7.717  2.0153  2.3006 -0.7562
  192SLPC   H9Y22292   7.178   3.836   7.745 -0.8149  2.1326  2.1639
  192SLPC  C31022293   7.344   3.869   7.902  0.3168  0.3258  0.3446
  192SLPC  H10X22294   7.294   3.946   7.964  2.3082  0.5369  1.7291
  192SLPC  H10Y22295   7.454   3.880   7.912  0.4548  0.3188 -1.0719
  192SLPC  C31122296   7.307   3.741   7.975 -0.2118 -0.1967  0.1410
  192SLPC  H11X22297   7.341   3.659   7.908  0.7859  1.4360 -1.3761
  192SLPC  H11Y22298   7.197   3.746   7.984 -0.2499 -0.1204 -0.3866
  192SLPC  C31222299   7.373   3.723   8.109  0.3167 -0.4018 -0.7287
  192SLPC  H12X22300   7.348   3.808   8.176  1.0802 -1.0452  0.3993
  192SLPC  H12Y22301   7.484   3.726   8.105  0.3435  1.8492  1.1019
  192SLPC  C31322302   7.320   3.597   8.187 -0.2302  0.3600  0.0678
  192SLPC  H13X22303   7.326   3.503   8.129  0.0486  0.9951 -0.9548
  192SLPC  H13Y22304   7.215   3.627   8.204 -0.0262 -0.2788  2.6711
  192SLPC  C31422305   7.391   3.580   8.322 -0.0821 -0.1923 -0.0259
  192SLPC  H14X22306   7.397   3.676   8.378  0.5175 -0.5070  0.4515
  192SLPC  H14Y22307   7.498   3.565   8.298 -0.3084  1.3090 -2.1522
  192SLPC  C31522308   7.355   3.465   8.414 -0.0620 -0.4882  0.4165
  192SLPC  H15X22309   7.356   3.373   8.351  0.9222 -1.4893  1.8581
  192SLPC  H15Y22310   7.251   3.476   8.451 -0.7074  1.4095 -1.8051
  192SLPC  C31622311   7.434   3.449   8.542 -0.0827 -0.0271 -0.0915
  192SLPC  H16X22312   7.430   3.544   8.600  0.9133 -1.0185  1.6295
  192SLPC  H16Y22313   7.542   3.433   8.523 -0.2928 -1.3143 -0.2158
  192SLPC  C31722314   7.388   3.339   8.634  0.2420  0.8867 -0.7902
  192SLPC  H17X22315   7.393   3.251   8.567 -3.5143 -0.0350  0.0351
  192SLPC  H17Y22316   7.282   3.364   8.656  0.6665  1.7894  0.2505
  192SLPC  C31822317   7.473   3.304   8.754 -0.0026 -1.2617 -0.2462
  192SLPC  H18X22318   7.436   3.223   8.822 -0.0900  0.3483  1.6839
  192SLPC  H18Y22319   7.499   3.398   8.808 -1.1196 -0.5867 -0.8476
  192SLPC  H18Z22320   7.566   3.255   8.720  0.5354  0.3437 -1.1184
  193SOD    SOD22321   3.962   1.845   4.233 -0.1936 -0.0746 -0.0700
  194SOD    SOD22322   0.475   5.498   5.927  0.0500 -0.2364  0.4373
  195SOD    SOD22323   6.762   2.946  15.611  0.5051 -0.2403  0.0397
  196SOD    SOD22324   5.292   4.031   3.513  0.2983  0.2816  0.1379
  197SOD    SOD22325   1.671   2.834  15.488  0.0710  0.3358  0.6164
  198SOD    SOD22326   0.228   4.092  11.029  0.1628  0.5808  0.2806
  199SOD    SOD22327   6.669   0.608   2.898 -0.0065  0.1315  0.2488
  200SOD    SOD22328   0.603   1.566  12.298 -0.1334  0.0179  0.3979
  201SOD    SOD22329   1.864   1.029   1.077  0.2811  0.1025  0.2344
  202SOD    SOD22330   0.627   5.140  15.139 -0.5305  0.2973  0.7756
  203SOD    SOD22331   1.825   0.116   1.289 -0.2761  0.3771  0.1190
  204SOD    SOD22332   4.628   4.473   4.399 -0.0359 -0.1909 -0.2821
  205SOD    SOD22333   0.850   5.693  13.251  0.4338 -0.1107  0.5020
  206SOD    SOD22334   0.568   5.764   2.757 -0.0189 -0.5335 -0.4291
  207SOD    SOD22335   1.499   1.567  17.235  0.4289  0.8829 -0.0057
  208SOD    SOD22336   1.233   4.115   5.963  0.0728 -0.3273 -0.5650
  209SOD    SOD22337   2.152   2.994   4.801  0.3013 -0.3623  0.1185
  210SOD    SOD22338   6.216   4.077  13.917 -0.2378 -0.0344  0.2455
  211SOD    SOD22339   4.326   4.308   5.074 -0.3022 -0.1636  0.3266
  212SOD    SOD22340   2.012   0.825   3.069  0.2035 -0.3266 -0.2555
  213SOD    SOD22341   3.928   6.218  11.417 -0.4408 -0.3771  0.1081
  214SOD    SOD22342   5.920   0.191   0.105  0.0851  0.2160  0.4299
  215SOD    SOD22343   6.312   2.840   3.522  0.2201  0.4028 -0.4703
  216SOD    SOD22344   3.685   2.197  11.307 -0.2548  0.3390  0.2695
  217SOD    SOD22345   3.380   4.357  11.262  0.3698 -0.3372  0.0734
  218SOD    SOD22346   5.872   4.913  10.666 -0.3791 -0.0334 -0.2211
  219SOD    SOD22347   5.273   6.205   5.042  0.7920 -0.3632 -0.0351
  220SOD    SOD22348   0.146   2.072  12.561  0.3775 -0.5611 -0.0376
  221SOD    SOD22349   4.785   2.810   0.411 -0.3240 -0.3001  0.5098
  222SOD    SOD22350   0.465   6.179  14.351  0.0795  0.2603  0.0926
  223SOD    SOD22351   5.358   3.141   5.404  0.2501 -0.4184  0.1106
  224SOD    SOD22352   5.046   3.866  14.391 -0.3296  0.4692 -0.1520
  225SOD    SOD22353   1.606   0.060   4.897  0.0963 -0.3575 -0.4431
  226SOD    SOD22354   2.567   4.312  14.058  0.0707 -0.1046  0.8308
  227SOD    SOD22355   0.680   6.048  11.462  0.1983 -0.0875  0.3435
  228SOD    SOD22356   2.948   6.702  12.372  0.3024 -0.0581 -0.0003
  229SOD    SOD22357   0.326   4.344  11.844 -0.0151 -0.2627 -0.1101
  230SOD    SOD22358   2.834   5.785   5.119 -0.0026 -0.0507  0.7633
  231SOD    SOD22359   4.835   4.714  12.460 -0.1824 -0.0290 -0.2876
  232SOD    SOD22360   3.953   0.230   3.669 -0.5171 -0.1208  0.2850
  233SOD    SOD22361   0.083   6.741   0.836  0.5047  0.0276  0.0615
  234SOD    SOD22362   2.591   5.234  14.472  0.2089  0.0118  0.0507
  235SOD    SOD22363   5.504   0.591   1.951  0.1045  0.1998  0.1012
  236SOD    SOD22364   2.786   5.660   3.610  0.2027  0.0997 -0.1986
  237SOD    SOD22365   0.983   2.034  10.590  0.0416  0.2044  0.4037
  238SOD    SOD22366   3.257   5.490   5.517  0.3878  0.0365 -0.2493
  239SOD    SOD22367   4.389   1.813   1.146 -0.0395  0.3427  0.1399
  240SOD    SOD22368   4.956   3.319  17.233 -0.1853  0.7133 -0.1534
  241SOD    SOD22369   6.162   5.310  12.024 -0.3269  0.5285 -0.6238
  242SOD    SOD22370   3.317   0.748  14.010  0.1202 -0.1589  0.0191
  243SOD    SOD22371   1.378   0.329   0.704  0.1936  0.3319 -0.3677
  244SOD    SOD22372   3.157   5.156  16.232 -0.3433  0.3713  0.1436
  245SOD    SOD22373   1.675   3.951   6.262  0.3551  0.0526  0.0958
  246SOD    SOD22374   2.190   5.096   2.630 -0.2631  0.2043  0.1681
  247SOD    SOD22375   2.380   1.527   4.963 -0.7612  0.4281 -0.1204
  248SOD    SOD22376   6.586   5.882  10.988 -0.2570  0.4718  0.0590
  249SOD    SOD22377   6.739   3.425   5.063  0.0310  0.1021 -0.1815
  250SOD    SOD22378   4.016   0.525  12.352 -0.2509  0.0356 -0.1741
  251SOD    SOD22379   5.038   4.368  11.346  0.2838 -0.2505  0.3558
  252SOD    SOD22380   6.747   4.887  16.216 -0.5149 -0.0458 -0.1615
  253SOD    SOD22381   3.677   3.702   5.977  0.2614  0.2223  0.4346
  254SOD    SOD22382   1.172   3.028   4.300  0.0017 -0.4166  0.0234
  255SOD    SOD22383   3.110   0.608  14.872  0.2109  0.1386  0.6909
  256SOD    SOD22384   2.021   2.997  11.699  0.1598  0.1035 -0.2238
  257SOD    SOD22385   2.927   6.173  14.003  0.1400  0.1771  0.5202
  258SOD    SOD22386   1.998   6.100   2.772  0.0972  0.0370 -0.3249
  259SOD    SOD22387   1.816   6.185  10.422  0.4544  0.0884 -0.8898
  260SOD    SOD22388   6.477   5.055   6.145 -0.1583  0.5922 -0.0555
  261SOD    SOD22389   4.884   2.633  15.756  0.2751 -0.0069  0.1454
  262SOD    SOD22390   6.577   2.062  11.471  0.1460  0.0148  0.2768
  263SOD    SOD22391   6.463   5.380   1.832 -0.0035  0.3542 -0.0026
  264SOD    SOD22392   1.879   1.037  15.399  0.7925 -0.1860 -0.5180
  265SOD    SOD22393   6.332   1.885  10.781 -0.5998  0.0184  0.3889
  266CLA    CLA22394   1.410   4.457  17.186 -0.1993  0.0758 -0.0886
  267CLA    CLA22395   2.328   5.936  12.875  0.0079  0.0994 -0.1779
  268CLA    CLA22396   4.736   4.039   2.167  0.0266 -0.0427 -0.4896
  269CLA    CLA22397   3.419   3.822   1.615 -0.2299  0.0997 -0.0339
  270CLA    CLA22398   3.983   4.747   3.601  0.1407  0.0684  0.0535
  271CLA    CLA22399   6.711   0.966   0.680 -0.0709  0.1344 -0.0051
  272CLA    CLA22400   2.910   0.784  14.239 -0.1702 -0.1444  0.0431
  273CLA    CLA22401   5.835   4.274  14.260 -0.2459  0.2102  0.1295
  274CLA    CLA22402   4.839   2.138  11.918  0.1089 -0.3307 -0.3241
  275CLA    CLA22403   4.588   2.805   0.577 -0.1728 -0.0590 -0.0173
  276CLA    CLA22404   5.084   6.379   4.540 -0.0066 -0.4293  0.1124
  277CLA    CLA22405   2.649   0.656   0.743  0.0063 -0.0682  0.1787
  278CLA    CLA22406   0.660   1.990   4.836 -0.0134  0.3374  0.1342
  279CLA    CLA22407   4.252   1.424   0.876 -0.0021  0.0305  0.0733
  280CLA    CLA22408   2.199   0.995   5.400  0.2854 -0.3313  0.0950
  281CLA    CLA22409   0.058   4.772   1.786 -0.1440 -0.0154  0.1770
  282CLA    CLA22410   3.738   6.433  13.423  0.2503 -0.5644 -0.3983
  283CLA    CLA22411   0.087   0.957  15.812 -0.0862 -0.2934  0.0688
  284CLA    CLA22412   1.660   1.142  13.007 -0.4407  0.3278  0.6509
  285CLA    CLA22413   1.228   2.690  16.310 -0.3721 -0.1785  0.3568
  286CLA    CLA22414   4.679   0.362  15.547 -0.3389 -0.3715 -0.0676
  287CLA    CLA22415   6.715   6.693   2.247  0.0384  0.1645  0.2306
  288CLA    CLA22416   5.031   2.814   0.527  0.4975  0.1674  0.0564
  289CLA    CLA22417   5.182   6.543  14.875  0.2892 -0.1597 -0.0040
  290CLA    CLA22418   2.115   5.614  13.627 -0.0275 -0.3506  0.2633
  291CLA    CLA22419   2.687   1.511   0.310 -0.3465 -0.2661  0.2931
  292CLA    CLA22420   5.657   1.814  11.493 -0.2505  0.0414 -0.2733
  293CLA    CLA22421   2.156   6.704   3.114 -0.1201  0.2772  0.1904
  294CLA    CLA22422   6.173   0.745  14.329  0.3915  0.1961  0.0732
  295CLA    CLA22423   6.376   2.704  16.225  0.2391 -0.0449  0.0595
  296CLA    CLA22424   6.727   0.868   3.626 -0.0480  0.3211  0.0118
  297CLA    CLA22425   0.451   2.606   1.601 -0.0982 -0.1800  0.0616
  298CLA    CLA22426   4.256   4.030  15.563 -0.0134 -0.1019 -0.4200
  299CLA    CLA22427   6.667   6.732  11.930  0.1056 -0.1140 -0.4866
  300CLA    CLA22428   1.751   0.455   4.635 -0.0584  0.0119 -0.0834
  301CLA    CLA22429   1.670   3.199  12.605 -0.3016  0.5358 -0.2827
  302CLA    CLA22430   3.239   2.808   5.151  0.2994 -0.0098  0.0796
  303CLA    CLA22431   0.507   6.652  16.893  0.0967 -0.0071  0.0305
  304CLA    CLA22432   1.265   0.256  13.330  0.0279 -0.0451 -0.2257
  305CLA    CLA22433   4.263   5.597   0.886  0.0201  0.1241  0.2051
  306CLA    CLA22434   3.617   1.048  13.782  0.0142  0.1075  0.0095
  307CLA    CLA22435   0.941   1.963  17.031  0.1923  0.0139 -0.0883
  308CLA    CLA22436   4.594   4.676  11.807  0.2651  0.0547  0.2099
  309CLA    CLA22437   0.152   0.563  11.820 -0.2307 -0.0442 -0.2663
  310CLA    CLA22438   6.452   6.073  16.272  0.2798 -0.0276 -0.3118
  311CLA    CLA22439   2.086   3.365  11.414  0.1523 -0.1105 -0.3118
  312CLA    CLA22440   1.525   4.081  15.707 -0.2972  0.2359 -0.3019
  313CLA    CLA22441   0.662   0.333   2.654  0.0757  0.1684  0.1346
  314CLA    CLA22442   4.716   2.136   2.927  0.5567 -0.0800 -0.4210
  315CLA    CLA22443   3.476   2.006   3.179  0.5547 -0.0192 -0.2947
  316CLA    CLA22444   3.029   0.408   4.145 -0.0877 -0.1209  0.1413
  317CLA    CLA22445   6.217   4.252   3.685 -0.0640  0.2883 -0.0390
  318CLA    CLA22446   3.855   4.589  14.577  0.3881  0.0806 -0.2896
  319TIP3   OH222447   3.373   5.373  11.670 -0.0379 -0.3872 -0.1112
  319TIP3    H122448   3.299   5.348  11.725 -1.0450  1.7416 -0.4402
  319TIP3    H222449   3.344   5.453  11.626  1.3098 -1.2159 -2.6053
  320TIP3   OH222450   1.655   3.769   5.559  0.2995  0.1311 -0.1426
  320TIP3    H122451   1.575   3.819   5.539 -0.7754 -2.1365 -1.7027
  320TIP3    H222452   1.711   3.784   5.483 -0.1277 -1.2129 -0.7321
  321TIP3   OH222453   6.721   0.063  17.146  0.6124  0.0316  0.1580
  321TIP3    H122454   6.702  -0.023  17.106 -0.2852 -1.0846  2.9063
  321TIP3    H222455   6.661   0.123  17.102 -0.7125 -1.2638  0.1721
  322TIP3   OH222456   0.335   2.402  11.613  0.4230 -0.0147 -0.5573
  322TIP3    H122457   0.262   2.361  11.660  0.9880  0.1397  0.4622
  322TIP3    H222458   0.358   2.478  11.666  0.6139  0.5632 -1.4538
  323TIP3   OH222459   1.755   6.007  10.566 -0.0028 -0.2734  0.2550
  323TIP3    H122460   1.696   6.058  10.621  1.1609 -0.8829  2.1501
  323TIP3    H222461   1.708   5.925  10.549  0.9840 -1.5792  3.4024
  324TIP3   OH222462   5.172   4.842  15.524  0.2104 -0.3973  0.4410
  324TIP3    H122463   5.249   4.837  15.467 -0.3295  0.3554 -0.3645
  324TIP3    H222464   5.174   4.760  15.573 -0.1821 -1.8089 -1.8099
  325TIP3   OH222465   1.706   1.669   1.870 -0.3134  0.0943  0.3368
  325TIP3    H122466   1.667   1.755   1.889 -1.1907 -0.3596  0.6453
  325TIP3    H222467   1.719   1.629   1.956 -1.1801 -0.6241  0.1451
  326TIP3   OH222468   1.427   1.354  15.546 -0.1727  0.4048  0.3764
  326TIP3    H122469   1.391   1.441  15.530  0.9611  0.8251  0.0349
  326TIP3    H222470   1.448   1.320  15.460  1.8505  0.8886  0.6458
  327TIP3   OH222471   0.829   2.468  17.207 -0.5920  0.4949 -0.4578
  327TIP3    H122472   0.921   2.441  17.208 -0.6652  0.2467 -0.4742
  327TIP3    H222473   0.832   2.562  17.190 -0.3702  0.3635 -1.1627
  328TIP3   OH222474   2.234   2.273  11.464 -0.1808  0.0446 -0.3589
  328TIP3    H122475   2.208   2.355  11.422 -0.4040 -0.7034 -1.7043
  328TIP3    H222476   2.168   2.259  11.532 -1.1274  0.1111 -1.2564
  329TIP3   OH222477   0.455   3.758  12.944  0.0272  0.0801  0.0244
  329TIP3    H122478   0.444   3.767  12.849 -0.1411 -0.9659 -0.0516
  329TIP3    H222479   0.461   3.664  12.960 -1.0993  0.1833  1.1761
  330TIP3   OH222480   3.363   5.561  16.173  0.3569  0.2580  0.0023
  330TIP3    H122481   3.431   5.569  16.240 -0.7903  1.5981  1.0342
  330TIP3    H222482   3.285   5.535  16.222 -0.0165 -0.6792 -1.0948
  331TIP3   OH222483   5.075   5.506   4.814  0.2794  0.1023 -0.4358
  331TIP3    H122484   5.008   5.487   4.749  0.4105 -1.6792 -0.0789
  331TIP3    H222485   5.123   5.582   4.779 -3.6182  3.1838  0.5898
  332TIP3   OH222486   5.570   2.860   0.167 -0.0882 -0.3185 -0.2160
  332TIP3    H122487   5.572   2.949   0.131 -0.4274 -0.0875  0.3326
  332TIP3    H222488   5.496   2.818   0.122  1.5228 -1.0900 -2.2419
  333TIP3   OH222489   2.256   1.593   0.802  0.0395 -0.1801 -0.4258
  333TIP3    H122490   2.259   1.612   0.896 -1.8281 -0.4073 -0.3058
  333TIP3    H222491   2.240   1.499   0.797  2.9893 -0.7240 -1.0152
  334TIP3   OH222492   5.388   4.260  17.007 -0.0715 -0.2000  0.9030
  334TIP3    H122493   5.455   4.198  17.033  0.3941 -0.4247 -0.7657
  334TIP3    H222494   5.310   4.207  16.992 -1.3719  0.3379  5.2218
  335TIP3   OH222495   1.004   3.432   0.026 -0.1392 -0.5875 -0.3084
  335TIP3    H122496   1.064   3.394   0.090  2.0935  2.1459 -0.6629
  335TIP3    H222497   0.939   3.479   0.078  2.3453  2.6165  0.0343
  336TIP3   OH222498   4.342   2.162   4.518  0.6686 -0.7513  0.1143
  336TIP3    H122499   4.422   2.198   4.479 -0.0107  0.4306 -0.2286
  336TIP3    H222500   4.280   2.158   4.445 -0.0040 -0.3637  0.6549
  337TIP3   OH222501   4.934   4.817  13.095 -0.1493  0.0384 -0.4701
  337TIP3    H122502   4.878   4.750  13.055 -1.2802  1.0544 -0.6198
  337TIP3    H222503   4.954   4.878  13.024  0.5401  0.0885 -0.2389
  338TIP3   OH222504   2.527   1.600   1.523  0.6475  0.9143 -0.1907
  338TIP3    H122505   2.468   1.580   1.596  0.5076  0.8594 -0.3188
  338TIP3    H222506   2.542   1.515   1.480 -0.7929  1.2332 -1.3728
  339TIP3   OH222507   0.321   5.163   0.680  1.0773  0.0051 -0.3037
  339TIP3    H122508   0.302   5.138   0.771 -0.0053  0.3118 -0.4451
  339TIP3    H222509   0.394   5.225   0.688  1.5014 -0.5556  0.2959
  340TIP3   OH222510   4.244   2.482  11.785  0.3282 -0.2255 -0.1677
  340TIP3    H122511   4.213   2.457  11.698  0.8476 -0.1452 -0.3790
  340TIP3    H222512   4.164   2.495  11.837  0.0355 -1.5875 -0.2567
  341TIP3   OH222513   3.691   4.869   6.672  0.4503 -0.4309 -0.3943
  341TIP3    H122514   3.754   4.942   6.679  0.2441 -0.2852 -0.0231
  341TIP3    H222515   3.711   4.829   6.588  0.3379  0.2732 -0.7656
  342TIP3   OH222516   1.894   3.134  14.960 -0.1877 -0.1429  0.0792
  342TIP3    H122517   1.853   3.165  15.041 -1.0902  0.4992 -0.6093
  342TIP3    H222518   1.982   3.108  14.986 -0.3470  0.4068  1.2027
  343TIP3   OH222519   0.226   6.634   4.356 -0.5684  0.2453  0.1642
  343TIP3    H122520   0.196   6.724   4.364 -3.2461 -0.7701  2.2722
  343TIP3    H222521   0.194   6.606   4.270  1.5889  1.7120 -1.1708
  344TIP3   OH222522   6.435   3.387   2.630  0.3012  0.2768 -0.0135
  344TIP3    H122523   6.488   3.326   2.579 -1.3628 -0.7022 -0.5961
  344TIP3    H222524   6.496   3.456   2.655  2.0165 -1.1792 -0.0726
  345TIP3   OH222525   2.810   0.091  15.459 -0.2963  0.5836 -0.3451
  345TIP3    H122526   2.853   0.161  15.509  0.0707 -0.7680  1.2820
  345TIP3    H222527   2.868   0.077  15.384  2.8520 -1.9993  2.4038
  346TIP3   OH222528   5.171   5.039  12.117  1.0201  0.2548  0.1279
  346TIP3    H122529   5.230   5.053  12.042  1.8549 -1.6113  0.4177
  346TIP3    H222530   5.114   5.116  12.116  1.5619  0.6777 -1.9284
  347TIP3   OH222531   1.593   5.491  14.504 -0.5019  0.6886  0.3949
  347TIP3    H122532   1.585   5.396  14.516 -1.2283  0.7968  0.8212
  347TIP3    H222533   1.580   5.504  14.410  3.2525  0.0262 -0.2894
  348TIP3   OH222534   5.532   5.929   3.310  0.1947  0.3001 -0.0544
  348TIP3    H122535   5.471   5.857   3.294  1.9782 -0.7929 -2.3081
  348TIP3    H222536   5.506   5.965   3.394 -2.9324 -0.7442 -0.5300
  349TIP3   OH222537   1.994   1.026   5.142  0.4763  0.5448  0.1327
  349TIP3    H122538   2.040   1.013   5.225 -0.7259  0.8969  0.8783
  349TIP3    H222539   2.056   1.076   5.088  0.9422  1.0932  1.1462
  350TIP3   OH222540   0.182   5.530  14.581 -0.0155  0.6737  0.1738
  350TIP3    H122541   0.116   5.573  14.525  1.5677  2.2670 -0.5183
  350TIP3    H222542   0.212   5.456  14.529 -1.7271 -0.4910  0.7792
  351TIP3   OH222543   5.921   2.278  13.597  0.1187  0.0597 -0.1277
  351TIP3    H122544   5.939   2.233  13.680 -1.0662  0.9993  0.6664
  351TIP3    H222545   5.959   2.365  13.609  0.0224  0.1644 -0.5997
  352TIP3   OH222546   0.613   5.089  12.453 -0.1451 -0.3224 -0.5589
  352TIP3    H122547   0.635   5.121  12.365 -0.3689 -0.5729 -0.7088
  352TIP3    H222548   0.635   5.161  12.512  0.6384 -0.4004 -0.7527
  353TIP3   OH222549   2.281   5.743   3.321  0.1563  0.0266 -0.3721
  353TIP3    H122550   2.221   5.669   3.309 -0.2132  0.2569  0.0355
  353TIP3    H222551   2.368   5.707   3.303  0.3541 -1.2961  2.9215
  354TIP3   OH222552   2.212   5.955  12.038 -0.4228  0.1870  0.0401
  354TIP3    H122553   2.143   6.020  12.023 -0.6287  0.2660  1.2499
  354TIP3    H222554   2.257   5.948  11.954 -1.4843  0.6263 -0.5822
  355TIP3   OH222555   5.133   4.762  12.096 -0.2703  0.3719 -0.0782
  355TIP3    H122556   5.176   4.847  12.106 -0.3826  0.6789 -2.1386
  355TIP3    H222557   5.094   4.764  12.009  1.0659 -2.3727 -0.8085
  356TIP3   OH222558   4.244   1.284  12.085  0.1516 -0.4742  0.4864
  356TIP3    H122559   4.231   1.355  12.023 -0.4246 -0.4590  0.6245
  356TIP3    H222560   4.294   1.218  12.036 -1.7885 -1.2131 -0.5287
  357TIP3   OH222561   1.083   4.168   5.252 -0.2584  0.1095 -0.6774
  357TIP3    H122562   1.059   4.179   5.160 -1.4179 -1.0337 -0.5217
  357TIP3    H222563   1.011   4.207   5.301 -1.1589 -2.0213 -0.2325
  358TIP3   OH222564   1.314   5.072   0.264  0.5281 -0.1875 -0.2627
  358TIP3    H122565   1.330   5.010   0.335 -2.2254  1.5064  1.9544
  358TIP3    H222566   1.350   5.155   0.297  0.8183  0.2265 -1.6087
  359TIP3   OH222567   0.415   6.459  11.631  0.4041  0.1701  0.0442
  359TIP3    H122568   0.483   6.501  11.579  1.9196  0.1546  1.9626
  359TIP3    H222569   0.362   6.531  11.665 -0.0252  0.2311 -0.7495
  360TIP3   OH222570   0.406   2.984  17.201  0.3949  0.0772  0.4747
  360TIP3    H122571   0.468   3.056  17.191  0.3335  0.0768  0.1028
  360TIP3    H222572   0.432   2.920  17.135 -2.4478  1.8024 -2.4398
  361TIP3   OH222573   6.348   4.587  12.817 -0.3144 -0.0454  0.5225
  361TIP3    H122574   6.268   4.621  12.776  1.1872  1.7258 -1.0100
  361TIP3    H222575   6.398   4.548  12.745  1.0927  0.5830  1.1450
  362TIP3   OH222576   4.684   2.312  16.600 -0.5356  0.4282  0.5761
  362TIP3    H122577   4.666   2.265  16.682 -3.2332  0.6028  0.1218
  362TIP3    H222578   4.638   2.395  16.610  0.7437  1.2686 -0.3575
  363TIP3   OH222579   0.606   3.311   1.559  1.0316 -0.0350 -0.3705
  363TIP3    H122580   0.677   3.255   1.591  0.6186 -0.5032 -0.2788
  363TIP3    H222581   0.585   3.368   1.633  0.6340 -0.5675 -0.0689
  364TIP3   OH222582   6.310   5.235  16.817 -0.2173 -0.0604 -0.0592
  364TIP3    H122583   6.221   5.201  16.827 -0.6167  1.2962  1.1334
  364TIP3    H222584   6.367   5.163  16.844 -0.9796 -0.5676  0.2003
  365TIP3   OH222585   3.686   5.229   6.056 -0.1075 -0.1840 -0.1619
  365TIP3    H122586   3.717   5.296   6.116  0.2798 -1.1151  0.6796
  365TIP3    H222587   3.739   5.152   6.075 -1.9505 -1.3762  0.3344
  366TIP3   OH222588   1.085   3.287   2.107 -0.5336  0.2290  0.2086
  366TIP3    H122589   1.077   3.352   2.037 -0.9771 -0.5845 -0.5023
  366TIP3    H222590   1.171   3.304   2.145 -0.3185  0.7358 -0.4803
  367TIP3   OH222591   5.846   2.171  14.601  0.0023 -0.2966  0.4385
  367TIP3    H122592   5.825   2.236  14.534 -0.0498 -0.4775  0.2802
  367TIP3    H222593   5.900   2.106  14.556 -0.6882 -0.8337  0.3685
  368TIP3   OH222594   6.091   1.203   6.107 -0.3732 -0.3718  0.3895
  368TIP3    H122595   6.009   1.163   6.134 -2.0296  1.9966 -0.9423
  368TIP3    H222596   6.106   1.272   6.172  1.4643 -1.8429  1.5829
  369TIP3   OH222597   6.406   3.982   1.888 -0.0263 -0.1052  0.7016
  369TIP3    H122598   6.475   3.949   1.945  2.2154  0.6424 -1.4648
  369TIP3    H222599   6.409   3.925   1.812  1.0656  2.4022 -1.2257
  370TIP3   OH222600   6.500   0.571   5.592  0.2265 -0.0829 -0.1694
  370TIP3    H122601   6.476   0.573   5.685 -1.0089  0.6656 -0.4824
  370TIP3    H222602   6.575   0.512   5.587 -0.8575 -1.6148  1.0499
  371TIP3   OH222603   5.598   4.410  13.141 -0.4088 -0.0554  0.3681
  371TIP3    H122604   5.608   4.454  13.057  1.3605  0.1494  0.6645
  371TIP3    H222605   5.504   4.411  13.157 -0.5014  3.2335  0.1440
  372TIP3   OH222606   4.167   6.723  11.047 -0.3201  0.3456  0.1996
  372TIP3    H122607   4.249   6.690  11.010  0.3826  1.2226  0.9371
  372TIP3    H222608   4.151   6.805  11.001 -2.1901 -1.0922 -1.8085
  373TIP3   OH222609   5.046   6.477   5.853  0.7107  0.4817  0.0734
  373TIP3    H122610   5.082   6.506   5.937  0.5831 -0.8681  0.6084
  373TIP3    H222611   5.005   6.393   5.873 -0.3874  0.7353 -1.0924
  374TIP3   OH222612   3.930   6.618   5.480  0.4723  0.1781  0.0533
  374TIP3    H122613   4.024   6.634   5.471  0.4590  0.9520  1.0470
  374TIP3    H222614   3.889   6.703   5.462  0.0775  0.2322  1.1227
  375TIP3   OH222615   0.073   2.662  13.204 -0.4546 -0.0347 -0.4368
  375TIP3    H122616   0.062   2.755  13.186 -1.0866 -0.1226 -0.5551
  375TIP3    H222617   0.102   2.657  13.295 -0.0517  0.2933 -0.5500
  376TIP3   OH222618   0.884   2.744   6.525  0.1237  0.0545  0.3346
  376TIP3    H122619   0.888   2.668   6.466  0.8135  1.3137 -1.2958
  376TIP3    H222620   0.796   2.741   6.561  1.3291 -3.6577  3.2671
  377TIP3   OH222621   0.088   3.722   2.636 -0.2960  0.6323 -0.1866
  377TIP3    H122622   0.141   3.690   2.563  1.0158  0.5421  0.7975
  377TIP3    H222623   0.020   3.775   2.594  1.4616  2.0070 -1.3753
  378TIP3   OH222624   1.785   0.085   4.331 -0.6366  0.8480 -0.3890
  378TIP3    H122625   1.778   0.145   4.257 -0.7538 -0.0898 -1.1421
  378TIP3    H222626   1.834   0.134   4.397  0.2735  1.3570 -1.4321
  379TIP3   OH222627   4.239   4.175   2.594 -0.3322 -0.5787  0.3333
  379TIP3    H122628   4.222   4.084   2.620  1.5966 -0.3515  2.4763
  379TIP3    H222629   4.313   4.170   2.535 -1.0273 -0.5031 -0.5579
  380TIP3   OH222630   2.174   6.598  17.076  0.0704  0.2070  0.2213
  380TIP3    H122631   2.170   6.693  17.076 -1.1680  0.1719  0.6206
  380TIP3    H222632   2.094   6.571  17.122  0.8188 -1.0087  0.8411
  381TIP3   OH222633   0.647   0.514  15.977 -0.2525 -0.6441  0.3187
  381TIP3    H122634   0.661   0.608  15.965  0.6742 -0.8631 -0.3265
  381TIP3    H222635   0.617   0.506  16.067 -0.0447  0.2379  0.4752
  382TIP3   OH222636   1.716   4.291  14.445 -0.4315  0.3755 -0.1809
  382TIP3    H122637   1.790   4.246  14.484 -1.1193  0.0888  0.8241
  382TIP3    H222638   1.640   4.239  14.472 -1.0058  0.7415 -1.0794
  383TIP3   OH222639   0.086   2.541  15.409 -0.3648 -0.0823  0.5081
  383TIP3    H122640   0.055   2.631  15.400  1.7032  0.6040 -0.0037
  383TIP3    H222641   0.032   2.504  15.479 -2.3455  1.0244 -0.3895
  384TIP3   OH222642   6.577   6.194  11.542 -0.1010  0.4098 -0.0441
  384TIP3    H122643   6.548   6.224  11.629 -0.8673  1.0634 -0.5239
  384TIP3    H222644   6.496   6.166  11.499  0.2805  0.1265 -0.5694
  385TIP3   OH222645   1.783   3.998  12.587  0.0913  0.0876 -0.4011
  385TIP3    H122646   1.868   3.973  12.550 -0.2014 -1.5959  0.0044
  385TIP3    H222647   1.753   3.919  12.633 -1.7428  0.6083 -0.6516
  386TIP3   OH222648   2.707   6.747  16.093  0.0885 -0.0947 -0.6170
  386TIP3    H122649   2.671   6.696  16.020  0.3446  0.6822 -1.2862
  386TIP3    H222650   2.697   6.689  16.169  0.4207 -1.1702 -1.3775
  387TIP3   OH222651   5.616   5.939   1.371  0.3979  0.2362  0.7687
  387TIP3    H122652   5.543   5.951   1.310  0.4825 -0.2267  0.5776
  387TIP3    H222653   5.581   5.884   1.440  0.0034  1.5990  1.6659
  388TIP3   OH222654   4.423   1.452   0.474 -0.5787  0.0604 -0.0649
  388TIP3    H122655   4.408   1.357   0.483  1.5612 -0.5644 -2.4586
  388TIP3    H222656   4.514   1.459   0.444 -0.7223  2.8770  0.0585
  389TIP3   OH222657   4.947   1.684  14.674 -0.3479  0.7832  0.1714
  389TIP3    H122658   4.987   1.668  14.760 -0.9477  0.4315  0.3869
  389TIP3    H222659   5.010   1.647  14.612 -0.0731  0.7311  0.4754
  390TIP3   OH222660   6.623   5.536   1.929  0.0779  0.0785 -0.5054
  390TIP3    H122661   6.593   5.627   1.931 -0.0149  0.0478 -0.4654
  390TIP3    H222662   6.687   5.530   2.000  0.5896  0.2893 -0.9448
  391TIP3   OH222663   3.767   2.118   3.798 -0.0760  0.4428 -0.7913
  391TIP3    H122664   3.677   2.139   3.823 -0.1274  0.8108 -1.2714
  391TIP3    H222665   3.819   2.190   3.833 -0.0333  0.4834 -0.9368
  392TIP3   OH222666   6.061   3.464  11.875  0.4241 -0.0011  0.0626
  392TIP3    H122667   6.147   3.422  11.875 -0.3969 -1.7159 -0.4659
  392TIP3    H222668   6.072   3.543  11.928  2.8030  0.7817 -1.5174
  393TIP3   OH222669   5.892   4.606   5.141  0.0756 -0.2971 -0.2053
  393TIP3    H122670   5.802   4.637   5.143  0.6472  1.4084 -0.4519
  393TIP3    H222671   5.887   4.516   5.173 -1.6385 -0.0466  0.2651
  394TIP3   OH222672   5.360   0.319  13.401 -0.2729  0.2638  0.3205
  394TIP3    H122673   5.378   0.314  13.495 -1.5121 -0.7249  0.5123
  394TIP3    H222674   5.320   0.405  13.388 -0.5154  0.2140  0.7593
  395TIP3   OH222675   1.254   3.672  15.004 -0.4605 -0.2088  0.2515
  395TIP3    H122676   1.230   3.596  15.056  0.4775 -0.4273  0.3861
  395TIP3    H222677   1.176   3.727  15.003 -1.0773 -1.0741  0.3281
  396TIP3   OH222678   6.520   3.921  12.303  0.6937 -0.4396  0.0597
  396TIP3    H122679   6.471   3.993  12.262 -1.7416 -2.7455 -1.2436
  396TIP3    H222680   6.610   3.953  12.309 -0.3194  2.6843 -0.4940
  397TIP3   OH222681   1.037   2.182   3.493  0.2662 -0.4342  0.2606
  397TIP3    H122682   1.104   2.241   3.461  0.2951 -0.7729 -0.2962
  397TIP3    H222683   1.077   2.139   3.569 -0.1733  1.1361  1.4161
  398TIP3   OH222684   4.201   1.738  17.243 -0.2858  0.2367 -0.5012
  398TIP3    H122685   4.110   1.717  17.222  0.2215  0.7633 -3.4126
  398TIP3    H222686   4.203   1.833  17.249 -0.2324  0.1469  1.2539
  399TIP3   OH222687   3.186   0.811  13.003  0.2382  0.3790  0.3022
  399TIP3    H122688   3.206   0.885  13.059 -0.0605  0.2300  0.6024
  399TIP3    H222689   3.122   0.760  13.051 -0.0669  0.2822 -0.2004
  400TIP3   OH222690   5.149   5.893   2.703 -0.2473  0.0624  0.0736
  400TIP3    H122691   5.081   5.875   2.769 -0.1821 -2.7559 -0.5407
  400TIP3    H222692   5.215   5.943   2.750 -1.1217 -0.1956  1.6209
  401TIP3   OH222693   2.039   3.421  14.538 -0.4932 -0.0253 -0.2362
  401TIP3    H122694   2.008   3.353  14.597 -1.2486  0.3179 -0.2216
  401TIP3    H222695   1.960   3.471  14.516 -0.4893 -0.9856 -2.6319
  402TIP3   OH222696   5.715   1.102   4.918 -0.4405  0.0470 -0.2221
  402TIP3    H122697   5.778   1.041   4.958  1.3987  0.8908 -1.7614
  402TIP3    H222698   5.684   1.056   4.840 -1.6932 -0.3281  0.4857
  403TIP3   OH222699   6.617   3.159   5.744  0.3197 -0.5085  0.1959
  403TIP3    H122700   6.580   3.071   5.738  0.1177 -0.5502  1.7392
  403TIP3    H222701   6.712   3.144   5.743  0.2902 -0.6770 -0.3240
  404TIP3   OH222702   2.643   5.078   2.607 -0.4241 -0.2976  0.0054
  404TIP3    H122703   2.706   5.021   2.652 -0.4852  0.3138  0.8775
  404TIP3    H222704   2.563   5.025   2.601 -0.4023 -0.4003  0.5747
  405TIP3   OH222705   1.560   4.849  16.165 -0.3329  0.1843  0.5587
  405TIP3    H122706   1.641   4.825  16.119 -1.6612  1.5021 -2.6605
  405TIP3    H222707   1.522   4.766  16.192  1.8103 -0.4834  1.6407
  406TIP3   OH222708   0.547   2.813  15.439  0.2323 -0.4795  0.5166
  406TIP3    H122709   0.622   2.757  15.460  0.9125  0.9458  1.9679
  406TIP3    H222710   0.569   2.852  15.355  0.8018 -0.5985  0.6066
  407TIP3   OH222711   0.479   2.946   5.862  0.0597  0.0061 -0.1635
  407TIP3    H122712   0.400   2.918   5.817 -1.1025  1.7943  0.6928
  407TIP3    H222713   0.466   2.919   5.953  2.0167 -2.8239 -0.6545
  408TIP3   OH222714   0.011   5.138  12.058 -0.4051  0.4115 -0.3929
  408TIP3    H122715   0.102   5.164  12.071  0.3799 -1.0139 -2.6406
  408TIP3    H222716  -0.032   5.155  12.142  1.6462  2.2240  0.3271
  409TIP3   OH222717   0.716   5.467   4.261  0.0452  0.2948 -0.2818
  409TIP3    H122718   0.707   5.511   4.177  0.8212 -2.6912 -2.0170
  409TIP3    H222719   0.777   5.521   4.311  1.4306  0.8534 -2.5517
  410TIP3   OH222720   4.677   2.141  11.204 -0.5412 -0.0104  0.5232
  410TIP3    H122721   4.642   2.162  11.117  0.2962  0.8010  0.3624
  410TIP3    H222722   4.600   2.129  11.259 -1.0840 -0.6541 -0.3639
  411TIP3   OH222723   1.173   6.369  11.031  0.5230 -0.3550  0.0898
  411TIP3    H122724   1.095   6.390  11.082 -0.0858 -1.5596 -0.3210
  411TIP3    H222725   1.156   6.405  10.944 -0.7717 -2.9110 -0.7839
  412TIP3   OH222726   2.657   0.807  13.161 -0.1017 -0.2986 -0.0564
  412TIP3    H122727   2.732   0.856  13.197 -1.0629 -0.0915  1.7119
  412TIP3    H222728   2.685   0.783  13.073  2.2291 -0.5710  0.6978
  413TIP3   OH222729   2.737   5.712  11.117 -0.3964 -0.4143  0.3472
  413TIP3    H122730   2.773   5.786  11.066  0.8620 -2.2009 -1.4517
  413TIP3    H222731   2.676   5.670  11.057 -0.3863 -1.3912  1.0185
  414TIP3   OH222732   2.493   1.071   3.391  0.7100 -1.0641  0.6847
  414TIP3    H122733   2.449   1.137   3.337 -0.7217 -1.3975  1.4162
  414TIP3    H222734   2.481   1.101   3.481  4.7345  0.4888  0.7880
  415TIP3   OH222735   1.217   6.311   1.981  0.3638  0.2366  0.1370
  415TIP3    H122736   1.250   6.226   2.009 -0.0632  0.1617  0.4214
  415TIP3    H222737   1.250   6.373   2.047 -1.0293 -0.0053  1.0940
  416TIP3   OH222738   5.991   5.275  16.154 -0.0991  0.0095  0.0562
  416TIP3    H122739   6.003   5.227  16.072  0.2329  0.9973 -0.4725
  416TIP3    H222740   5.901   5.309  16.148  0.1464  0.6161 -0.1784
  417TIP3   OH222741   4.092   0.633   5.218  0.3941 -0.2897  0.0972
  417TIP3    H122742   4.105   0.547   5.179  0.0089 -0.2569 -0.1092
  417TIP3    H222743   4.168   0.684   5.188 -0.1580 -0.1131 -1.0413
  418TIP3   OH222744   6.097   0.414  12.682 -0.2491 -0.4778 -0.0941
  418TIP3    H122745   6.181   0.454  12.658 -0.5889 -1.2489 -2.7428
  418TIP3    H222746   6.105   0.323  12.653 -1.3687 -1.0032  1.2173
  419TIP3   OH222747   6.253   2.601  14.995 -0.1761 -0.1541  0.3850
  419TIP3    H122748   6.204   2.522  15.017 -0.1455 -0.0561  0.8028
  419TIP3    H222749   6.296   2.580  14.912 -0.4951 -0.4299  0.2868
  420TIP3   OH222750   2.042   5.533   4.263  0.4829 -0.0359 -0.1614
  420TIP3    H122751   2.098   5.589   4.316  1.7896 -0.3463 -1.1758
  420TIP3    H222752   1.956   5.577   4.264  0.7905  0.5528  1.2298
  421TIP3   OH222753   3.370   4.171  14.284 -0.1150 -0.1916  0.0083
  421TIP3    H122754   3.376   4.091  14.336  1.6341 -0.9291 -1.2994
  421TIP3    H222755   3.411   4.238  14.339  0.1318 -0.5994  0.3259
  422TIP3   OH222756   5.742   2.027   2.544  0.3392  0.5295  0.0640
  422TIP3    H122757   5.835   2.013   2.529 -0.1002 -0.1595 -2.2462
  422TIP3    H222758   5.721   1.969   2.618  1.5522  0.0660  0.0609
  423TIP3   OH222759   2.878   6.060   2.262  0.0660 -0.0136 -0.5658
  423TIP3    H122760   2.905   5.969   2.266  0.0254 -0.0246 -0.5276
  423TIP3    H222761   2.947   6.108   2.309  0.0123 -0.0426 -0.4565
  424TIP3   OH222762   4.480   6.667  14.746 -0.2232 -0.6983 -0.0636
  424TIP3    H122763   4.428   6.668  14.826  0.8984 -1.9095  0.6976
  424TIP3    H222764   4.460   6.583  14.705  0.0308 -0.5430 -0.5131
  425TIP3   OH222765   3.142   3.236  15.776  0.0051 -0.0559  0.1043
  425TIP3    H122766   3.087   3.300  15.822 -0.5748 -0.6513  0.2455
  425TIP3    H222767   3.150   3.271  15.687 -0.1181  0.3305  0.2413
  426TIP3   OH222768   2.246   3.755  15.722  0.1991  0.1423  0.2554
  426TIP3    H122769   2.279   3.837  15.758  0.1059  0.1285  0.3734
  426TIP3    H222770   2.205   3.711  15.797  1.1467 -0.4735  0.4149
  427TIP3   OH222771   0.186   1.427  16.221 -0.1055  0.1284 -0.7658
  427TIP3    H122772   0.227   1.497  16.273  0.6924 -1.6101  0.9716
  427TIP3    H222773   0.249   1.412  16.150 -0.2270  1.0725 -1.0924
  428TIP3   OH222774   3.600   3.987  14.141  0.1116 -0.3682 -0.1053
  428TIP3    H122775   3.653   3.913  14.112 -1.5793 -1.0954 -1.4778
  428TIP3    H222776   3.515   3.972  14.099 -1.1530  0.7708  2.0036
  429TIP3   OH222777   5.151   1.722  11.047  0.4906  0.2964  0.4818
  429TIP3    H122778   5.136   1.687  11.135 -1.9432 -0.7726 -0.3148
  429TIP3    H222779   5.081   1.786  11.034  0.3117 -0.1835 -1.0064
  430TIP3   OH222780   4.164   4.584   1.110  0.0594  0.1540 -0.3828
  430TIP3    H122781   4.215   4.647   1.059 -0.1908 -0.8670 -1.9100
  430TIP3    H222782   4.091   4.635   1.145  0.0578  0.7881 -1.3105
  431TIP3   OH222783   4.434   6.337   4.066  0.3175  0.0623 -0.0469
  431TIP3    H122784   4.487   6.287   4.004 -1.1206  0.2243 -1.4284
  431TIP3    H222785   4.428   6.424   4.028 -0.2033  0.2855  0.5400
  432TIP3   OH222786   2.691   2.125   5.516 -0.5265 -0.5816 -0.5472
  432TIP3    H122787   2.751   2.095   5.584  0.1224  0.9534 -0.4145
  432TIP3    H222788   2.604   2.117   5.556 -0.3225 -1.8243 -0.3599
  433TIP3   OH222789   6.728   1.731   6.399  0.9345  0.1310 -0.1764
  433TIP3    H122790   6.696   1.659   6.454 -0.0367  0.5630 -0.1689
  433TIP3    H222791   6.670   1.731   6.323  0.7061  1.1219 -0.0141
  434TIP3   OH222792   6.540   6.573   0.469 -0.3293  0.0982 -0.3576
  434TIP3    H122793   6.633   6.593   0.463  0.0468 -1.5090 -0.0514
  434TIP3    H222794   6.523   6.516   0.394 -0.8472 -0.4238  0.1493
  435TIP3   OH222795   2.330   2.568  17.163  0.3673  0.2706 -0.6644
  435TIP3    H122796   2.262   2.635  17.161  0.1858  0.0963 -0.2950
  435TIP3    H222797   2.343   2.545  17.071  1.0195  1.4055 -0.8677
  436TIP3   OH222798   5.937   0.582  11.696 -0.0082 -0.5294 -0.2961
  436TIP3    H122799   6.031   0.598  11.707  0.1015 -0.9734 -0.6135
  436TIP3    H222800   5.897   0.627  11.771  0.4338 -0.1145 -0.3044
  437TIP3   OH222801   3.018   0.511   3.511  0.2308 -0.3402  0.0430
  437TIP3    H122802   2.985   0.424   3.532  1.7481 -1.2867 -1.4472
  437TIP3    H222803   3.111   0.499   3.495  0.5104  1.6105  0.0495
  438TIP3   OH222804   6.120   2.748  14.251  0.2589  0.0126  0.6520
  438TIP3    H122805   6.050   2.775  14.310  0.7160  0.8051  0.8297
  438TIP3    H222806   6.080   2.682  14.195 -0.7623  0.8014  0.4458
  439TIP3   OH222807   4.381   1.650   4.003  0.3929  0.0510 -0.7042
  439TIP3    H122808   4.459   1.702   3.986 -0.6617  2.3740  1.3496
  439TIP3    H222809   4.312   1.692   3.952  0.1538 -1.2137 -1.4699
  440TIP3   OH222810   1.576   0.796  13.686 -0.2969  0.0002  0.7966
  440TIP3    H122811   1.509   0.856  13.718  0.4749  1.1176  0.3632
  440TIP3    H222812   1.584   0.816  13.593  1.2363  0.4849  1.0191
  441TIP3   OH222813   5.771   0.176   3.774  0.1507 -0.0199  0.7802
  441TIP3    H122814   5.775   0.193   3.680 -0.9055 -0.7492  0.5869
  441TIP3    H222815   5.839   0.232   3.812 -1.3807  2.5500 -0.0940
  442TIP3   OH222816   4.984   5.886  13.394 -0.6232  0.1166  0.2874
  442TIP3    H122817   4.939   5.876  13.478 -0.3133 -2.8308  0.1515
  442TIP3    H222818   4.913   5.898  13.330 -0.8850  1.7405  0.8574
  443TIP3   OH222819   0.475   4.146  12.363  0.0284 -0.2139  0.1474
  443TIP3    H122820   0.491   4.206  12.435  0.1872 -0.1233  0.0384
  443TIP3    H222821   0.561   4.110  12.342  0.0776  0.2007 -0.3777
  444TIP3   OH222822   4.671   3.377   1.765  0.1466  0.8847 -0.0577
  444TIP3    H122823   4.626   3.376   1.681  2.2601 -0.1130 -1.2314
  444TIP3    H222824   4.650   3.292   1.805  0.7339  0.5325 -0.4839
  445TIP3   OH222825   3.408   2.826   0.364  0.1577  0.3723 -0.4461
  445TIP3    H122826   3.327   2.816   0.412  0.3375  1.5357  0.1034
  445TIP3    H222827   3.421   2.920   0.356  1.2298  0.2003 -0.9079
  446TIP3   OH222828   4.753   1.597  13.670 -0.0860 -0.0360  0.2950
  446TIP3    H122829   4.668   1.554  13.654 -1.1563  0.7978  3.4536
  446TIP3    H222830   4.813   1.554  13.609 -2.8465 -0.3367 -2.3588
  447TIP3   OH222831   3.318   0.239  15.081 -0.2225 -0.9828 -0.4956
  447TIP3    H122832   3.297   0.301  15.150  0.4156 -0.3328 -0.8731
  447TIP3    H222833   3.411   0.220  15.094  0.3221  0.4153 -2.1605
  448TIP3   OH222834   5.004   6.278   5.435 -0.4946  0.2822  0.6087
  448TIP3    H122835   4.950   6.238   5.504  0.4528 -0.7260  0.7840
  448TIP3    H222836   5.052   6.348   5.478 -0.2898 -0.0142  0.8621
  449TIP3   OH222837   5.518   0.015   2.835 -0.0443 -0.2992  0.5352
  449TIP3    H122838   5.583   0.076   2.801  0.6430 -1.8311 -0.9676
  449TIP3    H222839   5.464  -0.007   2.759 -1.5351 -0.0305  1.4891
  450TIP3   OH222840   1.948   2.046  14.489 -0.1749  0.1794 -0.4525
  450TIP3    H122841   2.008   2.007  14.427  1.3607  1.5496  0.1381
  450TIP3    H222842   1.939   2.137  14.461  0.4029  0.7749  1.1985
  451TIP3   OH222843   3.154   0.817  13.814 -0.3639  0.3824 -0.6140
  451TIP3    H122844   3.121   0.852  13.732 -2.1691  1.6367  0.6084
  451TIP3    H222845   3.129   0.882  13.880 -0.8324 -1.5808  1.2232
  452TIP3   OH222846   2.086   3.412  11.992 -0.1184 -0.6422  0.4541
  452TIP3    H122847   2.162   3.354  11.979 -1.8806 -2.7927 -0.4987
  452TIP3    H222848   2.103   3.486  11.934  1.1000 -1.2665 -0.0071
  453TIP3   OH222849   6.095   1.275   0.625 -0.6808  0.2187  0.3691
  453TIP3    H122850   6.009   1.233   0.614 -0.2430 -0.4544 -0.5947
  453TIP3    H222851   6.140   1.220   0.689 -1.5575  1.5125  2.1281
  454TIP3   OH222852   2.967   3.647   5.713 -0.5143 -0.2364 -0.1225
  454TIP3    H122853   2.963   3.735   5.676  3.3020 -0.4350 -1.1581
  454TIP3    H222854   3.011   3.658   5.798  1.9623 -1.3874 -1.2228
  455TIP3   OH222855   3.436   1.370   5.249 -0.6479 -0.2122 -0.9246
  455TIP3    H122856   3.493   1.445   5.266 -1.5618  0.4267 -0.6350
  455TIP3    H222857   3.358   1.387   5.302 -1.5304 -0.5703 -2.0916
  456TIP3   OH222858   3.297   4.558  11.341  0.8883  0.1380  0.2939
  456TIP3    H122859   3.253   4.639  11.314  0.4014 -0.1500  0.2312
  456TIP3    H222860   3.371   4.589  11.394  0.6005  0.6194  0.4216
  457TIP3   OH222861   0.297   1.594  11.999  0.0212  0.6673  0.0281
  457TIP3    H122862   0.333   1.508  11.978 -1.6144 -0.6082  2.2488
  457TIP3    H222863   0.362   1.633  12.057  0.4456  0.6691 -0.4417
  458TIP3   OH222864   3.867   0.495  16.488 -0.1672  0.1244  0.7711
  458TIP3    H122865   3.948   0.504  16.438  0.1690  1.3929  1.5061
  458TIP3    H222866   3.802   0.543  16.437  0.1560  1.3431  1.4638
  459TIP3   OH222867   3.992   1.717   4.973  0.4117  0.0539 -0.3993
  459TIP3    H122868   4.072   1.758   5.003  0.5237 -0.0191 -0.5910
  459TIP3    H222869   4.005   1.705   4.879 -0.6662  1.9455 -0.8129
  460TIP3   OH222870   2.998   2.448   4.264 -0.1891  0.1682  0.9793
  460TIP3    H122871   3.062   2.452   4.335  1.1195  2.9355 -0.2709
  460TIP3    H222872   3.050   2.426   4.187 -0.6815  2.5615 -0.0702
  461TIP3   OH222873   1.163   0.898  14.671 -0.1787 -0.2099 -0.1337
  461TIP3    H122874   1.212   0.859  14.744  0.9573 -0.5569 -1.0606
  461TIP3    H222875   1.071   0.889  14.696  0.1687 -1.1361  0.8468
  462TIP3   OH222876   5.685   1.389   3.389 -0.1087 -0.0014 -0.0109
  462TIP3    H122877   5.659   1.302   3.421  1.4987 -1.3904 -2.3011
  462TIP3    H222878   5.755   1.416   3.448 -0.3164 -0.4387  0.4420
  463TIP3   OH222879   3.095   1.994  13.710 -0.1360 -0.0688  0.1289
  463TIP3    H122880   3.178   1.947  13.716  0.8879  1.8745  1.9001
  463TIP3    H222881   3.113   2.068  13.652 -1.0387 -0.4328 -0.6297
  464TIP3   OH222882   4.001   1.603  12.037  0.3922  0.0809 -0.1982
  464TIP3    H122883   4.069   1.580  11.973 -1.8240  0.5265 -2.7850
  464TIP3    H222884   3.933   1.536  12.026 -0.1132  0.2568  1.6112
  465TIP3   OH222885   4.496   5.965  12.245  0.4781  0.0476  0.3325
  465TIP3    H122886   4.577   5.982  12.294 -0.2394 -0.9992  1.9080
  465TIP3    H222887   4.427   6.002  12.300 -0.2066  0.1271 -0.5743
  466TIP3   OH222888   6.154   5.600   4.582  0.6853  0.3555 -0.1742
  466TIP3    H122889   6.094   5.644   4.522  2.4158 -0.8305 -2.8575
  466TIP3    H222890   6.178   5.667   4.646 -0.7631  1.8085 -1.1299
  467TIP3   OH222891   2.994   0.822  15.356 -0.3921 -0.2678 -0.4161
  467TIP3    H122892   2.918   0.775  15.323 -0.1771 -1.6919  1.0207
  467TIP3    H222893   2.974   0.837  15.449 -0.6894  3.0005 -0.9558
  468TIP3   OH222894   3.893   5.800  13.095 -0.0190 -0.1630  0.8021
  468TIP3    H122895   3.925   5.738  13.031 -0.3893  2.1436 -1.7149
  468TIP3    H222896   3.870   5.747  13.172  1.1554 -2.8733 -0.6745
  469TIP3   OH222897   2.874   3.958  12.747  0.0474 -0.2810 -0.4705
  469TIP3    H122898   2.847   4.037  12.700  1.0420 -0.2049 -0.9218
  469TIP3    H222899   2.844   3.972  12.837 -0.4053  0.2894 -0.7061
  470TIP3   OH222900   0.259   5.683   3.101 -0.0104  0.3933  0.0533
  470TIP3    H122901   0.215   5.599   3.111  1.2355 -0.4568 -1.3727
  470TIP3    H222902   0.198   5.736   3.050 -0.4121  0.0282  0.1518
  471TIP3   OH222903   5.715   2.036  17.098  1.2510  0.2944 -0.4640
  471TIP3    H122904   5.679   2.097  17.162 -2.0610 -0.8514 -1.1441
  471TIP3    H222905   5.732   1.956  17.148  0.8595  0.1536 -0.5550
  472TIP3   OH222906   3.458   6.068  15.467  0.2067  0.2351  0.0966
  472TIP3    H122907   3.465   6.041  15.558 -1.8206  2.0854  0.8648
  472TIP3    H222908   3.398   6.005  15.428 -0.6772  0.7339  0.6305
  473TIP3   OH222909   2.779   2.204  16.938 -0.3257  0.2747 -0.2748
  473TIP3    H122910   2.762   2.111  16.955 -1.2954  0.7647  1.5838
  473TIP3    H222911   2.739   2.221  16.853 -1.6878 -0.6148  0.1699
  474TIP3   OH222912   3.495   1.337  16.044 -0.1722  0.1372 -0.2550
  474TIP3    H122913   3.451   1.376  16.119 -0.8425  2.2267 -1.6896
  474TIP3    H222914   3.429   1.279  16.004 -0.1429 -0.1879  0.1639
  475TIP3   OH222915   5.403   0.978   2.956 -0.3790 -0.0592 -0.0408
  475TIP3    H122916   5.346   0.971   2.880  0.6959  1.1357 -0.9808
  475TIP3    H222917   5.343   0.998   3.029 -1.4940 -1.9989 -0.3918
  476TIP3   OH222918   5.257   2.497   0.747  0.0274  0.5856 -0.3571
  476TIP3    H122919   5.188   2.439   0.778 -0.9965  1.5970 -0.7340
  476TIP3    H222920   5.303   2.447   0.680 -2.4312  1.0816 -2.5067
  477TIP3   OH222921   4.266   3.864   1.497  0.2448  0.5901 -0.6782
  477TIP3    H122922   4.336   3.927   1.483  0.4896  0.4294 -0.1877
  477TIP3    H222923   4.208   3.875   1.422  2.4527 -1.4789 -2.7715
  478TIP3   OH222924   3.962   2.970   5.135 -0.5224  0.3050 -0.3225
  478TIP3    H122925   4.030   3.023   5.176 -0.8152  0.0448  0.4939
  478TIP3    H222926   3.903   3.033   5.094 -0.7704  0.5992  0.4956
  479TIP3   OH222927   5.696   1.756  12.543 -0.1800 -0.1943  0.2707
  479TIP3    H122928   5.687   1.794  12.456  2.7268  0.3240  0.1284
  479TIP3    H222929   5.782   1.713  12.542 -0.9195 -1.8190  2.2818
  480TIP3   OH222930   3.862   0.830  13.421  0.4185  0.1169 -0.2488
  480TIP3    H122931   3.927   0.865  13.360 -0.7353  0.6646 -1.1799
  480TIP3    H222932   3.846   0.903  13.482  1.8501 -0.5533  0.9720
  481TIP3   OH222933   2.792   0.775  15.092  0.4330  0.2074 -0.3627
  481TIP3    H122934   2.731   0.756  15.021 -0.4929  0.9650  0.2157
  481TIP3    H222935   2.793   0.695  15.145  0.7938 -0.2030 -0.9862
  482TIP3   OH222936   0.620   6.642  15.173 -0.7525 -0.3933 -0.2649
  482TIP3    H122937   0.665   6.703  15.231  0.2955 -1.8331  0.4704
  482TIP3    H222938   0.548   6.608  15.225 -3.2271  2.4224 -1.6627
  483TIP3   OH222939   0.493   1.761  13.240  0.7172 -0.6353  0.2491
  483TIP3    H122940   0.555   1.707  13.289  0.2679 -1.0374  0.3677
  483TIP3    H222941   0.424   1.781  13.302  0.5540 -0.4704  0.0158
  484TIP3   OH222942   3.504   0.246   4.162 -0.1917  0.1961 -0.3200
  484TIP3    H122943   3.565   0.184   4.202  0.3066  0.7154 -0.2733
  484TIP3    H222944   3.493   0.315   4.227 -0.8924  0.0677 -0.2956
  485TIP3   OH222945   4.394   2.953   3.077  0.0217 -0.4724 -0.2025
  485TIP3    H122946   4.478   2.992   3.054  0.3621 -0.2332  1.3518
  485TIP3    H222947   4.341   2.959   2.998  0.6332  1.6759 -0.4736
  486TIP3   OH222948   5.423   5.054   0.439 -0.3791 -0.3363 -0.7254
  486TIP3    H122949   5.422   5.078   0.532 -1.4524 -0.7086 -0.6382
  486TIP3    H222950   5.371   5.122   0.396  0.9434  0.3947 -1.2034
  487TIP3   OH222951   0.256   6.529  16.036 -0.3977  0.2092 -0.1854
  487TIP3    H122952   0.167   6.539  16.002 -0.4196  1.0413  0.1047
  487TIP3    H222953   0.267   6.434  16.047 -1.6623  0.1755  0.9003
  488TIP3   OH222954   1.216   3.456   4.359  0.0518  0.2370  0.7778
  488TIP3    H122955   1.221   3.550   4.340 -0.1395 -0.1126 -1.0924
  488TIP3    H222956   1.305   3.424   4.344  0.1020  0.1009  1.3589
  489TIP3   OH222957   4.441   4.200  13.000 -0.8648 -0.2560  0.1735
  489TIP3    H122958   4.402   4.260  12.936 -1.5891 -0.7153  0.1745
  489TIP3    H222959   4.513   4.158  12.953 -1.3271 -0.5161 -0.3182
  490TIP3   OH222960   0.987   0.913   6.748  0.5668  0.7883 -0.2633
  490TIP3    H122961   0.975   0.990   6.804  1.1896  0.1104  0.8188
  490TIP3    H222962   0.930   0.929   6.672 -1.0543  1.2844  1.0222
  491TIP3   OH222963   2.637   1.885   2.352 -0.0081 -0.1963  0.2054
  491TIP3    H122964   2.554   1.930   2.364 -0.7667 -1.1463 -1.2548
  491TIP3    H222965   2.679   1.932   2.279 -0.6954 -1.6435 -1.1584
  492TIP3   OH222966   1.156   4.968   5.358 -0.3875 -0.2685  0.1174
  492TIP3    H122967   1.205   4.997   5.281 -1.8157  1.1686 -0.2689
  492TIP3    H222968   1.140   4.875   5.342 -0.8893  0.0663 -1.4575
  493TIP3   OH222969   1.711   4.089   6.021 -0.2254  0.1204 -0.3828
  493TIP3    H122970   1.748   4.001   6.028  0.4868  0.4087 -0.4358
  493TIP3    H222971   1.736   4.118   5.933  0.4538  0.7753  0.0183
  494TIP3   OH222972   5.611   6.596  13.521  0.6167  0.1931  0.1095
  494TIP3    H122973   5.556   6.562  13.450  0.2935 -0.9143  0.8719
  494TIP3    H222974   5.588   6.689  13.527 -0.0366  0.0854 -0.6202
  495TIP3   OH222975   4.665   1.891  11.583  0.1280  0.2442 -0.1800
  495TIP3    H122976   4.736   1.905  11.645  0.8907 -1.4509 -0.6181
  495TIP3    H222977   4.585   1.905  11.633  0.7650  0.8202  0.6746
  496TIP3   OH222978   6.003   6.518  16.047  0.1434 -0.4216 -0.3068
  496TIP3    H122979   6.038   6.430  16.059 -1.5345 -0.8991  1.4901
  496TIP3    H222980   6.020   6.562  16.131  0.5953  0.8189 -1.0487
  497TIP3   OH222981   2.004   3.972  14.108 -0.2606 -0.8850 -0.0700
  497TIP3    H122982   1.954   4.022  14.044  1.8758  2.2296  0.5505
  497TIP3    H222983   2.091   3.961  14.068  1.1781  1.3051  2.2658
  498TIP3   OH222984   3.867   2.556  15.920  0.1273  0.0790  0.0211
  498TIP3    H122985   3.804   2.628  15.918  0.8005  0.7437  1.4662
  498TIP3    H222986   3.841   2.499  15.848 -1.7630  0.6443  0.2177
  499TIP3   OH222987   0.278   0.165  17.083 -0.8268  0.2027  0.6792
  499TIP3    H122988   0.267   0.156  17.177 -0.8667  2.2790  0.8934
  499TIP3    H222989   0.348   0.229  17.073  0.8037 -1.7405 -0.7136
  500TIP3   OH222990   4.306   0.278  13.053 -0.0598 -0.8306  0.3110
  500TIP3    H122991   4.293   0.213  12.984 -0.4039  0.6286 -1.0169
  500TIP3    H222992   4.244   0.253  13.122  0.6856 -2.6301  0.3782
  501TIP3   OH222993   0.391   4.444   0.728 -0.2620  0.2487 -0.0392
  501TIP3    H122994   0.454   4.375   0.708 -1.4975 -1.3172  1.2777
  501TIP3    H222995   0.429   4.491   0.802  0.8708  1.4090 -1.3237
  502TIP3   OH222996   4.078   6.529  16.708 -0.8629  0.0159  0.8823
  502TIP3    H122997   4.144   6.500  16.771 -0.5729 -1.8054 -0.2403
  502TIP3    H222998   4.126   6.585  16.647 -0.7006  0.0579  1.0486
  503TIP3   OH222999   0.566   6.127  16.324 -0.2225  0.2283 -0.0332
  503TIP3    H123000   0.594   6.055  16.381 -1.6207  0.1104  0.5243
  503TIP3    H223001   0.603   6.205  16.364 -0.1078  0.0106  0.2894
  504TIP3   OH223002   6.783   1.530   6.205  0.5733 -0.4012  0.5828
  504TIP3    H123003   6.719   1.599   6.217 -0.3399 -1.1208 -0.0011
  504TIP3    H223004   6.735   1.449   6.223  1.5933 -0.8907  1.1626
  505TIP3   OH223005   6.550   6.709  15.867  0.3507  0.7007 -0.1053
  505TIP3    H123006   6.522   6.648  15.799 -2.1280 -0.9295  2.2540
  505TIP3    H223007   6.475   6.714  15.927  1.6457  3.7366  1.3561
  506TIP3   OH223008   5.194   5.498   5.726 -0.4041 -0.7631 -0.3147
  506TIP3    H123009   5.114   5.446   5.721 -1.1146  0.3675 -0.9620
  506TIP3    H223010   5.165   5.588   5.714  1.1155 -0.4377 -1.7243
  507TIP3   OH223011   0.258   3.047   0.785 -0.4680  0.0372  0.4951
  507TIP3    H123012   0.241   3.095   0.866  0.7380  1.2181  0.0700
  507TIP3    H223013   0.308   2.970   0.813 -0.4556  0.2058  0.9353
  508TIP3   OH223014   6.019   5.293  11.352 -0.3584 -0.3274 -0.4471
  508TIP3    H123015   5.937   5.335  11.377 -0.1794 -0.7286  0.8323
  508TIP3    H223016   6.082   5.364  11.347 -0.2080 -0.3298  1.0668
  509TIP3   OH223017   0.301   3.486  16.599 -0.2691  0.4358 -0.0855
  509TIP3    H123018   0.212   3.489  16.563 -0.8304  2.1663  1.3429
  509TIP3    H223019   0.293   3.529  16.685  1.3051 -2.2064  1.4466
  510TIP3   OH223020   3.398   0.665  16.983 -0.0070 -1.3515  0.0376
  510TIP3    H123021   3.338   0.736  17.007  2.0873  0.1829  0.9906
  510TIP3    H223022   3.391   0.602  17.055 -0.6212 -1.2919  0.0342
  511TIP3   OH223023   0.600   1.038  10.466  0.1746 -0.8924 -0.0711
  511TIP3    H123024   0.681   1.085  10.488  0.1047 -0.9756  0.3581
  511TIP3    H223025   0.618   0.948  10.491 -0.0299 -0.9235 -0.0422
  512TIP3   OH223026   4.806   2.564  12.248  0.2478  0.1991  0.0612
  512TIP3    H123027   4.813   2.473  12.220  1.4785  0.0665  0.7794
  512TIP3    H223028   4.741   2.602  12.189  0.8642 -0.7487 -1.2525
  513TIP3   OH223029   1.562   6.281   4.586 -0.2948  0.0064  0.0457
  513TIP3    H123030   1.518   6.248   4.664  2.0757  0.0139  1.4297
  513TIP3    H223031   1.637   6.329   4.619  0.3722  0.5825 -2.2274
  514TIP3   OH223032   6.387   0.872   1.698  0.6210  0.3981  0.1145
  514TIP3    H123033   6.425   0.856   1.612  1.4502  0.4400  0.4719
  514TIP3    H223034   6.455   0.847   1.760 -0.8638 -2.0818  0.8405
  515TIP3   OH223035   1.095   0.925  13.208  0.1073 -0.2553  0.0428
  515TIP3    H123036   1.051   0.896  13.128  0.6094 -1.3854  0.1682
  515TIP3    H223037   1.134   0.845  13.244  0.8071  0.4401  0.8356
  516TIP3   OH223038   5.553   3.640   5.274  0.5747 -0.3399 -0.5838
  516TIP3    H123039   5.552   3.560   5.326 -3.0264 -0.2921 -0.4577
  516TIP3    H223040   5.535   3.611   5.184  0.5917  0.1963 -0.7644
  517TIP3   OH223041   3.009   2.423   4.654  0.0649 -0.2158 -0.3757
  517TIP3    H123042   3.002   2.420   4.749  0.5038 -0.5142 -0.3526
  517TIP3    H223043   3.052   2.341   4.630  1.9545  0.8226 -0.6527
  518TIP3   OH223044   0.174   0.170  10.284  0.0958 -0.2600  0.5400
  518TIP3    H123045   0.086   0.164  10.320 -0.4062  1.1282 -0.4259
  518TIP3    H223046   0.202   0.259  10.303  0.6859 -0.2117 -0.5372
  519TIP3   OH223047   0.231   2.483   2.752  0.4991 -0.3743 -1.1033
  519TIP3    H123048   0.142   2.486   2.787  1.0064  0.7531  0.1157
  519TIP3    H223049   0.241   2.393   2.721  0.0604 -1.4139  1.6809
  520TIP3   OH223050   3.653   6.300  15.997 -0.3640 -0.1836 -0.0215
  520TIP3    H123051   3.742   6.313  16.030 -1.3693 -0.3865  2.9197
  520TIP3    H223052   3.665   6.260  15.911  2.3809 -0.1941  0.3248
  521TIP3   OH223053   4.702   6.157  16.189  0.6842  0.4752 -0.1473
  521TIP3    H123054   4.634   6.102  16.228  0.7514  0.3852 -0.1585
  521TIP3    H223055   4.693   6.241  16.232 -1.2727  1.3306 -2.1143
  522TIP3   OH223056   5.705   6.781  13.850 -0.8123  0.6193  0.3138
  522TIP3    H123057   5.675   6.694  13.824  0.3903  0.4473 -0.4795
  522TIP3    H223058   5.780   6.765  13.907  0.3610  1.1775 -1.0537
  523TIP3   OH223059   2.079   5.501  11.153  0.7966 -1.0474 -0.3785
  523TIP3    H123060   2.057   5.425  11.099  1.7550 -2.9819  1.8508
  523TIP3    H223061   2.173   5.513  11.139  0.0335  2.1185 -3.5822
  524TIP3   OH223062   5.185   5.149   1.423  0.3582 -0.2136  0.1106
  524TIP3    H123063   5.115   5.084   1.429  1.1534 -1.0720  0.1397
  524TIP3    H223064   5.149   5.219   1.368 -0.4804 -0.7029  0.0409
  525TIP3   OH223065   0.834   1.874   2.781  0.3835 -0.0680  0.9056
  525TIP3    H123066   0.820   1.791   2.736 -1.0915 -0.1532  1.4902
  525TIP3    H223067   0.797   1.940   2.722  1.3184  0.1639  0.5611
  526TIP3   OH223068   4.671   1.303   0.728  0.2829  0.1276 -0.8257
  526TIP3    H123069   4.632   1.215   0.730 -0.4541  0.4313 -1.6278
  526TIP3    H223070   4.610   1.358   0.777 -0.1826  0.5564 -1.8746
  527TIP3   OH223071   1.944   4.621  17.112 -0.2299  0.4042  0.0844
  527TIP3    H123072   2.033   4.623  17.078 -0.1034  1.6929  0.4570
  527TIP3    H223073   1.912   4.710  17.100 -1.0277  0.2606  1.0981
  528TIP3   OH223074   5.973   3.395  10.924 -1.0377 -0.3463  0.4213
  528TIP3    H123075   5.879   3.395  10.910 -0.9135 -0.0766 -0.4414
  528TIP3    H223076   5.999   3.303  10.918 -1.2168 -0.3998  0.4697
  529TIP3   OH223077   2.728   3.079   1.757 -0.4469  0.3868 -0.2334
  529TIP3    H123078   2.670   3.063   1.831 -1.6202 -0.6513 -1.3518
  529TIP3    H223079   2.769   2.995   1.740 -1.2693  0.2569 -1.6573
  530TIP3   OH223080   6.713   2.280  14.998  0.4470  0.0301 -0.4956
  530TIP3    H123081   6.807   2.294  15.013  0.3425 -1.1539  1.2899
  530TIP3    H223082   6.671   2.358  15.035  0.6603  0.3231 -0.8515
  531TIP3   OH223083   3.650   5.269   1.014 -0.1169 -0.5192 -0.1240
  531TIP3    H123084   3.745   5.278   1.010 -0.1489 -0.4297 -0.6858
  531TIP3    H223085   3.624   5.325   1.087  0.2428 -0.3892 -0.0931
  532TIP3   OH223086   1.037   1.732   6.210  0.0269 -0.4992  0.2734
  532TIP3    H123087   1.125   1.739   6.246  0.6094 -2.4445 -0.6661
  532TIP3    H223088   0.980   1.721   6.286  0.6477  0.2668  0.8575
  533TIP3   OH223089   4.188   4.415   4.385  0.3413 -0.3307 -0.3562
  533TIP3    H123090   4.154   4.377   4.304  0.5445 -1.4575  0.0775
  533TIP3    H223091   4.216   4.339   4.436 -0.0048  0.3625  0.8656
  534TIP3   OH223092   6.377   2.393  16.141  0.1728  0.2132  0.2338
  534TIP3    H123093   6.299   2.378  16.088  0.5231  3.0418 -1.1990
  534TIP3    H223094   6.379   2.488  16.154  1.5557 -0.1555  3.0955
  535TIP3   OH223095   6.392   3.754   5.357  0.2632  0.1415 -0.0304
  535TIP3    H123096   6.474   3.749   5.406  0.8569 -2.2409 -1.1739
  535TIP3    H223097   6.324   3.751   5.424  1.0825 -0.9376  0.7784
  536TIP3   OH223098   2.880   6.029  15.944 -0.2956  0.3643  0.2378
  536TIP3    H123099   2.875   6.112  15.992  0.8908  0.6352 -0.0917
  536TIP3    H223100   2.859   5.962  16.010  0.0958  0.8261  0.8472
  537TIP3   OH223101   4.005   2.743   3.578  0.7743  0.4274  0.7210
  537TIP3    H123102   3.988   2.680   3.648  0.9561 -0.9582 -0.4514
  537TIP3    H223103   3.934   2.728   3.515  1.1421  0.9999  0.1631
  538TIP3   OH223104   1.330   5.340   2.823 -0.4390 -0.4583 -0.0932
  538TIP3    H123105   1.258   5.305   2.875  0.6714 -0.8125  1.2458
  538TIP3    H223106   1.352   5.270   2.762 -1.3969 -0.2432 -0.6925
  539TIP3   OH223107   4.368   3.520  16.127  0.3919  0.2757  0.2746
  539TIP3    H123108   4.391   3.551  16.214 -0.2901  1.6020 -0.0039
  539TIP3    H223109   4.441   3.463  16.101  1.0625  0.6610  1.3082
  540TIP3   OH223110   2.492   5.597  10.721  0.6649 -0.1140 -0.1912
  540TIP3    H123111   2.538   5.598  10.806  0.4947 -0.0655 -0.0997
  540TIP3    H223112   2.546   5.540  10.666 -0.1290 -1.5377  0.4588
  541TIP3   OH223113   1.253   1.649   2.097  0.4789  0.5029 -0.4117
  541TIP3    H123114   1.301   1.570   2.074 -0.3545 -0.2282  0.3493
  541TIP3    H223115   1.288   1.716   2.038  1.8780 -0.1940 -0.3791
  542TIP3   OH223116   4.234   0.746  17.236 -0.0791 -0.0371 -0.1898
  542TIP3    H123117   4.281   0.810  17.289 -0.1600  0.5511 -0.8293
  542TIP3    H223118   4.299   0.679  17.216  0.2739  0.3610 -0.3765
  543TIP3   OH223119   4.528   6.004   4.842 -0.3705 -0.0114  0.4324
  543TIP3    H123120   4.576   5.929   4.808 -0.4553  0.6353 -1.1663
  543TIP3    H223121   4.436   5.980   4.829 -0.3913  1.1083 -1.8505
  544TIP3   OH223122   6.701   4.654  16.193 -0.0522 -0.2512  0.1939
  544TIP3    H123123   6.757   4.612  16.259 -0.1654 -0.9045 -0.1220
  544TIP3    H223124   6.689   4.587  16.126  2.2318  1.2728 -1.8129
  545TIP3   OH223125   2.063   0.923   2.879 -0.0886 -0.5485  0.1239
  545TIP3    H123126   2.012   0.888   2.806  0.8760 -1.6402 -0.0439
  545TIP3    H223127   2.151   0.936   2.843  0.0578  0.2034  0.7311
  546TIP3   OH223128   5.356   0.780   4.665 -0.3251  0.1833  0.1841
  546TIP3    H123129   5.319   0.847   4.722 -1.6184  0.6347 -1.1640
  546TIP3    H223130   5.283   0.720   4.647  0.0642  0.0386 -0.9864
  547TIP3   OH223131   3.398   5.197   2.536 -0.2006  0.0495  0.6496
  547TIP3    H123132   3.355   5.256   2.597  3.2698  3.2330  0.2249
  547TIP3    H223133   3.431   5.126   2.590 -0.5580  0.8101  1.8865
  548TIP3   OH223134   2.571   0.881  11.349 -0.0328 -0.3651 -0.3196
  548TIP3    H123135   2.516   0.839  11.283  0.2615 -1.5245  0.1547
  548TIP3    H223136   2.550   0.974  11.342 -0.8281 -0.6060 -1.2738
  549TIP3   OH223137   1.902   3.594  12.903  0.3580  1.0267  0.2676
  549TIP3    H123138   1.993   3.571  12.925  1.0003  3.5709  0.4004
  549TIP3    H223139   1.868   3.635  12.982 -1.2129 -0.6506  0.4980
  550TIP3   OH223140   3.924   5.558   6.140 -0.1150  0.5118 -0.0799
  550TIP3    H123141   3.858   5.504   6.185  0.4353  0.2223  0.3865
  550TIP3    H223142   3.943   5.628   6.202  1.3928 -0.4521  0.5695
  551TIP3   OH223143   6.417   5.134   6.345  0.3282  0.0315 -0.0495
  551TIP3    H123144   6.466   5.216   6.348  1.4360 -0.6403  0.4972
  551TIP3    H223145   6.444   5.086   6.423 -0.9497 -0.5092  0.0838
  552TIP3   OH223146   4.966   1.800   3.700  0.0438  0.2970  0.1847
  552TIP3    H123147   4.975   1.887   3.737  0.7055  1.0968 -1.8106
  552TIP3    H223148   4.903   1.811   3.628 -0.4107 -1.0062  0.3669
  553TIP3   OH223149   2.855   2.952  15.224 -0.3347 -0.3159  0.0370
  553TIP3    H123150   2.877   2.868  15.266 -1.5397 -1.8816 -2.3498
  553TIP3    H223151   2.939   2.996  15.212  0.8426 -3.1997 -2.7857
  554TIP3   OH223152   0.374   0.033  13.415  0.1738  0.2194  0.6701
  554TIP3    H123153   0.446  -0.021  13.448  0.6040  0.7946  0.6765
  554TIP3    H223154   0.298  -0.025  13.417  1.0587 -1.0807 -1.3776
  555TIP3   OH223155   0.230   0.575   1.187  0.0622 -0.0232  0.2901
  555TIP3    H123156   0.145   0.563   1.229 -0.0406  1.7963  0.6515
  555TIP3    H223157   0.242   0.670   1.184  1.6559 -0.2350 -0.6174
  556TIP3   OH223158   4.166   1.470   0.245  0.2501  0.8408  0.4907
  556TIP3    H123159   4.237   1.470   0.181  1.2728 -0.0900  1.6155
  556TIP3    H223160   4.086   1.464   0.192  1.0874  0.0155 -0.6980
  557TIP3   OH223161   0.915   3.263  17.109 -0.1360 -0.1846  0.6099
  557TIP3    H123162   0.821   3.277  17.121 -0.0015  0.1830  1.2959
  557TIP3    H223163   0.955   3.323  17.172  0.5490 -0.5939  0.5569
  558TIP3   OH223164   2.528   4.562   2.792  0.3014 -0.0823  0.2280
  558TIP3    H123165   2.559   4.526   2.875  1.1179  0.7699  0.2925
  558TIP3    H223166   2.607   4.569   2.738 -0.2656 -0.9208 -0.7387
  559TIP3   OH223167   5.380   1.680   2.391  0.1263  0.1040 -0.0487
  559TIP3    H123168   5.456   1.735   2.408  1.8837 -2.3564  0.2721
  559TIP3    H223169   5.377   1.620   2.466 -1.9062 -0.1103 -0.2615
  560TIP3   OH223170   5.945   0.785  13.913 -0.4009 -0.1602  0.5389
  560TIP3    H123171   6.034   0.760  13.938 -1.1696 -1.6843  1.8431
  560TIP3    H223172   5.898   0.791  13.996 -1.7093 -0.1300 -0.2053
  561TIP3   OH223173   6.409   4.040   1.530 -0.4694 -0.0378 -0.2025
  561TIP3    H123174   6.456   4.067   1.450 -0.3956 -3.4508 -1.3914
  561TIP3    H223175   6.321   4.020   1.500 -1.4968  2.1003  1.2701
  562TIP3   OH223176   3.359   3.794  13.616 -0.2334  0.5066  0.6495
  562TIP3    H123177   3.400   3.785  13.530 -0.1179 -1.1190  0.8576
  562TIP3    H223178   3.305   3.872  13.609  0.7163  1.0762 -0.5154
  563TIP3   OH223179   4.349   2.847  12.072  0.8328  0.0800  0.2574
  563TIP3    H123180   4.329   2.832  12.164  0.1153 -0.7925 -0.0236
  563TIP3    H223181   4.277   2.804  12.025  1.8988 -0.6623 -0.7348
  564TIP3   OH223182   4.052   5.059  13.892 -0.3210 -0.3337 -0.5227
  564TIP3    H123183   4.088   4.980  13.932 -1.3123 -0.7858 -0.4918
  564TIP3    H223184   4.009   5.105  13.964 -0.0915  0.0328 -0.6185
  565TIP3   OH223185   1.222   0.743   4.473 -0.0852  0.3535  0.7652
  565TIP3    H123186   1.265   0.692   4.541 -1.8087 -2.4706 -0.1944
  565TIP3    H223187   1.243   0.698   4.391 -1.6990  1.1174 -0.1021
  566TIP3   OH223188   0.093   6.211  11.353  0.0302 -0.3425 -0.0919
  566TIP3    H123189   0.041   6.193  11.432  0.4049  2.1828  0.7970
  566TIP3    H223190   0.046   6.282  11.309  1.0527 -0.1566 -0.9089
  567TIP3   OH223191   1.224   5.325   3.633 -0.1596 -0.6158  0.5089
  567TIP3    H123192   1.272   5.311   3.715  0.7696 -1.6356 -0.1799
  567TIP3    H223193   1.143   5.276   3.644 -0.1019 -0.6247  0.8902
  568TIP3   OH223194   0.156   0.093   3.567 -0.6029 -0.7780  0.0451
  568TIP3    H123195   0.237   0.088   3.619 -2.0096  0.9779  2.4990
  568TIP3    H223196   0.186   0.088   3.476  2.4250  1.1806  0.8596
  569TIP3   OH223197   0.195   4.247   4.898 -0.6912  0.3171 -0.2362
  569TIP3    H123198   0.130   4.254   4.828  1.2136  1.5031 -1.9555
  569TIP3    H223199   0.143   4.244   4.979 -2.8642  1.7267 -1.5132
  570TIP3   OH223200   1.838   6.464   1.892 -0.4436 -0.1113 -0.1798
  570TIP3    H123201   1.788   6.545   1.900  0.0845  0.3687 -1.6223
  570TIP3    H223202   1.918   6.480   1.942  0.3916  0.8768 -1.7841
  571TIP3   OH223203   4.328   5.023   5.675  0.1744  0.4890 -0.2340
  571TIP3    H123204   4.345   5.114   5.648  0.5668  0.5820  0.3219
  571TIP3    H223205   4.374   5.014   5.758 -0.9971  0.1863  0.3813
  572TIP3   OH223206   1.837   3.796  10.801 -0.2445 -0.2505  0.0586
  572TIP3    H123207   1.860   3.765  10.714 -0.0837  1.2499 -0.4506
  572TIP3    H223208   1.919   3.829  10.837 -0.6188  0.5659  0.1711
  573TIP3   OH223209   3.335   1.702  11.719  0.1670  0.4567 -0.4603
  573TIP3    H123210   3.369   1.747  11.641  2.4102 -1.0723 -0.4479
  573TIP3    H223211   3.412   1.692  11.776 -1.2374  0.6436  1.5054
  574TIP3   OH223212   6.202   4.253   2.371  0.2127  0.0785  0.6113
  574TIP3    H123213   6.227   4.313   2.301 -0.4401  1.9716  1.9571
  574TIP3    H223214   6.255   4.281   2.446  0.0710 -1.1923  1.2011
  575TIP3   OH223215   4.475   6.797  16.166  0.2687  0.2251 -0.3828
  575TIP3    H123216   4.429   6.864  16.216 -0.6329  0.4406 -1.4852
  575TIP3    H223217   4.435   6.799  16.079  0.1737 -1.8010 -0.4140
  576TIP3   OH223218   3.405   1.522  11.052 -0.0338  0.3584  0.1117
  576TIP3    H123219   3.345   1.565  10.992 -2.8996  0.1823  2.7572
  576TIP3    H223220   3.391   1.428  11.038 -0.6980  0.3176  1.0511
  577TIP3   OH223221   1.445   1.144  13.923  0.0539 -0.2471 -0.2820
  577TIP3    H123222   1.487   1.220  13.884  1.8994 -1.5873 -0.9732
  577TIP3    H223223   1.388   1.110  13.854 -2.6222  1.8042  0.7844
  578TIP3   OH223224   0.212   4.362  12.768 -0.1319 -0.3443  0.3610
  578TIP3    H123225   0.172   4.288  12.814  0.0518 -0.4084  0.4190
  578TIP3    H223226   0.228   4.427  12.837 -1.5313  0.3003  0.1023
  579TIP3   OH223227   3.360   5.789   5.164  0.2193 -0.9579 -0.7968
  579TIP3    H123228   3.412   5.710   5.153  1.0322 -0.3889 -1.0735
  579TIP3    H223229   3.420   5.861   5.145 -0.5376 -0.2734 -0.6554
  580TIP3   OH223230   2.357   5.202   0.113 -0.2706  0.2283 -0.1136
  580TIP3    H123231   2.393   5.200   0.024  0.5036  1.0391  0.1718
  580TIP3    H223232   2.433   5.197   0.170 -0.6767  0.9893  0.5025
  581TIP3   OH223233   4.926   0.317  11.148  0.0618 -0.2951 -0.5304
  581TIP3    H123234   4.866   0.364  11.090  0.3664 -0.8160 -1.2775
  581TIP3    H223235   4.972   0.256  11.090  1.7302  0.4972 -0.0618
  582TIP3   OH223236   1.769   6.551  14.005 -0.6555  0.7312 -0.6904
  582TIP3    H123237   1.746   6.478  13.948 -1.5420  0.1019  0.4514
  582TIP3    H223238   1.851   6.525  14.047 -0.9220  0.4268 -0.3553
  583TIP3   OH223239   2.832   2.988  14.059 -0.2577 -0.5976 -0.4213
  583TIP3    H123240   2.762   3.046  14.089  1.0899  1.0668 -0.4169
  583TIP3    H223241   2.803   2.901  14.084 -0.0676  0.4973  4.1669
  584TIP3   OH223242   6.623   0.308   4.442  0.0394  0.2296  0.2575
  584TIP3    H123243   6.634   0.242   4.511 -3.1517  0.2334  0.8303
  584TIP3    H223244   6.661   0.268   4.364 -1.4785 -2.1725  0.6858
  585TIP3   OH223245   2.226   2.435  13.314  0.2491 -0.4084  0.1421
  585TIP3    H123246   2.150   2.379  13.326 -0.0030 -0.2827 -0.8055
  585TIP3    H223247   2.192   2.511  13.265  0.7678  0.1389  0.6200
  586TIP3   OH223248   5.608   4.880  13.374  0.4967  0.8972 -0.5047
  586TIP3    H123249   5.544   4.811  13.392  0.3539  0.9792 -0.6958
  586TIP3    H223250   5.615   4.882  13.279 -0.1241  1.7215 -0.5268
  587TIP3   OH223251   1.410   2.076  13.532  0.0181 -0.3622  0.1881
  587TIP3    H123252   1.381   2.020  13.460  0.0453 -0.2298  0.0747
  587TIP3    H223253   1.505   2.064  13.535  0.0761  0.0138 -0.1199
  588TIP3   OH223254   5.942   2.564  16.506 -0.3543  0.8525  0.0560
  588TIP3    H123255   5.900   2.640  16.546 -2.2606 -0.2125  0.1277
  588TIP3    H223256   5.991   2.600  16.431 -1.6966  2.0770 -0.2547
  589TIP3   OH223257   2.612   3.825   1.362 -0.0461  0.5043  0.1698
  589TIP3    H123258   2.544   3.764   1.392  0.2821  0.0828  0.0606
  589TIP3    H223259   2.667   3.839   1.439  0.7136 -0.4674 -0.1839
  590TIP3   OH223260   3.091   1.120  15.110  0.2662  0.1216  0.3293
  590TIP3    H123261   3.042   1.118  15.028  0.3275  0.8147  0.2765
  590TIP3    H223262   3.030   1.154  15.175  0.7309  1.1679  0.2255
  591TIP3   OH223263   1.641   4.825   2.068 -0.4847  0.1768 -0.5011
  591TIP3    H123264   1.617   4.869   1.986  1.6006 -1.2339 -1.9261
  591TIP3    H223265   1.724   4.865   2.094  0.0347 -0.9666 -0.3462
  592TIP3   OH223266   2.063   3.773   3.932  0.4846  0.0288 -1.0446
  592TIP3    H123267   2.106   3.691   3.910 -0.5037 -0.9818  0.6058
  592TIP3    H223268   2.117   3.811   4.002  0.7463  0.6079 -1.5593
  593TIP3   OH223269   1.556   3.111  13.780 -0.3502  0.1437  0.3501
  593TIP3    H123270   1.557   3.042  13.847  0.2670  0.5322  0.7402
  593TIP3    H223271   1.643   3.149  13.783 -0.9337  1.4851  0.6878
  594TIP3   OH223272   0.740   0.236  12.873  0.0810 -0.1281 -0.2820
  594TIP3    H123273   0.767   0.215  12.784  1.3649  0.8174 -0.1262
  594TIP3    H223274   0.650   0.268  12.863  0.1321 -0.2545 -1.2130
  595TIP3   OH223275   4.187   5.653   2.285 -0.2608 -0.2346 -0.2431
  595TIP3    H123276   4.157   5.599   2.358  1.3355  1.0263  1.3900
  595TIP3    H223277   4.283   5.651   2.292 -0.1492  1.3810 -1.1990
  596TIP3   OH223278   1.248   2.694  12.064  0.0182 -0.3790  0.2722
  596TIP3    H123279   1.256   2.610  12.019  1.2623  0.6899 -1.5894
  596TIP3    H223280   1.330   2.702  12.114  0.4591  0.2713 -0.5423
  597TIP3   OH223281   5.455   2.743  11.080  0.5518  0.2494 -0.0012
  597TIP3    H123282   5.409   2.781  11.005  1.5674 -1.7294 -1.6823
  597TIP3    H223283   5.444   2.649  11.070  4.0797 -0.2395  0.0915
  598TIP3   OH223284   2.161   4.723   5.293 -0.1855  0.2112  0.5533
  598TIP3    H123285   2.082   4.678   5.263  0.4201 -1.2625  1.0973
  598TIP3    H223286   2.185   4.781   5.222 -1.4434  0.2459  0.1495
  599TIP3   OH223287   6.038   1.409   1.908  0.1809  0.2111 -0.1441
  599TIP3    H123288   6.066   1.474   1.844  0.8378 -0.8301 -0.9293
  599TIP3    H223289   6.101   1.417   1.979  1.4637 -0.9179 -1.1276
  600TIP3   OH223290   0.460   6.676   2.784 -0.1969  0.1535 -0.1647
  600TIP3    H123291   0.395   6.728   2.739  0.1866  0.2661 -0.5926
  600TIP3    H223292   0.420   6.653   2.868 -0.4131  1.0236 -0.0324
  601TIP3   OH223293   0.282   6.229  11.625 -0.0192  0.6976 -0.5862
  601TIP3    H123294   0.340   6.304  11.609  1.8069 -0.8311 -1.2184
  601TIP3    H223295   0.196   6.269  11.641  1.2057  3.0141  0.5215
  602TIP3   OH223296   2.114   2.432   5.972  0.1944  0.0079  0.1065
  602TIP3    H123297   2.095   2.425   6.066 -1.8951 -0.1283 -0.3181
  602TIP3    H223298   2.086   2.349   5.936  0.8259  0.1370 -0.6952
  603TIP3   OH223299   5.330   2.695  14.767 -0.5290  0.2313  0.0408
  603TIP3    H123300   5.328   2.612  14.814 -1.0461  0.0220 -0.3539
  603TIP3    H223301   5.244   2.734  14.782 -0.4514  0.4824 -0.1553
  604TIP3   OH223302   6.643   4.754   6.779 -0.3941  0.1113  0.6909
  604TIP3    H123303   6.664   4.684   6.717 -0.8526  0.7003 -0.1413
  604TIP3    H223304   6.686   4.728   6.860  1.9189  0.3313 -0.4281
  605TIP3   OH223305   5.362   2.412   3.007  0.0204  1.0226 -0.6585
  605TIP3    H123306   5.367   2.469   3.083  1.4052  0.5072 -0.3514
  605TIP3    H223307   5.270   2.386   3.002  0.2074 -0.2510  1.8227
  606TIP3   OH223308   4.708   5.835   2.688 -0.2654  0.3413 -0.3371
  606TIP3    H123309   4.751   5.833   2.774 -0.4506 -0.0477 -0.2504
  606TIP3    H223310   4.746   5.910   2.643  0.8916 -0.3163 -0.4672
  607TIP3   OH223311   1.148   2.470  11.969 -0.6431 -0.1862  0.6444
  607TIP3    H123312   1.067   2.458  11.919 -1.3889  0.5737  1.6397
  607TIP3    H223313   1.207   2.403  11.935 -1.8636 -1.0969  0.2521
  608TIP3   OH223314   2.967   4.181   3.728 -0.4784  0.6070 -0.0253
  608TIP3    H123315   3.023   4.162   3.653  0.0746  1.2374  0.2229
  608TIP3    H223316   2.929   4.267   3.709 -3.5080 -0.9856 -1.4656
  609TIP3   OH223317   5.359   4.329   1.361 -0.0172 -0.0676  0.1719
  609TIP3    H123318   5.396   4.408   1.402  1.3165 -0.1891 -0.7828
  609TIP3    H223319   5.433   4.287   1.318 -1.3686  0.0196 -2.3324
  610TIP3   OH223320   4.392   1.106  16.863 -0.6955 -0.4913  0.3929
  610TIP3    H123321   4.444   1.183  16.841  0.1201 -1.2518 -0.4214
  610TIP3    H223322   4.437   1.066  16.937 -0.6825 -0.5928  0.3338
  611TIP3   OH223323   4.973   3.514  13.964  0.2883  0.2114  0.2008
  611TIP3    H123324   5.043   3.490  14.024  0.3614 -0.4180 -0.1272
  611TIP3    H223325   5.015   3.572  13.901 -0.1375  2.1037  1.6248
  612TIP3   OH223326   5.110   1.882  11.481  0.1303  0.0329 -0.3431
  612TIP3    H123327   5.131   1.974  11.496  0.6234 -0.0440 -0.5359
  612TIP3    H223328   5.185   1.848  11.432 -0.4287 -0.2722 -0.9889
  613TIP3   OH223329   0.299   1.008   4.477 -0.7012  0.2363 -0.2493
  613TIP3    H123330   0.368   0.942   4.489 -1.0464  0.2908  2.4313
  613TIP3    H223331   0.342   1.091   4.498 -1.5814  0.2401  1.7047
  614TIP3   OH223332   2.616   1.455   1.787  0.5400  0.2477  0.3752
  614TIP3    H123333   2.603   1.544   1.754  0.3980  0.3923  0.8122
  614TIP3    H223334   2.654   1.468   1.874  3.3858 -0.1460 -0.7498
  615TIP3   OH223335   1.087   6.000   4.386  0.5221  0.0129 -0.5510
  615TIP3    H123336   1.026   5.936   4.350  0.5593  0.1887 -0.9320
  615TIP3    H223337   1.065   6.082   4.342 -0.3993  0.5582  0.8946
  616TIP3   OH223338   2.479   0.552  16.156 -0.2562 -0.3067  0.5825
  616TIP3    H123339   2.419   0.497  16.106  1.3339 -0.3183 -1.4136
  616TIP3    H223340   2.521   0.492  16.218 -1.6678 -0.4497  1.4287
  617TIP3   OH223341   1.492   1.977  12.151 -0.1640 -0.4733 -0.3072
  617TIP3    H123342   1.401   1.983  12.181 -0.0819  1.1083 -0.2877
  617TIP3    H223343   1.542   1.959  12.230 -0.4268 -1.0399 -0.2679
  618TIP3   OH223344   4.667   3.348   4.649  0.1827  0.5399  0.2062
  618TIP3    H123345   4.726   3.277   4.621 -2.4546 -1.3058 -0.9116
  618TIP3    H223346   4.612   3.308   4.717 -2.1655  1.1004 -1.3022
  619TIP3   OH223347   1.942   4.346  17.095  0.1732 -0.2046  0.0115
  619TIP3    H123348   1.960   4.437  17.070 -0.4952  0.1532  0.7797
  619TIP3    H223349   1.856   4.351  17.138  0.4758 -1.0852  0.7157
  620TIP3   OH223350   6.546   4.470  12.685 -0.0401  0.2511  0.5236
  620TIP3    H123351   6.523   4.420  12.607  1.4958  0.3297  0.0177
  620TIP3    H223352   6.630   4.510  12.665  0.5120  0.0492  2.3318
  621TIP3   OH223353   4.540   4.212  16.846 -0.4143  0.0446 -0.0497
  621TIP3    H123354   4.471   4.158  16.887 -0.7406  1.0795  0.7981
  621TIP3    H223355   4.494   4.261  16.778 -0.4268  0.3762  0.1954
  622TIP3   OH223356   5.112   0.396  16.419 -0.5122 -0.7010 -0.0179
  622TIP3    H123357   5.149   0.433  16.500  2.0240 -0.2002 -1.3421
  622TIP3    H223358   5.134   0.461  16.352 -1.9668 -1.4521 -1.2342
  623TIP3   OH223359   1.547   5.701  11.167 -0.2952 -0.3847 -0.8059
  623TIP3    H123360   1.585   5.667  11.248  0.1391  1.4972 -0.1814
  623TIP3    H223361   1.466   5.651  11.155 -1.5702  0.8663  2.0613
  624TIP3   OH223362   3.432   2.376   4.176  0.0196 -0.6340 -0.0064
  624TIP3    H123363   3.340   2.399   4.163 -0.2032 -0.4373  1.7892
  624TIP3    H223364   3.432   2.280   4.183 -0.0740 -0.6211  0.1700
  625TIP3   OH223365   4.834   2.174  12.776 -0.2434  0.3642 -0.0478
  625TIP3    H123366   4.794   2.259  12.757  2.6349  1.6827 -0.4685
  625TIP3    H223367   4.814   2.158  12.868 -0.2660  1.8129  0.2057
  626TIP3   OH223368   0.474   5.198   2.254 -0.4495 -0.4428  0.0499
  626TIP3    H123369   0.542   5.145   2.296  1.8800  2.0026 -0.5395
  626TIP3    H223370   0.448   5.146   2.178  0.8015 -1.3483  0.2186
  627TIP3   OH223371   6.798   0.790  17.283  0.3665  0.2843 -0.2199
  627TIP3    H123372   6.708   0.765  17.262  0.5187 -0.7163  0.2765
  627TIP3    H223373   6.837   0.813  17.198 -0.6189  1.6409 -0.3214
  628TIP3   OH223374   6.618   2.903   4.381  0.2577 -0.1150  0.2323
  628TIP3    H123375   6.621   2.807   4.376  0.5941 -0.1656  1.3140
  628TIP3    H223376   6.710   2.930   4.382  0.1916  0.1001  1.8853
  629TIP3   OH223377   2.410   5.741  13.661  0.4255 -0.4802 -0.9033
  629TIP3    H123378   2.342   5.809  13.660  0.2024 -0.5776  1.7706
  629TIP3    H223379   2.363   5.662  13.689  1.6769 -0.4601  1.3792
  630TIP3   OH223380   5.666   5.872  12.549  0.3101  0.0856  0.1004
  630TIP3    H123381   5.623   5.950  12.513  1.1132  0.6211  0.2933
  630TIP3    H223382   5.595   5.821  12.587 -0.2402  0.6622 -0.1401
  631TIP3   OH223383   4.694   6.750  11.446 -0.2576  0.4887  0.2032
  631TIP3    H123384   4.759   6.817  11.468  0.9005  0.1902 -2.0683
  631TIP3    H223385   4.730   6.708  11.367 -0.2810 -3.6842  2.2602
  632TIP3   OH223386   1.103   6.701   1.394 -0.3088  0.0180  0.0507
  632TIP3    H123387   1.158   6.644   1.447  0.4326  1.4940  0.9026
  632TIP3    H223388   1.130   6.685   1.304 -1.2455 -2.1572  0.1285
  633TIP3   OH223389   2.245   6.278  12.394  0.1434 -1.0807  0.1711
  633TIP3    H123390   2.292   6.272  12.311 -1.2242 -0.8307 -0.6403
  633TIP3    H223391   2.212   6.189  12.408  0.6965 -1.2140  0.6530
  634TIP3   OH223392   1.253   0.126  12.333  0.0681 -0.0756  0.0292
  634TIP3    H123393   1.255   0.199  12.395  0.3959 -0.9883  1.0897
  634TIP3    H223394   1.247   0.169  12.247  0.6570  1.2108  0.6147
  635TIP3   OH223395   0.907   3.749  15.824 -0.4285 -0.1228  0.3503
  635TIP3    H123396   0.932   3.675  15.769  0.3515  2.1618 -2.4840
  635TIP3    H223397   0.975   3.753  15.891  0.3810 -1.0426 -0.3883
  636TIP3   OH223398   5.695   1.363   4.952 -0.3961 -0.0889 -0.3284
  636TIP3    H123399   5.721   1.387   5.041 -1.8089 -0.3819  0.1849
  636TIP3    H223400   5.707   1.268   4.948 -1.3847 -0.2390 -0.0619
  637TIP3   OH223401   1.056   6.729  12.362 -0.2121 -0.0206 -0.3345
  637TIP3    H123402   1.127   6.788  12.339  0.2492  0.1429  1.4270
  637TIP3    H223403   1.044   6.742  12.456 -2.7333  0.1318 -0.6374
  638TIP3   OH223404   2.182   1.710   3.249 -0.0170 -0.1341 -0.5941
  638TIP3    H123405   2.241   1.637   3.269  1.4049  0.7098 -1.5740
  638TIP3    H223406   2.227   1.787   3.286  0.3385  0.7671 -2.8496
  639TIP3   OH223407   6.513   0.489  14.639  0.4080 -0.2452 -0.2265
  639TIP3    H123408   6.468   0.419  14.592  0.0793  0.8591 -1.6178
  639TIP3    H223409   6.486   0.569  14.593  0.8301  0.7840  1.2754
  640TIP3   OH223410   2.093   6.178  15.240  0.7185 -0.4629  0.3010
  640TIP3    H123411   2.054   6.125  15.170  0.8586 -0.9857  0.6207
  640TIP3    H223412   2.021   6.192  15.302  0.3954  0.6227 -0.3021
  641TIP3   OH223413   5.899   1.832   3.086 -0.0340 -0.5220 -0.5070
  641TIP3    H123414   5.968   1.797   3.143 -0.3561 -0.7815 -0.2753
  641TIP3    H223415   5.834   1.762   3.081 -0.2710 -0.2860 -0.7436
  642TIP3   OH223416   4.056   3.940  15.816  0.3622  0.0709 -0.0704
  642TIP3    H123417   4.148   3.928  15.790  0.9395  2.5451  0.6131
  642TIP3    H223418   4.018   3.991  15.745 -0.0556  0.3804  0.3744
  643TIP3   OH223419   4.762   4.979   6.188 -0.0539 -0.5694  0.3404
  643TIP3    H123420   4.719   5.064   6.185  1.1757  0.0291 -1.2479
  643TIP3    H223421   4.852   4.998   6.213 -0.1825 -1.6110  1.7116
  644TIP3   OH223422   4.870   4.342   2.146 -0.1787  0.2895  0.3411
  644TIP3    H123423   4.817   4.397   2.205  0.0104  1.5204 -0.6192
  644TIP3    H223424   4.828   4.256   2.151 -0.4424  0.4826  1.9264
  645TIP3   OH223425   5.276   6.059  15.670  0.2704 -0.1549 -0.3057
  645TIP3    H123426   5.269   5.970  15.638  0.8849 -1.0540  1.9095
  645TIP3    H223427   5.187   6.093  15.668  0.2116 -0.3640 -2.3186
  646TIP3   OH223428   5.642   0.096   0.860  0.0807 -0.1211  0.3354
  646TIP3    H123429   5.678   0.035   0.925 -0.7307  0.5628  1.4407
  646TIP3    H223430   5.663   0.183   0.895  3.2105  0.2898 -2.3333
  647TIP3   OH223431   5.029   1.377   1.356 -0.0901  0.0261 -0.5981
  647TIP3    H123432   4.947   1.424   1.376 -0.0429 -0.4922  0.9131
  647TIP3    H223433   5.093   1.447   1.340 -0.1374  0.5127  1.1603
  648TIP3   OH223434   2.639   0.461  16.340 -0.2446 -0.4172 -0.3314
  648TIP3    H123435   2.661   0.507  16.422 -1.0259  2.4649 -1.6606
  648TIP3    H223436   2.712   0.481  16.281 -0.8918 -0.3385 -1.1183
  649TIP3   OH223437   3.136   2.167  15.743  0.7003  0.2866 -0.1713
  649TIP3    H123438   3.081   2.210  15.677  2.1712  0.2230 -1.4661
  649TIP3    H223439   3.224   2.173  15.708  1.8615  2.2892  2.8837
  650TIP3   OH223440   0.449   6.723   1.155  0.5402 -0.3258  0.5990
  650TIP3    H123441   0.412   6.675   1.229 -0.4625 -0.0960  0.2509
  650TIP3    H223442   0.473   6.655   1.091  0.3199 -0.4494  0.6475
  651TIP3   OH223443   4.100   1.473  16.360 -0.2690 -0.2139  0.0791
  651TIP3    H123444   4.149   1.420  16.297 -2.6035 -1.4337 -0.7752
  651TIP3    H223445   4.129   1.441  16.446  0.3265 -1.0100 -0.4100
  652TIP3   OH223446   2.222   1.176   2.087 -0.2501  0.3160 -0.4133
  652TIP3    H123447   2.190   1.142   2.003 -1.1765  0.3985 -0.0899
  652TIP3    H223448   2.211   1.271   2.081 -0.2674  0.3267 -0.2139
  653TIP3   OH223449   6.445   5.024  16.920 -0.0983 -0.8359  0.0496
  653TIP3    H123450   6.379   4.977  16.971  0.0625 -2.2083 -0.9835
  653TIP3    H223451   6.517   4.962  16.911  0.8594  0.2351  0.1579
  654TIP3   OH223452   0.543   1.256   5.700  0.4086 -0.4070  0.0881
  654TIP3    H123453   0.470   1.246   5.761  1.4907 -0.0685  1.4545
  654TIP3    H223454   0.617   1.281   5.755  1.4124 -0.1408 -1.3615
  655TIP3   OH223455   5.845   2.782   6.311 -0.4289  0.4664  0.1347
  655TIP3    H123456   5.782   2.800   6.381  0.7563 -0.1722  1.4040
  655TIP3    H223457   5.792   2.749   6.239 -1.6704  1.0428  0.7738
  656TIP3   OH223458   1.299   3.024  11.536  0.2166 -0.2693  0.1879
  656TIP3    H123459   1.260   2.937  11.537  0.6009 -0.5123 -1.8883
  656TIP3    H223460   1.264   3.064  11.456  2.3629  0.3508 -0.4739
  657TIP3   OH223461   5.063   2.785   2.466  0.3626  0.3712  0.5787
  657TIP3    H123462   5.085   2.859   2.523  1.9515  0.3136  0.0781
  657TIP3    H223463   5.106   2.710   2.507 -1.7172 -0.4112  1.3964
  658TIP3   OH223464   3.514   4.237   5.867 -0.8060  0.0746  0.2868
  658TIP3    H123465   3.562   4.249   5.949  1.2472  0.8623 -0.9817
  658TIP3    H223466   3.481   4.325   5.846  1.4335  0.5841 -1.3348
  659TIP3   OH223467   6.385   3.431   1.016 -0.6973 -0.2287 -0.3138
  659TIP3    H123468   6.302   3.390   1.040 -0.4466 -0.7877 -0.3980
  659TIP3    H223469   6.406   3.488   1.090 -1.9299  1.1017 -0.9615
  660TIP3   OH223470   2.026   6.198  16.653  0.2529 -0.1902  0.4033
  660TIP3    H123471   2.081   6.276  16.657  0.2420 -0.2137  1.1396
  660TIP3    H223472   1.938   6.231  16.637  0.4001 -0.1187 -0.2667
  661TIP3   OH223473   4.633   3.564  15.836  0.1103  0.1952  0.0250
  661TIP3    H123474   4.666   3.640  15.885 -1.4061  0.4599  0.6556
  661TIP3    H223475   4.547   3.592  15.804 -0.1798 -1.0419 -0.2859
  662TIP3   OH223476   1.782   4.432  12.726  0.0453 -0.1376  0.0583
  662TIP3    H123477   1.876   4.445  12.727 -0.0345  0.4655 -0.2217
  662TIP3    H223478   1.771   4.336  12.726  0.6681 -0.2163 -1.2796
  663TIP3   OH223479   3.318   1.277  14.537  0.1297 -0.5619  0.3692
  663TIP3    H123480   3.299   1.277  14.443 -0.0323 -1.5777  0.3969
  663TIP3    H223481   3.232   1.268  14.579  0.0995  0.9024  0.6476
  664TIP3   OH223482   1.760   2.500   1.391  1.0152 -0.5246 -0.5192
  664TIP3    H123483   1.854   2.508   1.378  0.7491  3.6401 -0.3204
  664TIP3    H223484   1.722   2.519   1.305  0.2466  0.3822  0.0211
  665TIP3   OH223485   1.016   0.056  16.638  0.3091 -0.3775 -0.1487
  665TIP3    H123486   0.967   0.134  16.665  0.5519 -0.8505  1.6610
  665TIP3    H223487   1.099   0.062  16.684  1.1054 -0.7314 -1.5086
  666TIP3   OH223488   3.965   5.938  16.917 -0.2907  0.1011  0.1849
  666TIP3    H123489   3.876   5.970  16.930 -0.4921 -0.6647  0.7042
  666TIP3    H223490   4.018   5.985  16.982 -0.5532 -0.4724  0.8176
  667TIP3   OH223491   3.709   2.970  15.217  0.2023  0.0212  0.1116
  667TIP3    H123492   3.619   3.004  15.215  0.0823 -0.3027 -0.0763
  667TIP3    H223493   3.712   2.906  15.146  0.0681 -1.2460  1.2153
  668TIP3   OH223494   0.330   4.676  14.557  0.0081 -0.0863  0.0597
  668TIP3    H123495   0.330   4.604  14.493  3.6303 -1.8717  1.8734
  668TIP3    H223496   0.409   4.726  14.535  0.3140  0.3025  1.9628
  669TIP3   OH223497   3.154   5.920   5.852 -0.2221 -0.1391 -0.1025
  669TIP3    H123498   3.240   5.958   5.831  0.4526 -2.4478 -1.7421
  669TIP3    H223499   3.149   5.925   5.948  1.2493  1.0484 -0.0621
  670TIP3   OH223500   1.256   4.946   5.858 -0.0522  0.1219  0.4022
  670TIP3    H123501   1.270   4.979   5.769  0.0853  1.1065  0.7831
  670TIP3    H223502   1.166   4.970   5.879  0.1252  0.4813  0.7700
  671TIP3   OH223503   1.252   6.118   6.107 -0.3654 -0.3434  0.0295
  671TIP3    H123504   1.262   6.196   6.161 -2.1879  0.6196 -0.9937
  671TIP3    H223505   1.223   6.050   6.169  1.2282 -0.2413  0.9158
  672TIP3   OH223506   3.052   4.693   6.203 -0.4720 -0.8000  0.2482
  672TIP3    H123507   3.047   4.621   6.267  0.9095 -0.9507  0.2134
  672TIP3    H223508   3.071   4.770   6.256  0.9949 -0.9816 -0.0058
  673TIP3   OH223509   4.527   3.303   0.978 -0.2530 -0.8985  0.4214
  673TIP3    H123510   4.466   3.244   0.934  0.0918 -0.6755 -0.3609
  673TIP3    H223511   4.599   3.313   0.916  0.2642 -0.6270  1.0631
  674TIP3   OH223512   4.695   6.419   2.033  0.2181  0.9402  0.4097
  674TIP3    H123513   4.755   6.488   2.060  0.9750  0.5446 -0.2638
  674TIP3    H223514   4.639   6.406   2.110 -0.6191  3.0083  0.2019
  675TIP3   OH223515   4.781   5.492  16.706  0.4363 -0.1568  0.3716
  675TIP3    H123516   4.822   5.406  16.694 -1.1699 -0.8688 -0.0584
  675TIP3    H223517   4.754   5.518  16.618 -0.4644  0.1000  0.7255
  676TIP3   OH223518   5.368   3.295  14.249 -0.2126 -0.3999  0.5971
  676TIP3    H123519   5.423   3.329  14.320  0.8521 -2.8133  0.9800
  676TIP3    H223520   5.284   3.340  14.260  0.7383  1.1436  1.8203
  677TIP3   OH223521   2.131   1.291  14.881 -0.5265 -0.0521 -0.1844
  677TIP3    H123522   2.120   1.248  14.796 -1.9903 -1.3619  0.6318
  677TIP3    H223523   2.226   1.298  14.892 -0.2564 -2.5666 -0.6330
  678TIP3   OH223524   2.438   6.771  11.187 -0.0144  0.5511 -0.0882
  678TIP3    H123525   2.346   6.776  11.215 -0.8172 -2.7854 -1.9486
  678TIP3    H223526   2.449   6.844  11.127 -1.9748 -0.1010 -1.2554
  679TIP3   OH223527   4.404   5.768  16.880  0.6180  0.9538  0.1368
  679TIP3    H123528   4.475   5.786  16.941  1.5402  0.4412 -0.7680
  679TIP3    H223529   4.368   5.683  16.908 -0.6115  1.9043  1.4932
  680TIP3   OH223530   2.637   5.781  15.162 -0.7498 -0.6116  0.0219
  680TIP3    H123531   2.633   5.849  15.229 -2.8442 -1.4769  0.8181
  680TIP3    H223532   2.648   5.700  15.212  0.5306 -0.9934 -0.8540
  681TIP3   OH223533   0.202   1.478   3.533  0.0387 -0.2675  0.4587
  681TIP3    H123534   0.270   1.524   3.484  0.9034 -2.4037 -0.3825
  681TIP3    H223535   0.243   1.457   3.617  0.4483 -1.5876 -0.0622
  682TIP3   OH223536   1.005   5.645  13.412 -0.0058  0.4474 -0.4039
  682TIP3    H123537   1.073   5.582  13.436  0.6195  1.0559 -0.5345
  682TIP3    H223538   1.011   5.713  13.480 -0.9958  0.1290  0.0127
  683TIP3   OH223539   5.988   1.514  16.077  0.7609  0.6759 -1.1150
  683TIP3    H123540   6.020   1.603  16.063  0.5027  0.9607  0.0418
  683TIP3    H223541   5.904   1.526  16.122  0.9237 -0.1561 -0.5852
  684TIP3   OH223542   2.898   3.130   1.164  0.2794  0.2275  0.1978
  684TIP3    H123543   2.970   3.191   1.181  0.3705  0.0654  0.3948
  684TIP3    H223544   2.842   3.176   1.103  0.3498  0.5098  0.3452
  685TIP3   OH223545   5.737   0.518   3.796 -0.1350 -0.4247  0.3330
  685TIP3    H123546   5.747   0.565   3.879  0.5388 -1.5273  0.8933
  685TIP3    H223547   5.659   0.465   3.808  1.4308 -2.6009  1.2857
  686TIP3   OH223548   2.563   6.516  11.204 -0.1873 -0.6006  0.5034
  686TIP3    H123549   2.532   6.606  11.201 -1.2397 -0.8973  1.9123
  686TIP3    H223550   2.484   6.463  11.191  0.7302 -1.3187 -2.4090
  687TIP3   OH223551   3.874   5.267   4.727  0.0395  0.0451 -0.5706
  687TIP3    H123552   3.824   5.187   4.707  0.7354 -1.0635  1.9816
  687TIP3    H223553   3.922   5.286   4.647 -0.4432 -1.8720 -1.3329
  688TIP3   OH223554   4.760   2.785   2.442  0.2037  0.0392  0.2446
  688TIP3    H123555   4.738   2.876   2.422 -0.0746  0.2289  1.4065
  688TIP3    H223556   4.833   2.790   2.503  1.5240 -0.5523 -1.2612
  689TIP3   OH223557   2.887   5.364   6.849  0.4611 -0.3691 -0.2286
  689TIP3    H123558   2.861   5.329   6.934 -2.7280 -0.2598 -1.0794
  689TIP3    H223559   2.887   5.288   6.791 -0.5296  0.0336 -0.7799
  690TIP3   OH223560   1.674   4.162  13.028 -0.5065  0.3111  0.4716
  690TIP3    H123561   1.615   4.093  12.998  0.3987 -0.9382  1.4812
  690TIP3    H223562   1.760   4.119  13.033  0.1831  1.6711  0.5703
  691TIP3   OH223563   0.647   4.115   1.974  0.6427 -0.3355  0.3053
  691TIP3    H123564   0.648   4.149   2.064 -0.2464 -0.5743  0.4041
  691TIP3    H223565   0.665   4.022   1.983  0.9143 -0.2952  0.2022
  692TIP3   OH223566   5.304   4.734   2.459 -0.2402  0.5510 -0.1814
  692TIP3    H123567   5.313   4.652   2.508 -0.3569 -0.0326 -1.1439
  692TIP3    H223568   5.216   4.766   2.481 -0.1753  0.4559  0.2276
  693TIP3   OH223569   2.293   4.447   0.534 -0.5578 -0.1240  0.1674
  693TIP3    H123570   2.281   4.513   0.466 -0.2910 -0.9701 -0.7015
  693TIP3    H223571   2.338   4.494   0.605  1.7521  0.0545 -1.3658
  694TIP3   OH223572   2.149   0.147  11.831 -0.1050 -0.2981  0.0585
  694TIP3    H123573   2.186   0.091  11.899 -0.2069  0.8968  1.1084
  694TIP3    H223574   2.224   0.179  11.782 -0.0094 -0.8564 -0.1711
  695TIP3   OH223575   3.698   1.255   3.338 -0.0707  0.3186 -0.3383
  695TIP3    H123576   3.779   1.214   3.369 -1.0607 -0.2099  1.6278
  695TIP3    H223577   3.631   1.188   3.350 -0.9410  1.0227 -1.2202
  696TIP3   OH223578   3.850   1.431   6.397 -0.3729  0.4194  0.0766
  696TIP3    H123579   3.926   1.411   6.343 -0.0262  0.4377  0.5585
  696TIP3    H223580   3.786   1.364   6.374 -0.6645  1.1481 -1.2442
  697TIP3   OH223581   5.710   1.720  16.856 -0.1450  0.0725  0.3516
  697TIP3    H123582   5.635   1.661  16.858 -0.0771 -0.0331 -0.1254
  697TIP3    H223583   5.674   1.804  16.828 -0.0029 -0.1054 -0.3702
  698TIP3   OH223584   2.758   5.988  12.223 -0.1384 -0.2667  0.5416
  698TIP3    H123585   2.673   5.958  12.257 -0.9047  1.6483  0.3704
  698TIP3    H223586   2.736   6.039  12.145  1.0891  0.9723  0.9800
  699TIP3   OH223587   4.342   1.025  12.999 -0.2530  0.6204  0.0397
  699TIP3    H123588   4.379   0.977  13.072 -0.0921  1.1679  0.3269
  699TIP3    H223589   4.414   1.030  12.935  0.5447  2.6219  1.0504
  700TIP3   OH223590   3.538   3.842  16.491 -0.2703  0.5321  0.3647
  700TIP3    H123591   3.452   3.799  16.492 -0.1013  0.1064 -1.6096
  700TIP3    H223592   3.548   3.875  16.402  0.2172  3.5095  1.4770
  701TIP3   OH223593   2.951   6.012  16.903 -0.3353 -0.1313  0.1752
  701TIP3    H123594   3.009   6.075  16.859  0.1366 -1.0668 -0.5429
  701TIP3    H223595   3.008   5.941  16.929 -0.8381 -0.1615  1.1985
  702TIP3   OH223596   2.406   2.734   4.157 -0.6476 -0.0773 -0.0263
  702TIP3    H123597   2.443   2.656   4.198  0.6039  0.9685  0.8868
  702TIP3    H223598   2.483   2.785   4.131 -1.4572  1.0918 -0.1459
  703TIP3   OH223599   5.425   5.348  12.968 -0.6292 -0.2343 -0.1452
  703TIP3    H123600   5.376   5.271  12.996 -0.5272 -0.2840 -0.1072
  703TIP3    H223601   5.451   5.329  12.878 -0.1942 -0.4412  0.0248
  704TIP3   OH223602   0.933   0.648  12.024 -0.2770  0.3666 -0.3123
  704TIP3    H123603   1.001   0.643  11.958 -0.2175 -1.0066 -0.1575
  704TIP3    H223604   0.854   0.617  11.980  0.0522 -1.9083  0.6235
  705TIP3   OH223605   5.935   6.064  14.336  0.0779  0.3969  0.2979
  705TIP3    H123606   6.027   6.042  14.318  0.6724  3.0332 -0.1605
  705TIP3    H223607   5.940   6.142  14.390 -1.9038 -1.0367  2.6355
  706TIP3   OH223608   6.738   3.987  14.398 -0.3389  0.5597  0.2829
  706TIP3    H123609   6.686   3.945  14.329  0.4998  0.9070 -0.5688
  706TIP3    H223610   6.812   3.927  14.412  0.1875  1.1225 -0.0503
  707TIP3   OH223611   4.583   3.996  12.098  0.4852  0.4221 -0.1906
  707TIP3    H123612   4.513   3.993  12.033  0.2236 -1.9396  0.1641
  707TIP3    H223613   4.655   3.946  12.058  0.2462 -1.2155  1.3929
  708TIP3   OH223614   4.167   6.264   1.217  0.3928 -0.4489  0.4245
  708TIP3    H123615   4.189   6.228   1.303  0.4237 -0.1984  0.5223
  708TIP3    H223616   4.163   6.358   1.232  1.8378 -0.2823 -0.1732
  709TIP3   OH223617   3.137   1.887  15.783 -0.0422  0.4765  0.5621
  709TIP3    H123618   3.113   1.976  15.760 -0.7274 -0.4641 -2.5403
  709TIP3    H223619   3.230   1.880  15.761 -0.2549  0.1194 -0.2485
  710TIP3   OH223620   4.631   2.006   3.322 -0.3765  0.0465  0.1253
  710TIP3    H123621   4.599   2.095   3.302 -0.3716  0.3353  1.3588
  710TIP3    H223622   4.715   2.000   3.277 -0.5761  0.5063 -0.3227
  711TIP3   OH223623   3.779   4.410   2.855  0.4010  0.2000 -0.3117
  711TIP3    H123624   3.812   4.467   2.923  1.5110 -1.1842  0.3407
  711TIP3    H223625   3.833   4.430   2.778 -1.0301  1.9524 -0.8932
  712TIP3   OH223626   0.007   1.619   1.973 -0.4454 -0.0088 -0.8291
  712TIP3    H123627  -0.049   1.545   1.949 -0.0063 -0.3775 -0.7268
  712TIP3    H223628  -0.046   1.670   2.034 -0.9105 -0.0046 -1.2329
  713TIP3   OH223629   5.455   6.213  17.041 -0.5443  0.3180  0.3034
  713TIP3    H123630   5.511   6.178  17.111 -0.3082  0.8323  0.3785
  713TIP3    H223631   5.417   6.292  17.079 -0.9977  0.1913  0.1079
  714TIP3   OH223632   2.466   0.094   6.618  0.0059 -0.1904  0.2455
  714TIP3    H123633   2.378   0.066   6.644 -0.2287 -0.0639 -0.4086
  714TIP3    H223634   2.466   0.189   6.628 -0.0046 -0.1670  0.0278
  715TIP3   OH223635   5.286   2.015  13.343  0.3545 -0.1353  0.1202
  715TIP3    H123636   5.356   1.950  13.330  0.6287  0.2801 -0.4799
  715TIP3    H223637   5.275   2.019  13.438  2.5064  1.2314  0.3482
  716TIP3   OH223638   6.609   5.682   2.539  0.0355 -0.8631  0.6612
  716TIP3    H123639   6.592   5.699   2.447  2.1396 -0.5369  0.3120
  716TIP3    H223640   6.632   5.768   2.576  1.9654 -1.4462  0.8514
  717TIP3   OH223641   0.892   1.700   0.118  0.3968 -0.5307 -0.8631
  717TIP3    H123642   0.922   1.635   0.054 -0.1162  0.3437 -1.9954
  717TIP3    H223643   0.922   1.665   0.202  0.1874 -2.2050 -1.4589
  718TIP3   OH223644   2.570   3.873   5.047  0.5204 -0.0823 -0.1739
  718TIP3    H123645   2.495   3.902   5.100 -0.9655 -0.4512 -2.0062
  718TIP3    H223646   2.625   3.823   5.108 -1.0033 -0.2729  1.0848
  719TIP3   OH223647   1.762   2.054  13.950 -0.3889  0.0716  0.2056
  719TIP3    H123648   1.787   2.004  14.028 -1.1436 -0.3772  0.1637
  719TIP3    H223649   1.819   2.021  13.881 -1.1077 -0.9539  0.1054
  720TIP3   OH223650   5.360   3.389  12.910 -0.4865  0.0109  0.0445
  720TIP3    H123651   5.435   3.443  12.936  2.0934 -1.9253 -2.8961
  720TIP3    H223652   5.372   3.307  12.957 -2.1656  0.5011  1.3962
  721TIP3   OH223653   3.241   5.741   0.309 -0.1084  0.3355  0.1444
  721TIP3    H123654   3.147   5.751   0.292  0.0630  1.1271 -0.3522
  721TIP3    H223655   3.263   5.818   0.363 -0.1108 -0.7722  1.7663
  722TIP3   OH223656   4.669   1.967   5.866 -0.4932 -0.3893  0.2654
  722TIP3    H123657   4.609   1.994   5.936  0.6406  0.2562  1.0063
  722TIP3    H223658   4.736   1.917   5.911  0.3629  0.2064 -0.3329
  723TIP3   OH223659   2.680   3.369   4.806 -0.4218  0.0348 -0.3710
  723TIP3    H123660   2.702   3.310   4.878  0.6707  0.9474  0.0494
  723TIP3    H223661   2.654   3.450   4.849 -2.7773 -0.3985 -0.9208
  724TIP3   OH223662   3.816   5.875  14.188  0.0964 -0.5715 -0.0572
  724TIP3    H123663   3.881   5.805  14.195  1.8751  1.0993  0.7692
  724TIP3    H223664   3.820   5.903  14.097 -0.7503 -1.6525 -0.4331
  725TIP3   OH223665   0.143   6.806  14.379 -0.7630 -0.8227  0.0268
  725TIP3    H123666   0.173   6.813  14.288  0.9331 -1.6925  0.5015
  725TIP3    H223667   0.219   6.833  14.431 -1.9745  0.4381  1.1732
  726TIP3   OH223668   6.161   1.210  13.864  0.5072 -0.6496  0.6382
  726TIP3    H123669   6.219   1.139  13.890  0.3836 -0.4245  1.5591
  726TIP3    H223670   6.090   1.208  13.927  0.3092  0.0528  0.4522
  727TIP3   OH223671   3.050   3.991   5.412  0.3724  0.6119 -0.0124
  727TIP3    H123672   3.143   4.011   5.420  0.4982 -0.1560  0.5121
  727TIP3    H223673   3.045   3.896   5.420 -0.5036  0.6897  0.4174
  728TIP3   OH223674   3.242   5.202  16.033  0.6953  0.5421  0.1441
  728TIP3    H123675   3.253   5.120  15.985  0.9107 -0.2149  1.4555
  728TIP3    H223676   3.310   5.260  15.998 -0.2951  0.6164 -1.7039
  729TIP3   OH223677   5.699   0.361  12.546  0.2910  0.2483 -0.1544
  729TIP3    H123678   5.769   0.298  12.534  0.7146  0.9951 -1.6745
  729TIP3    H223679   5.744   0.442  12.571 -0.0362  0.6892 -0.9867
  730TIP3   OH223680   6.207   1.615   4.182  0.6059  0.0424  0.5563
  730TIP3    H123681   6.253   1.696   4.159  0.7540  0.0912  1.0062
  730TIP3    H223682   6.196   1.569   4.099 -0.4485  1.0238  0.1486
  731TIP3   OH223683   2.285   5.143  11.482  0.0166 -0.2685 -0.0299
  731TIP3    H123684   2.238   5.185  11.410  0.4527 -0.4042 -0.3989
  731TIP3    H223685   2.302   5.054  11.451  1.1079 -0.0170 -0.1704
  732TIP3   OH223686   5.718   4.381   1.958  0.3100 -0.6687 -0.0791
  732TIP3    H123687   5.705   4.469   1.994  2.8208  0.3113 -1.4279
  732TIP3    H223688   5.685   4.388   1.868  0.4749 -1.1133 -0.1715
  733TIP3   OH223689   6.163   5.214   1.056  0.4449  0.1744  0.1410
  733TIP3    H123690   6.156   5.285   1.121 -0.4974  1.5446 -1.4212
  733TIP3    H223691   6.210   5.144   1.102 -0.2203  1.1099  2.3001
  734TIP3   OH223692   1.319   0.476   5.033 -0.7733 -0.2538  0.4561
  734TIP3    H123693   1.377   0.483   5.109  0.2059  0.9416 -0.3668
  734TIP3    H223694   1.255   0.410   5.057  0.4160 -0.9599  1.7362
  735TIP3   OH223695   1.874   6.138  17.202  0.0753 -0.4548 -0.4124
  735TIP3    H123696   1.869   6.164  17.111 -0.5828 -0.3569 -0.3464
  735TIP3    H223697   1.967   6.140  17.223  0.2674 -0.9372 -1.2150
  736TIP3   OH223698   4.574   0.404  11.683  0.2428 -0.2081 -0.4383
  736TIP3    H123699   4.597   0.496  11.693  3.0831 -0.8900 -0.2329
  736TIP3    H223700   4.539   0.397  11.594  0.5733  0.9656 -0.6644
  737TIP3   OH223701   2.163   6.179  11.740 -0.2420 -0.3976 -0.1509
  737TIP3    H123702   2.070   6.201  11.751 -0.4036 -0.8062 -0.6818
  737TIP3    H223703   2.193   6.236  11.669 -0.1171 -0.3572 -0.0655
  738TIP3   OH223704   0.342   3.758  15.657  0.6682 -0.2319 -0.5268
  738TIP3    H123705   0.355   3.672  15.698  0.1960 -0.6341 -1.1940
  738TIP3    H223706   0.248   3.762  15.640  0.3764  1.2845  1.3701
  739TIP3   OH223707   2.776   3.230  14.998 -0.2830  0.3093 -0.5433
  739TIP3    H123708   2.708   3.178  15.041  0.2087 -0.6978 -0.9597
  739TIP3    H223709   2.854   3.217  15.051  0.3267 -0.9535 -1.7433
  740TIP3   OH223710   1.454   0.115  15.697  0.5048  0.4794 -0.1692
  740TIP3    H123711   1.514   0.062  15.750  1.5786  0.8226 -1.0132
  740TIP3    H223712   1.399   0.050  15.652  0.9377  0.1199 -0.1882
  741TIP3   OH223713   4.380   3.462   1.153 -0.0130  0.6839 -0.1446
  741TIP3    H123714   4.350   3.510   1.076 -0.2500 -0.1995 -0.6121
  741TIP3    H223715   4.442   3.398   1.119 -3.7261 -3.0433 -0.3420
  742TIP3   OH223716   2.757   1.197  12.425 -0.3879  0.0779  0.0273
  742TIP3    H123717   2.733   1.193  12.333  0.8925 -2.2289 -0.2302
  742TIP3    H223718   2.685   1.245  12.466 -0.3931  2.1917 -2.3271
  743TIP3   OH223719   4.569   3.829  13.064  0.2409 -0.3200  0.2516
  743TIP3    H123720   4.660   3.806  13.047  0.2084 -0.7585  0.6683
  743TIP3    H223721   4.538   3.868  12.983  0.9123  0.1746  0.2322
  744TIP3   OH223722   3.991   2.127   0.507  0.3198 -0.1792  0.7448
  744TIP3    H123723   4.034   2.051   0.466  1.8144  0.5261  0.9698
  744TIP3    H223724   3.977   2.100   0.598  0.9375 -0.1395  0.8500
  745TIP3   OH223725   5.431   3.276  11.629  0.0527 -0.2974  0.6984
  745TIP3    H123726   5.397   3.220  11.559  0.5081 -0.8051  0.8768
  745TIP3    H223727   5.390   3.241  11.709  0.5132 -0.5165  0.8370
  746TIP3   OH223728   2.793   0.617  16.827  0.2472 -0.2830  0.4451
  746TIP3    H123729   2.849   0.540  16.826  1.2859  0.4610 -1.4046
  746TIP3    H223730   2.824   0.669  16.901 -0.2187 -1.4608  1.4667
  747TIP3   OH223731   2.129   0.329  14.778 -0.1407  0.1823 -0.2635
  747TIP3    H123732   2.222   0.326  14.754 -0.1127 -1.5166 -0.0057
  747TIP3    H223733   2.085   0.356  14.698  0.4193 -0.6897 -0.8802
  748TIP3   OH223734   2.480   6.262  13.233 -0.6020  0.5118  0.2819
  748TIP3    H123735   2.550   6.322  13.259  0.7604 -1.0388  0.2930
  748TIP3    H223736   2.413   6.318  13.195  0.4107  2.0889  0.7811
  749TIP3   OH223737   0.681   2.909   5.359  0.1758  0.2899  0.6891
  749TIP3    H123738   0.600   2.936   5.402  1.2207  0.3312  2.6812
  749TIP3    H223739   0.730   2.862   5.427  1.6214 -0.1155 -0.6152
  750TIP3   OH223740   6.145   3.680  11.515  0.2298  0.8051 -0.0600
  750TIP3    H123741   6.180   3.669  11.603  1.1283  1.0524 -0.3786
  750TIP3    H223742   6.125   3.592  11.485  3.1470  0.3700 -0.8944
  751TIP3   OH223743   3.858   4.075   0.436  0.1272  0.1991  0.1002
  751TIP3    H123744   3.764   4.092   0.437 -0.0450 -0.7153  2.6965
  751TIP3    H223745   3.898   4.162   0.433 -0.7850  0.5953 -0.9775
  752TIP3   OH223746   6.782   2.950  14.123 -0.6073  0.9039  0.6326
  752TIP3    H123747   6.834   2.917  14.196  0.4917  1.6547  0.2080
  752TIP3    H223748   6.691   2.937  14.150 -0.2029 -0.6717  1.2728
  753TIP3   OH223749   2.067   3.163  15.219  0.4578 -0.3510  0.2959
  753TIP3    H123750   1.991   3.166  15.277  1.5056  0.5681  1.6437
  753TIP3    H223751   2.137   3.204  15.269  1.2247  1.0530 -1.8508
  754TIP3   OH223752   2.409   6.176   0.896  0.2518 -0.3991 -0.1462
  754TIP3    H123753   2.438   6.201   0.809 -1.7144  0.3574 -0.6087
  754TIP3    H223754   2.314   6.173   0.890 -0.0081  1.1514  2.3581
  755TIP3   OH223755   3.464   2.632   5.044  0.2201  0.6859 -0.3193
  755TIP3    H123756   3.484   2.577   5.120  0.6085  0.5249 -0.5332
  755TIP3    H223757   3.382   2.676   5.066  0.2761  0.5550  0.1464
  756TIP3   OH223758   3.423   1.845  12.727 -0.4780  0.1518  0.0744
  756TIP3    H123759   3.375   1.891  12.658 -1.3749 -2.5699 -1.1849
  756TIP3    H223760   3.459   1.768  12.684 -0.7772 -1.4507  2.6119
  757TIP3   OH223761   2.810   2.348  12.771  0.4127  0.6489  0.5296
  757TIP3    H123762   2.836   2.414  12.835  3.3496 -1.1632  1.2634
  757TIP3    H223763   2.838   2.383  12.686  0.1938  1.2096  0.6868
  758TIP3   OH223764   3.083   6.067   2.499 -0.0394 -0.3020  0.0909
  758TIP3    H123765   3.177   6.072   2.517 -0.3664 -0.7182  2.0240
  758TIP3    H223766   3.063   6.146   2.450  0.9852  0.7062  1.2787
  759TIP3   OH223767   5.229   4.432  16.404 -0.3932 -0.6278 -0.1390
  759TIP3    H123768   5.255   4.343  16.430  1.1419 -0.2522 -0.3155
  759TIP3    H223769   5.247   4.436  16.310  0.3247  0.1256  0.0232
  760TIP3   OH223770   1.897   2.822  12.319  0.0278 -0.4235 -0.0083
  760TIP3    H123771   1.814   2.860  12.346  0.7371  0.4464  1.0068
  760TIP3    H223772   1.887   2.804  12.226 -0.6482  1.4398 -0.3085
  761TIP3   OH223773   2.125   4.582   5.931  0.3607 -0.4593  0.8703
  761TIP3    H123774   2.085   4.661   5.893 -1.2241 -0.1059  3.1769
  761TIP3    H223775   2.168   4.614   6.011 -1.4844 -2.1133  2.5737
  762TIP3   OH223776   3.857   3.366   4.572 -0.2202  0.4644 -0.6810
  762TIP3    H123777   3.765   3.389   4.560 -0.2329  0.4524 -0.6069
  762TIP3    H223778   3.873   3.297   4.508 -0.4016  0.1047 -0.3417
  763TIP3   OH223779   3.015   1.297  16.555  0.6256 -0.0448 -0.3171
  763TIP3    H123780   2.985   1.261  16.472  0.3243  1.3641 -0.8424
  763TIP3    H223781   3.041   1.387  16.534 -0.7528  0.7753  1.3716
  764TIP3   OH223782   5.109   0.912  12.750 -0.2850  1.0688 -0.1214
  764TIP3    H123783   5.060   0.833  12.773  0.7759  0.4286 -0.0361
  764TIP3    H223784   5.042   0.980  12.743 -0.9054  0.8253  2.7218
  765TIP3   OH223785   2.997   0.320   4.733 -0.0797 -0.0796 -0.5826
  765TIP3    H123786   3.051   0.351   4.660  0.0108 -1.3527 -1.0783
  765TIP3    H223787   3.047   0.247   4.770 -0.6124 -0.0995  0.1069
  766TIP3   OH223788   0.095   4.268  11.118  0.2619  0.0054 -0.4277
  766TIP3    H123789   0.125   4.345  11.165 -1.0970  0.4274 -0.2276
  766TIP3    H223790   0.000   4.278  11.113  0.1958 -1.0187 -1.5241
  767TIP3   OH223791   0.686   0.707   0.435  0.5272 -0.0732 -0.0757
  767TIP3    H123792   0.604   0.755   0.424  1.1759  0.5201 -2.4816
  767TIP3    H223793   0.660   0.615   0.433 -0.1690  0.1164  0.0013
  768TIP3   OH223794   6.611   1.073   4.976  0.5179  0.5491 -0.8846
  768TIP3    H123795   6.664   0.994   4.982 -2.5829 -1.6659 -1.3222
  768TIP3    H223796   6.628   1.107   4.888  1.9046  0.4136 -0.6758
  769TIP3   OH223797   1.043   5.793   3.407  0.0451 -0.1439 -0.2069
  769TIP3    H123798   1.028   5.786   3.313 -1.8842  0.9301 -0.0113
  769TIP3    H223799   1.108   5.726   3.426  0.4426 -0.3974 -2.2960
  770TIP3   OH223800   1.699   5.465  12.784 -0.3932 -0.0286 -0.0143
  770TIP3    H123801   1.634   5.421  12.839 -0.4744  1.4481  1.0910
  770TIP3    H223802   1.751   5.517  12.845  0.4156  0.5436 -1.1674
  771TIP3   OH223803   3.058   2.627  16.919  0.1264  0.1045 -0.4114
  771TIP3    H123804   3.096   2.545  16.888  3.0375  2.1478 -2.4437
  771TIP3    H223805   2.990   2.647  16.854 -1.4662 -1.2574  0.7754
  772TIP3   OH223806   5.835   2.390   4.284 -0.5765 -0.2680 -0.5553
  772TIP3    H123807   5.897   2.456   4.316  1.4698 -1.8225 -1.2220
  772TIP3    H223808   5.880   2.307   4.298 -3.2707 -1.5803  0.5847
  773TIP3   OH223809   3.200   5.430   1.038  0.8381  0.3619  0.0208
  773TIP3    H123810   3.249   5.502   1.078  0.7472  0.0210  0.7549
  773TIP3    H223811   3.253   5.352   1.056  0.4270  0.1045  0.1190
  774TIP3   OH223812   4.676   5.134  12.563 -0.3623  0.2574 -0.2770
  774TIP3    H123813   4.732   5.158  12.489  0.8546 -1.9310 -0.0987
  774TIP3    H223814   4.670   5.214  12.615  1.3297  0.9634 -1.1226
  775TIP3   OH223815   4.539   3.634  14.125 -0.2625 -0.1551  0.5054
  775TIP3    H123816   4.526   3.647  14.219  1.7456 -1.9188  1.0794
  775TIP3    H223817   4.466   3.578  14.098 -1.2416  0.9381  0.8491
  776TIP3   OH223818   4.433   6.091  14.937  0.6599  0.1364  0.3546
  776TIP3    H123819   4.467   6.033  14.869 -0.1834 -0.7085  0.6365
  776TIP3    H223820   4.389   6.032  14.998 -0.6617  1.1284  0.3823
  777TIP3   OH223821   4.323   3.159  13.874 -0.0072  0.5449 -0.0406
  777TIP3    H123822   4.283   3.246  13.869 -1.9770 -0.2396  1.1424
  777TIP3    H223823   4.410   3.170  13.837 -0.1309  3.0801  0.3318
  778TIP3   OH223824   3.451   2.336   1.395 -0.3067 -0.0474 -0.1870
  778TIP3    H123825   3.408   2.260   1.356  0.2500 -0.8289  0.6978
  778TIP3    H223826   3.425   2.409   1.339 -0.6824 -0.9168 -1.1736
  779TIP3   OH223827   0.180   5.285  13.635  0.0177 -0.4449  0.5019
  779TIP3    H123828   0.090   5.252  13.639 -0.3367  0.3941 -0.4639
  779TIP3    H223829   0.234   5.209  13.657 -0.9306 -0.9145  1.2402
  780TIP3   OH223830   0.031   0.241   0.378 -0.1807  0.0116  1.0768
  780TIP3    H123831  -0.051   0.244   0.329  0.8920 -2.3900 -0.9827
  780TIP3    H223832   0.021   0.309   0.445 -2.0499  2.7925 -1.8726
  781TIP3   OH223833   5.645   5.922   2.808 -0.2573 -0.1636 -0.0516
  781TIP3    H123834   5.685   5.890   2.888 -0.8443 -0.7662  0.0005
  781TIP3    H223835   5.698   5.999   2.784  1.0541 -1.0603 -0.0964
  782TIP3   OH223836   6.132   2.278   4.669 -0.1555  0.2252  0.5672
  782TIP3    H123837   6.184   2.358   4.670 -1.5758  1.2365 -2.4234
  782TIP3    H223838   6.197   2.207   4.665  1.0448  1.3817 -0.7868
  783TIP3   OH223839   2.415   4.813  13.071  0.1578  0.5166 -0.3341
  783TIP3    H123840   2.370   4.866  13.005 -0.8340 -0.0849 -0.1579
  783TIP3    H223841   2.368   4.831  13.152  0.3198 -0.0218 -0.1195
  784TIP3   OH223842   3.508   4.901  17.253  0.0774  0.0950  0.2978
  784TIP3    H123843   3.536   4.989  17.226 -0.0109  0.8076  2.3936
  784TIP3    H223844   3.418   4.894  17.222  0.9226 -0.2949 -2.1745
  785TIP3   OH223845   4.346   3.670   2.206 -0.2330  0.0145 -0.0143
  785TIP3    H123846   4.311   3.755   2.180 -0.2408  0.1465  0.4221
  785TIP3    H223847   4.439   3.673   2.184 -0.4085 -0.1865 -0.8012
  786TIP3   OH223848   1.785   3.966   3.921  0.5610  0.2286  0.2746
  786TIP3    H123849   1.748   3.942   4.006  0.6943 -0.9909  0.0024
  786TIP3    H223850   1.807   3.882   3.880 -0.4823  0.7544 -1.4168
  787TIP3   OH223851   5.968   4.300   0.074  0.2627  0.1155  0.3876
  787TIP3    H123852   5.922   4.368   0.123 -0.7410  0.0563 -0.4784
  787TIP3    H223853   6.029   4.348   0.018  0.6281  0.2314  0.8780
  788TIP3   OH223854   5.444   0.246  12.548  0.0736 -0.2476 -0.3016
  788TIP3    H123855   5.534   0.265  12.572 -0.5424  1.2378  0.8734
  788TIP3    H223856   5.419   0.173  12.604  0.6802 -0.9879 -0.9743
  789TIP3   OH223857   1.134   6.210  13.748  0.6310  0.6475  0.6865
  789TIP3    H123858   1.147   6.248  13.662 -0.8833 -1.2290 -0.4027
  789TIP3    H223859   1.086   6.277  13.797  2.3095  2.0906  0.4171
  790TIP3   OH223860   1.533   1.505   2.906 -0.3022  0.6922 -0.4631
  790TIP3    H123861   1.525   1.564   2.831 -1.1339  0.1232 -0.8331
  790TIP3    H223862   1.550   1.562   2.980  4.2426  1.0360 -1.6373
  791TIP3   OH223863   2.884   1.096   2.907 -0.4788  0.1685 -0.0605
  791TIP3    H123864   2.810   1.035   2.912  0.3716 -0.8056  0.7988
  791TIP3    H223865   2.881   1.131   2.818 -0.6346 -1.5636 -0.7403
  792TIP3   OH223866   0.338   4.103  16.850 -0.2909  0.8509  0.3943
  792TIP3    H123867   0.406   4.122  16.785 -2.1625 -0.1448 -1.9376
  792TIP3    H223868   0.378   4.039  16.909  1.1113  1.0252 -0.3588
  793TIP3   OH223869   4.494   1.260  14.218  0.9822  0.0247  0.1102
  793TIP3    H123870   4.506   1.349  14.184  0.5067  0.4252  0.9877
  793TIP3    H223871   4.511   1.204  14.142 -1.5469  0.9647 -1.2192
  794TIP3   OH223872   6.390   1.174   2.331  0.3662  0.0127  0.2546
  794TIP3    H123873   6.444   1.096   2.321 -0.2606 -0.6214  1.6037
  794TIP3    H223874   6.452   1.246   2.337  1.1364 -0.8334  2.9481
  795TIP3   OH223875   0.451   2.616  16.375 -0.2482 -0.2199  0.4326
  795TIP3    H123876   0.482   2.533  16.340 -0.2666  0.0574 -0.2409
  795TIP3    H223877   0.463   2.608  16.470  1.8750 -0.1049  0.1980
  796TIP3   OH223878   4.260   5.998  16.943 -0.1313 -0.2803  0.2528
  796TIP3    H123879   4.309   5.920  16.916 -1.3262 -0.9374 -0.0509
  796TIP3    H223880   4.289   6.066  16.882  1.1994 -0.3830  0.7573
  797TIP3   OH223881   1.745   0.362  16.023  0.0886  0.2796  0.1990
  797TIP3    H123882   1.797   0.393  15.949 -0.5251 -0.7107 -0.6672
  797TIP3    H223883   1.803   0.301  16.070  0.0675 -0.0314 -0.1732
  798TIP3   OH223884   2.296   1.277   3.352 -0.2211 -0.8545 -0.1025
  798TIP3    H123885   2.207   1.265   3.320 -0.9853 -0.5530  1.8420
  798TIP3    H223886   2.304   1.372   3.365 -0.1304 -1.0072  1.0713
  799TIP3   OH223887   3.297   4.125  10.719  0.1027 -1.4049 -1.1792
  799TIP3    H123888   3.336   4.050  10.673  1.2770 -1.3397 -0.2953
  799TIP3    H223889   3.365   4.156  10.778 -1.2479 -1.2529  0.3581
  800TIP3   OH223890   0.219   0.822   5.304  0.3528  0.4476 -0.0454
  800TIP3    H123891   0.144   0.882   5.307 -1.0969 -1.3443  0.9738
  800TIP3    H223892   0.296   0.879   5.301 -1.0382  2.3343 -0.6373
  801TIP3   OH223893   5.376   1.859  16.244 -0.0736 -0.1746 -0.3332
  801TIP3    H123894   5.439   1.870  16.316 -1.7859 -0.1205  1.1969
  801TIP3    H223895   5.341   1.771  16.256 -0.7419  0.0275 -0.7908
  802TIP3   OH223896   5.504   0.950   5.085 -0.1891  0.2683  0.4122
  802TIP3    H123897   5.571   1.014   5.111 -0.0600  0.5530 -0.6001
  802TIP3    H223898   5.539   0.911   5.005 -1.6576  1.0794 -0.6505
  803TIP3   OH223899   0.577   3.156   0.453 -0.5062 -0.2616  0.0543
  803TIP3    H123900   0.575   3.231   0.512  3.5440 -0.0454  0.0691
  803TIP3    H223901   0.493   3.112   0.467 -1.7664  2.6586  2.1324
  804TIP3   OH223902   1.200   2.404  15.757  0.2176 -0.4677 -0.1490
  804TIP3    H123903   1.106   2.384  15.758  0.4545 -1.6952 -1.2026
  804TIP3    H223904   1.223   2.415  15.849 -0.7392 -1.2544  0.1952
  805TIP3   OH223905   4.094   5.636  15.419 -0.4664  0.1076 -0.1073
  805TIP3    H123906   4.115   5.708  15.359  1.0959  0.9509  1.4006
  805TIP3    H223907   4.147   5.654  15.497 -1.2445 -1.8413  0.8977
  806TIP3   OH223908   4.653   1.807  15.687  0.7012 -0.1966 -0.7958
  806TIP3    H123909   4.629   1.899  15.676  0.5249 -0.1380  0.0648
  806TIP3    H223910   4.586   1.759  15.638  0.8598  0.1352 -1.3454
  807TIP3   OH223911   0.313   1.037   3.577 -0.2538  0.1640 -0.6112
  807TIP3    H123912   0.374   0.992   3.519 -0.3243 -1.4266  0.5020
  807TIP3    H223913   0.241   1.065   3.520 -1.4783 -3.4376 -0.9814
  808TIP3   OH223914   5.404   2.378   1.933 -0.2287  0.5118 -0.6631
  808TIP3    H123915   5.416   2.316   2.005 -2.2810  0.4922 -0.3188
  808TIP3    H223916   5.484   2.370   1.881  0.4174 -0.9133  0.5213
  809TIP3   OH223917   1.521   0.694  11.664 -0.5330  0.0955  0.1185
  809TIP3    H123918   1.489   0.732  11.746 -2.1220 -0.8963 -0.0067
  809TIP3    H223919   1.524   0.767  11.603 -0.4523  0.6263  0.7512
  810TIP3   OH223920   3.034   6.754  14.164 -0.4832  0.0626 -0.0642
  810TIP3    H123921   3.077   6.675  14.131 -2.1826 -0.7090 -0.5151
  810TIP3    H223922   3.038   6.816  14.091 -1.9824 -0.7526 -0.8594
  811TIP3   OH223923   6.189   0.539  11.935 -0.5300  0.2135  0.4653
  811TIP3    H123924   6.265   0.501  11.979 -0.4861  1.5489  1.5714
  811TIP3    H223925   6.133   0.464  11.915  0.8530 -0.7315  0.0547
  812TIP3   OH223926   4.149   0.210  14.674  0.0392  0.4877 -0.1053
  812TIP3    H123927   4.209   0.139  14.650  0.5067  1.0126 -0.4994
  812TIP3    H223928   4.205   0.276  14.715 -0.3091  0.8814 -0.2670
  813TIP3   OH223929   1.059   1.727   1.529  0.2990 -0.1149 -0.1043
  813TIP3    H123930   1.110   1.802   1.498  1.3937 -1.1297 -0.8027
  813TIP3    H223931   1.092   1.653   1.478 -1.5472 -0.8847 -0.2386
  814TIP3   OH223932   5.226   4.860  11.760 -0.3304 -0.0318  0.5657
  814TIP3    H123933   5.177   4.791  11.805 -0.7196  1.0971  1.9151
  814TIP3    H223934   5.170   4.937  11.765  0.3453  0.5435 -0.4206
  815TIP3   OH223935   3.670   1.138  15.963  0.5100  0.7472  1.0533
  815TIP3    H123936   3.763   1.157  15.977  0.2633  2.1555  0.9233
  815TIP3    H223937   3.625   1.213  16.002 -0.6447 -0.6944  2.5122
  816TIP3   OH223938   6.080   4.340  12.820 -0.5511  0.6100  0.3107
  816TIP3    H123939   6.061   4.311  12.731 -0.0812  0.7422  0.1674
  816TIP3    H223940   6.169   4.310  12.837 -1.6348 -1.9678  1.7890
  817TIP3   OH223941   0.464   3.630   5.055 -0.2037 -0.7667  0.0993
  817TIP3    H123942   0.402   3.633   4.983  0.3435 -1.2721 -0.3997
  817TIP3    H223943   0.506   3.716   5.056  0.5642 -1.1186 -0.8838
  818TIP3   OH223944   2.767   2.891   5.526 -0.0919 -0.3887  0.1319
  818TIP3    H123945   2.765   2.975   5.571 -0.8235 -0.9049  1.0827
  818TIP3    H223946   2.860   2.877   5.507  0.2055 -0.0370  1.2517
  819TIP3   OH223947   2.623   1.743  10.649 -0.2825 -0.2010 -0.1688
  819TIP3    H123948   2.645   1.650  10.660 -0.8465 -0.7862 -3.5375
  819TIP3    H223949   2.545   1.742  10.593 -0.2191  2.3266 -0.3383
  820TIP3   OH223950   0.052   4.013   0.851 -0.8572 -0.5138 -0.2168
  820TIP3    H123951   0.139   3.976   0.837 -0.4122  0.2118  0.5590
  820TIP3    H223952   0.028   4.051   0.766  1.2564  2.7288  0.5091
  821TIP3   OH223953   3.047   3.744  13.744  0.3054 -0.2695  0.2012
  821TIP3    H123954   3.063   3.836  13.768 -0.8632 -0.2424  0.9553
  821TIP3    H223955   3.058   3.742  13.649 -0.3847  0.8214  0.0808
  822TIP3   OH223956   5.359   1.759  11.405  0.6015  0.2015 -0.5286
  822TIP3    H123957   5.349   1.674  11.448 -0.6880 -0.3494 -1.8858
  822TIP3    H223958   5.451   1.782  11.420  0.6322 -0.8058  0.9718
  823TIP3   OH223959   2.344   1.330  11.707 -0.3170 -0.2253 -0.1220
  823TIP3    H123960   2.366   1.406  11.761 -0.0137 -0.8544  0.6468
  823TIP3    H223961   2.344   1.257  11.768 -0.6435 -0.8385 -0.8575
  824TIP3   OH223962   5.611   0.490  11.169  0.6399 -0.8054  0.7499
  824TIP3    H123963   5.642   0.429  11.103  0.9101 -0.0856  0.1974
  824TIP3    H223964   5.649   0.574  11.143  1.2981 -0.6448  2.1912
  825TIP3   OH223965   3.097   6.116   5.193  0.0660  0.5215  0.3601
  825TIP3    H123966   3.031   6.101   5.261 -0.5011 -3.5663 -0.9068
  825TIP3    H223967   3.181   6.103   5.237 -0.1657  0.9387  0.9266
  826TIP3   OH223968   3.671   2.620  12.366 -0.0315  0.4021 -0.0699
  826TIP3    H123969   3.585   2.647  12.398 -0.3220 -0.7959  0.1537
  826TIP3    H223970   3.689   2.537  12.410  0.9069  0.2656 -0.6950
  827TIP3   OH223971   0.460   5.941   0.382  0.3224  0.6622  0.3184
  827TIP3    H123972   0.429   5.862   0.426  0.6397  0.0400 -0.5367
  827TIP3    H223973   0.426   6.013   0.434  0.5356 -0.0474  1.4645
  828TIP3   OH223974   0.876   1.568  11.489 -0.1587  0.1998 -0.5106
  828TIP3    H123975   0.879   1.649  11.438  1.5613 -0.1311 -0.9485
  828TIP3    H223976   0.942   1.579  11.556  0.7758 -1.2297 -1.1746
  829TIP3   OH223977   5.830   0.873  11.709 -0.7796 -0.4766 -0.1666
  829TIP3    H123978   5.756   0.827  11.749 -1.4632  1.0664  0.4052
  829TIP3    H223979   5.907   0.839  11.755 -1.3779 -0.2256  1.0510
  830TIP3   OH223980   5.479   6.440  15.199 -0.2757  0.0444 -0.2384
  830TIP3    H123981   5.442   6.416  15.114 -3.0320  1.2193  0.5613
  830TIP3    H223982   5.465   6.362  15.253 -0.6076  0.1045 -0.2352
  831TIP3   OH223983   3.549   3.829   0.665  0.2171 -0.4400  0.2868
  831TIP3    H123984   3.462   3.796   0.687 -1.8999  2.3946 -3.2216
  831TIP3    H223985   3.559   3.910   0.716  0.3071 -0.1440 -0.1965
  832TIP3   OH223986   6.416   5.118   3.658  0.3304 -0.2049 -0.5360
  832TIP3    H123987   6.440   5.139   3.568  1.2727  2.1313  0.2111
  832TIP3    H223988   6.437   5.198   3.707  0.5677 -1.7008  1.8799
  833TIP3   OH223989   6.407   2.735   2.485  0.2784 -0.0745 -0.4148
  833TIP3    H123990   6.317   2.734   2.451  0.4388 -0.8002 -0.8203
  833TIP3    H223991   6.414   2.654   2.536  0.7836 -0.1278 -0.5715
  834TIP3   OH223992   0.960   2.337   6.602 -0.0138  0.2394 -0.3237
  834TIP3    H123993   1.005   2.261   6.639  0.1657  0.0119 -0.9976
  834TIP3    H223994   0.911   2.301   6.528 -0.6367  0.6286 -0.1013
  835TIP3   OH223995   6.436   4.307  16.253 -0.6368  0.5098  0.2980
  835TIP3    H123996   6.342   4.314  16.268 -0.6749 -1.1790  0.9470
  835TIP3    H223997   6.476   4.338  16.334 -0.6838 -0.7441  0.8087
  836TIP3   OH223998   0.169   2.058  16.892 -0.4435  0.0318  0.0186
  836TIP3    H123999   0.254   2.097  16.870  0.1340 -1.1709  0.0945
  836TIP3    H224000   0.119   2.062  16.810 -0.0530  0.0766 -0.2204
  837TIP3   OH224001   5.257   5.974  16.378 -0.4901  0.4765  0.1254
  837TIP3    H124002   5.282   5.988  16.469 -2.2197 -0.7886  0.8255
  837TIP3    H224003   5.336   5.938  16.337  0.0800  0.3505  1.3086
  838TIP3   OH224004   5.800   3.878   1.719  0.0651 -0.7118  0.1328
  838TIP3    H124005   5.872   3.815   1.721  0.0841 -0.6329  2.6749
  838TIP3    H224006   5.842   3.962   1.736 -0.1181 -0.1238 -2.1519
  839TIP3   OH224007   4.758   3.205   1.527 -0.0167 -0.3053 -0.1828
  839TIP3    H124008   4.808   3.284   1.549  0.1742 -0.5445  0.2391
  839TIP3    H224009   4.824   3.141   1.502 -0.3045  0.4488 -3.0280
  840TIP3   OH224010   6.311   3.014  11.236 -0.1338 -0.5891  0.0504
  840TIP3    H124011   6.278   2.943  11.180  0.0682  0.6032 -1.6325
  840TIP3    H224012   6.242   3.029  11.300 -0.0792 -2.4610  0.5984
  841TIP3   OH224013   1.922   3.339  16.292  0.9386  0.0405 -0.4733
  841TIP3    H124014   1.921   3.247  16.317  1.3614  0.2185  0.2183
  841TIP3    H224015   2.006   3.351  16.247  0.8075  0.0448 -0.7170
  842TIP3   OH224016   1.402   5.470  17.105  0.0623 -0.1875  0.1773
  842TIP3    H124017   1.357   5.435  17.182  2.2000 -1.7816  0.7435
  842TIP3    H224018   1.476   5.519  17.140  0.0253  0.6120 -0.8182
  843TIP3   OH224019   3.988   6.487  17.217  0.7033 -0.2397  0.1068
  843TIP3    H124020   3.984   6.571  17.263  1.5997  1.0420 -2.0967
  843TIP3    H224021   3.966   6.507  17.127  0.0979 -2.5365 -0.2890
  844TIP3   OH224022   1.147   0.645   3.006 -0.1733  0.3065  0.7693
  844TIP3    H124023   1.056   0.646   2.976 -0.1662  1.2533  0.7412
  844TIP3    H224024   1.142   0.646   3.102 -0.2036  0.8514  0.7675
  845TIP3   OH224025   1.716   1.185   0.985  0.2079  0.7561 -0.3315
  845TIP3    H124026   1.710   1.280   0.995 -0.2925  0.5485  1.5603
  845TIP3    H224027   1.627   1.158   0.961  0.5811  0.8717 -1.8436
  846TIP3   OH224028   3.505   5.279   1.299  0.0101 -0.0472  0.0385
  846TIP3    H124029   3.599   5.282   1.319 -0.3354  0.7780  1.6652
  846TIP3    H224030   3.469   5.357   1.342 -1.6674 -1.2190  0.8162
  847TIP3   OH224031   3.307   4.733  13.624 -0.8867  0.4903 -0.1533
  847TIP3    H124032   3.388   4.765  13.664 -1.1326  1.2468 -0.2600
  847TIP3    H224033   3.283   4.656  13.676 -0.2377  0.4115  0.0349
  848TIP3   OH224034   3.011   1.341   5.305  0.3814  0.1471 -0.2078
  848TIP3    H124035   3.098   1.307   5.325  0.6000 -0.0073 -1.3837
  848TIP3    H224036   2.952   1.268   5.320  0.3938  0.3778  1.0224
  849TIP3   OH224037   1.844   5.306  13.669 -0.4454 -0.1711 -0.0973
  849TIP3    H124038   1.934   5.287  13.642 -0.6345 -0.4016 -0.5619
  849TIP3    H224039   1.798   5.326  13.588 -0.3461  1.8666  0.3277
  850TIP3   OH224040   2.308   1.736  15.489  0.0279  0.1309 -0.0450
  850TIP3    H124041   2.354   1.806  15.444  1.3694 -0.8003 -0.1531
  850TIP3    H224042   2.234   1.779  15.532  0.8783  1.6130 -0.0390
  851TIP3   OH224043   0.200   0.239  13.174  0.1537  0.1279 -0.2010
  851TIP3    H124044   0.282   0.288  13.184 -1.3415  2.7010 -0.2070
  851TIP3    H224045   0.226   0.147  13.182  2.9373  0.9312  0.4813
  852TIP3   OH224046   2.004   5.173   4.672 -0.3194  0.1916  0.2729
  852TIP3    H124047   1.985   5.265   4.691  1.6255  0.7927 -0.5931
  852TIP3    H224048   1.923   5.140   4.634 -0.8266  1.7328 -0.0437
  853TIP3   OH224049   0.335   2.932  12.569  0.1647  0.8345 -0.2907
  853TIP3    H124050   0.381   2.850  12.586 -2.0174 -0.3995 -0.0950
  853TIP3    H224051   0.393   2.981  12.512  2.8924  0.4660  2.0656
  854TIP3   OH224052   5.138   4.116  15.871  0.2074  0.3274  0.1151
  854TIP3    H124053   5.081   4.050  15.910 -1.0578  1.7902  0.7975
  854TIP3    H224054   5.208   4.066  15.829 -0.4084 -1.4118  1.1212
  855TIP3   OH224055   1.471   2.105  11.345 -0.2680 -0.4341  0.4366
  855TIP3    H124056   1.464   2.010  11.352  0.8361 -0.5962 -0.4547
  855TIP3    H224057   1.511   2.119  11.259 -0.0907  0.8192  0.7212
  856TIP3   OH224058   3.256   4.192   1.593  0.4366  0.7485 -0.4324
  856TIP3    H124059   3.350   4.192   1.613  0.3497 -1.1281  0.1352
  856TIP3    H224060   3.242   4.108   1.548 -1.1475  0.5226  0.4521
  857TIP3   OH224061   4.523   2.109  16.188  0.0738  0.3370 -0.3417
  857TIP3    H124062   4.480   2.162  16.121 -2.0189 -0.9308 -0.0365
  857TIP3    H224063   4.588   2.058  16.139  1.4526  2.4251 -0.7670
  858TIP3   OH224064   5.363   6.772  14.239 -0.2770 -0.2120  0.2980
  858TIP3    H124065   5.406   6.735  14.162 -4.2332 -0.2545 -2.0820
  858TIP3    H224066   5.353   6.699  14.299  1.3022 -0.6016  0.0903
  859TIP3   OH224067   0.161   2.527   6.017 -0.7499 -0.3469 -0.0403
  859TIP3    H124068   0.139   2.620   6.018 -1.5002 -0.4970 -1.3091
  859TIP3    H224069   0.197   2.510   6.104  0.2906  1.3309 -0.1100
  860TIP3   OH224070   1.873   6.222   3.162 -0.0589 -0.1776  0.5344
  860TIP3    H124071   1.891   6.316   3.158 -0.2903  0.0762  3.8860
  860TIP3    H224072   1.778   6.216   3.155  0.0155 -0.2571 -0.5381
  861TIP3   OH224073   5.246   4.113   5.243  0.0201  0.2756  0.4112
  861TIP3    H124074   5.273   4.038   5.190  1.1168  2.1616 -1.7842
  861TIP3    H224075   5.287   4.097   5.328  1.4261 -0.8949 -0.4548
  862TIP3   OH224076   3.884   5.028   5.579  0.2161 -0.0876 -0.2999
  862TIP3    H124077   3.945   5.093   5.543  1.2716 -0.8924  0.0025
  862TIP3    H224078   3.877   5.052   5.672 -0.3110  0.3028 -0.4423
  863TIP3   OH224079   2.581   3.578  16.317  0.1051 -0.2815 -0.0877
  863TIP3    H124080   2.620   3.591  16.231 -0.4141 -0.9292 -0.4175
  863TIP3    H224081   2.653   3.595  16.378  0.8255 -1.1542 -0.6835
  864TIP3   OH224082   0.931   3.600  14.774 -0.5757 -0.2284  0.4701
  864TIP3    H124083   0.998   3.666  14.760 -0.9437  0.3101  1.1845
  864TIP3    H224084   0.913   3.604  14.868 -1.3878 -0.5744  0.3370
  865TIP3   OH224085   5.730   4.718  12.071 -0.5501 -0.1348 -1.1029
  865TIP3    H124086   5.642   4.736  12.104 -0.0911  1.1336 -0.5633
  865TIP3    H224087   5.721   4.634  12.026 -2.6983  1.3118 -3.5196
  866TIP3   OH224088   5.807   4.015  15.459 -0.3391  0.5259  0.2149
  866TIP3    H124089   5.746   4.046  15.525 -0.0420  0.6080  0.4505
  866TIP3    H224090   5.857   4.092  15.433 -0.5357  0.5199 -0.1939
  867TIP3   OH224091   6.203   0.952   3.820  0.6034 -0.2056 -0.1490
  867TIP3    H124092   6.272   0.886   3.826  1.5715  0.8086  0.0198
  867TIP3    H224093   6.211   0.988   3.731  0.6412  0.2797  0.0470
  868TIP3   OH224094   3.649   6.635   1.287 -0.2186 -0.0427 -0.0662
  868TIP3    H124095   3.609   6.666   1.369  1.0382 -0.8347  0.8561
  868TIP3    H224096   3.742   6.625   1.308  0.0386 -0.6711 -1.4719
  869TIP3   OH224097   3.297   1.906   6.032  0.2350  0.4471 -0.5863
  869TIP3    H124098   3.213   1.941   6.063 -0.3739  0.2749 -2.0427
  869TIP3    H224099   3.314   1.831   6.090 -1.2684 -0.3282 -1.1103
  870TIP3   OH224100   1.008   3.303  12.121  0.1420  0.1085 -0.1147
  870TIP3    H124101   1.060   3.222  12.123  0.7221  0.4345 -1.3343
  870TIP3    H224102   1.011   3.331  12.029 -0.0837  1.5008  0.2891
  871TIP3   OH224103   0.146   3.830   1.089  0.1079 -0.2175  0.2369
  871TIP3    H124104   0.179   3.836   1.000 -0.9832  0.2993 -0.1521
  871TIP3    H224105   0.111   3.741   1.096 -2.3411  0.6077 -0.8008
  872TIP3   OH224106   5.392   5.912   2.231  0.0048 -0.2668 -0.1795
  872TIP3    H124107   5.439   5.986   2.193 -0.7799  0.8694  1.0541
  872TIP3    H224108   5.400   5.924   2.325  0.2090 -1.9745  0.0287
  873TIP3   OH224109   6.585   0.180   5.254 -0.4188 -0.1096 -0.4992
  873TIP3    H124110   6.591   0.114   5.185  0.6815 -0.2663 -0.2666
  873TIP3    H224111   6.676   0.206   5.271 -0.5842 -0.6755  1.4467
  874TIP3   OH224112   0.546   2.037   6.010 -0.3370  0.0587  0.4669
  874TIP3    H124113   0.602   1.961   5.994 -2.2163 -1.2627 -0.0211
  874TIP3    H224114   0.517   2.064   5.923 -1.2885  0.0832  0.7911
  875TIP3   OH224115   6.266   0.699  11.717  0.3885  0.1001  0.5720
  875TIP3    H124116   6.260   0.644  11.795 -0.7263  0.8981  1.0593
  875TIP3    H224117   6.261   0.789  11.751  1.7392  0.5102 -0.2510
  876TIP3   OH224118   2.375   2.496   4.570 -0.0259  0.4302  0.2400
  876TIP3    H124119   2.365   2.471   4.478  0.6975 -0.2952  0.3546
  876TIP3    H224120   2.468   2.481   4.589 -0.0995  0.9061  0.9915
  877TIP3   OH224121   3.196   0.365  16.069 -0.1356  0.1540  0.5635
  877TIP3    H124122   3.172   0.310  16.144  1.1268  0.2925  1.0845
  877TIP3    H224123   3.183   0.455  16.099 -1.1092  0.1843  0.0886
  878TIP3   OH224124   0.747   1.506  14.568 -0.1049 -0.0287  0.4816
  878TIP3    H124125   0.756   1.526  14.475 -2.5593  0.8293  0.3896
  878TIP3    H224126   0.654   1.518  14.586 -0.2062 -3.0457  2.4048
  879TIP3   OH224127   1.861   1.234  16.829 -0.4365  0.3134 -0.2428
  879TIP3    H124128   1.778   1.187  16.826  0.0894 -0.5953 -0.6095
  879TIP3    H224129   1.875   1.252  16.922 -0.8330  0.0959 -0.1390
  880TIP3   OH224130   3.637   3.057   3.902 -0.1698 -0.1452  0.1311
  880TIP3    H124131   3.720   3.011   3.911 -0.0179 -0.0363 -0.6936
  880TIP3    H224132   3.571   2.991   3.922  0.0397 -0.7771 -1.1930
  881TIP3   OH224133   2.441   0.712   2.824 -0.0047  0.0481 -0.1279
  881TIP3    H124134   2.392   0.667   2.755  1.1387 -0.8290 -0.3691
  881TIP3    H224135   2.495   0.776   2.778  3.8081 -3.2637 -0.4823
  882TIP3   OH224136   5.591   2.762  10.794  0.4550 -0.0903  0.0208
  882TIP3    H124137   5.497   2.780  10.803  0.6732  0.4593  1.2068
  882TIP3    H224138   5.623   2.834  10.739 -0.0424 -0.9753 -1.4514
  883TIP3   OH224139   0.391   5.980   3.893 -0.1910  0.0188  0.2902
  883TIP3    H124140   0.402   5.952   3.802  0.6396 -0.1945  0.4531
  883TIP3    H224141   0.329   5.917   3.930  0.1774 -0.4422  0.1231
  884TIP3   OH224142   3.644   3.494   4.224  0.0901 -0.6135 -0.1971
  884TIP3    H124143   3.723   3.442   4.212 -0.3693 -1.5509  0.7117
  884TIP3    H224144   3.659   3.544   4.304 -0.1012 -0.5641 -0.1903
  885TIP3   OH224145   6.478   0.866   3.869  0.3949 -0.1452  0.1362
  885TIP3    H124146   6.522   0.876   3.785  2.8980  1.6136  1.5604
  885TIP3    H224147   6.526   0.796   3.913  0.5929  0.4986  0.9676
  886TIP3   OH224148   5.853   6.293  11.540 -0.1286  0.1271 -0.1402
  886TIP3    H124149   5.882   6.256  11.624 -0.0875 -1.5938 -0.8786
  886TIP3    H224150   5.758   6.299  11.548  0.0132  1.6097  0.6523
  887TIP3   OH224151   4.972   0.092  16.984  0.0300  0.5864 -0.0936
  887TIP3    H124152   4.939   0.063  17.069  1.7891 -0.0649  0.3865
  887TIP3    H224153   4.900   0.074  16.923 -1.1533  0.8309  1.1956
  888TIP3   OH224154   4.552   3.239   0.462  0.9796 -0.4058 -0.2132
  888TIP3    H124155   4.644   3.215   0.472 -0.0360 -4.4829 -0.1737
  888TIP3    H224156   4.545   3.271   0.372  2.4855  0.4314 -0.0505
  889TIP3   OH224157   5.144   5.213  11.441  0.7015  0.1093  0.2185
  889TIP3    H124158   5.102   5.134  11.475  0.6246 -0.6036 -1.4790
  889TIP3    H224159   5.072   5.269  11.414  0.7907 -0.5979 -1.5502
  890TIP3   OH224160   4.834   3.839  13.040  0.7283  0.3826  0.0902
  890TIP3    H124161   4.894   3.867  12.971 -0.0872 -0.7397 -1.1088
  890TIP3    H224162   4.885   3.777  13.093  0.9146  0.1369 -0.3750
  891TIP3   OH224163   2.790   5.542   5.485  0.0589  0.3268  0.1423
  891TIP3    H124164   2.718   5.601   5.459 -0.4170 -0.6646 -0.8119
  891TIP3    H224165   2.748   5.457   5.497  0.6163  0.3312  2.2659
  892TIP3   OH224166   4.244   5.667  15.667  0.2783  0.3474 -0.0738
  892TIP3    H124167   4.204   5.690  15.751  0.1492  0.2664 -0.1128
  892TIP3    H224168   4.316   5.608  15.690  0.8839  1.1415  0.0578
  893TIP3   OH224169   3.579   1.328  13.992  0.0218  0.4922 -0.3149
  893TIP3    H124170   3.659   1.374  13.968  1.1442 -2.0196 -1.5487
  893TIP3    H224171   3.572   1.256  13.929 -2.8540  0.2499  0.1894
  894TIP3   OH224172   4.761   5.205  11.936  0.7650 -0.0237 -0.0393
  894TIP3    H124173   4.765   5.163  11.851  2.7899 -2.4886  1.2193
  894TIP3    H224174   4.669   5.197  11.963  0.5488 -1.0694 -1.0812
  895TIP3   OH224175   1.697   3.313   1.998 -0.1287  0.8814  0.3320
  895TIP3    H124176   1.671   3.274   1.915 -0.0734  0.1503  0.6481
  895TIP3    H224177   1.792   3.321   1.993 -0.0303  0.0160  0.6618
  896TIP3   OH224178   4.751   5.613   0.538  0.3609 -0.1649  0.3904
  896TIP3    H124179   4.676   5.616   0.597 -0.6056  0.1565 -0.8238
  896TIP3    H224180   4.712   5.602   0.451  1.7240  0.0263 -0.2570
  897TIP3   OH224181   5.539   4.968   3.804  0.0134  0.2691 -0.2279
  897TIP3    H124182   5.544   4.997   3.713  2.7674  1.2839  0.1791
  897TIP3    H224183   5.534   5.049   3.855 -1.3408 -0.2834  0.5434
  898TIP3   OH224184   3.065   3.081  15.146 -0.1528  0.2411  0.0745
  898TIP3    H124185   3.132   3.075  15.215 -0.3230  0.4825  0.2583
  898TIP3    H224186   3.076   3.169  15.110 -1.9747  1.1704  1.7250
  899TIP3   OH224187   6.592   0.650   4.005  0.0673 -0.2854  0.3207
  899TIP3    H124188   6.561   0.566   4.037  0.0298 -0.2129  0.4722
  899TIP3    H224189   6.651   0.628   3.933  2.0852 -0.5423  2.0038
  900TIP3   OH224190   4.392   1.037  17.228 -0.5057  0.0023 -0.0035
  900TIP3    H124191   4.431   0.959  17.188 -1.2779 -0.7875  0.7570
  900TIP3    H224192   4.299   1.030  17.209 -0.4814  1.1086 -0.5285
  901TIP3   OH224193   2.823   0.605  15.612 -0.6544 -0.0186 -0.3006
  901TIP3    H124194   2.766   0.669  15.655  0.4640  0.3371  0.6624
  901TIP3    H224195   2.768   0.527  15.605 -0.8956 -0.0729  1.7409
  902TIP3   OH224196   0.736   2.588   3.678  0.6548 -0.0311  0.1974
  902TIP3    H124197   0.781   2.513   3.639 -0.6341 -1.0619  0.6565
  902TIP3    H224198   0.753   2.580   3.772  0.8712  0.5014  0.2056
  903TIP3   OH224199   2.969   5.409  12.505  0.2547  0.1212  0.1956
  903TIP3    H124200   2.949   5.387  12.414 -1.0790  1.2902  0.1855
  903TIP3    H224201   2.981   5.504  12.505  0.7678  0.0660  1.1429
  904TIP3   OH224202   2.771   0.934  15.524 -0.7309  0.3920 -0.3919
  904TIP3    H124203   2.719   1.011  15.503 -1.6151 -0.0401  0.1951
  904TIP3    H224204   2.721   0.889  15.592  0.2932 -0.1491  0.0170
  905TIP3   OH224205   3.633   6.106  14.750  0.4081  0.0938  0.9180
  905TIP3    H124206   3.648   6.160  14.673  1.7956  0.3639  1.3639
  905TIP3    H224207   3.647   6.016  14.720 -0.1371  0.1132  0.6023
  906TIP3   OH224208   5.391   3.999   0.227  0.0524 -0.2716 -0.1986
  906TIP3    H124209   5.419   4.072   0.283  1.3528  0.1281 -1.3461
  906TIP3    H224210   5.404   4.031   0.138 -1.6816 -1.0269 -0.7428
  907TIP3   OH224211   4.633   3.925  16.824  0.4130  0.2938 -0.0217
  907TIP3    H124212   4.630   4.015  16.792  0.7347  0.5513  0.6514
  907TIP3    H224213   4.620   3.934  16.919  0.6936 -0.3442  0.0761
  908TIP3   OH224214   1.937   0.384  16.722 -0.2460 -0.6284  0.3739
  908TIP3    H124215   1.909   0.294  16.707  0.5834 -0.8653  0.2241
  908TIP3    H224216   1.900   0.434  16.649  1.5415 -1.3148 -1.0383
  909TIP3   OH224217   4.641   5.966  12.933  0.9152  0.6664 -0.5303
  909TIP3    H124218   4.615   6.048  12.891  1.5112  0.6410 -0.9575
  909TIP3    H224219   4.668   5.991  13.022  0.2913  0.8131 -0.3792
  910TIP3   OH224220   0.118   2.953  13.698  0.5145  0.1797 -0.3537
  910TIP3    H124221   0.174   3.030  13.706  1.2255 -0.4772  1.0669
  910TIP3    H224222   0.160   2.886  13.752 -2.1245 -0.0306  1.5727
  911TIP3   OH224223   4.667   4.068   5.754 -0.0303 -0.2157 -0.3879
  911TIP3    H124224   4.656   3.999   5.689 -0.1902 -1.2902  0.7570
  911TIP3    H224225   4.654   4.024   5.838  1.9203  0.7837  0.4633
  912TIP3   OH224226   6.208   0.793  10.975  0.3497 -0.5321  0.6848
  912TIP3    H124227   6.114   0.776  10.966  0.4381  0.5284 -3.1659
  912TIP3    H224228   6.246   0.761  10.893  2.8676  1.9965  0.7771
  913TIP3   OH224229   0.581   5.473  11.401 -0.0692 -0.1734 -0.5088
  913TIP3    H124230   0.495   5.514  11.403  0.4303  0.9300 -1.3139
  913TIP3    H224231   0.625   5.505  11.479  0.2859  0.7513 -1.0875
  914TIP3   OH224232   1.190   4.336  13.203  0.4367 -0.0298  0.2245
  914TIP3    H124233   1.122   4.346  13.136  0.3416 -0.4400  0.2569
  914TIP3    H224234   1.213   4.243  13.199 -0.5646 -0.3503  1.7377
  915TIP3   OH224235   5.055   2.945   5.763 -0.4847 -0.1919  0.4426
  915TIP3    H124236   5.143   2.970   5.793  0.0899 -1.4492 -0.1599
  915TIP3    H224237   5.060   2.850   5.750 -1.6671 -0.1376 -0.4790
  916TIP3   OH224238   0.817   6.204   6.055 -0.0720 -0.6789 -0.4055
  916TIP3    H124239   0.880   6.220   5.985 -1.6825 -0.9070 -1.9749
  916TIP3    H224240   0.857   6.239   6.134  0.8899  1.5065 -1.8419
  917TIP3   OH224241   4.754   3.326  11.039 -0.2931  0.1792 -0.1705
  917TIP3    H124242   4.680   3.357  10.986 -2.2326  1.5575  3.1711
  917TIP3    H224243   4.713   3.273  11.107  2.1740 -1.9334 -0.2621
  918TIP3   OH224244   1.204   3.071  16.005  0.1008 -0.6755 -0.2775
  918TIP3    H124245   1.257   3.142  15.969  0.6219 -0.4308  0.9469
  918TIP3    H224246   1.137   3.054  15.938  0.4214  0.4684 -0.8922
  919TIP3   OH224247   2.026   5.254  15.814 -0.0084  0.0665  0.3896
  919TIP3    H124248   2.052   5.167  15.782 -1.9363 -0.5556  0.4512
  919TIP3    H224249   2.066   5.260  15.901 -1.3726 -1.5391  1.1564
  920TIP3   OH224250   3.260   1.097  14.814  0.3873 -0.7477 -0.9996
  920TIP3    H124251   3.353   1.106  14.792  0.6828 -0.3175  0.4005
  920TIP3    H224252   3.256   1.020  14.870 -0.1249 -0.8627 -1.1934
  921TIP3   OH224253   5.636   6.165   2.436 -0.2974 -0.0002 -0.4835
  921TIP3    H124254   5.553   6.189   2.394 -0.6360 -1.7630 -0.8587
  921TIP3    H224255   5.654   6.237   2.496 -0.6129  1.8236 -2.4981
  922TIP3   OH224256   6.395   2.238   2.914 -0.6891  0.0470 -0.0033
  922TIP3    H124257   6.423   2.321   2.875  2.0669 -1.6187 -1.7146
  922TIP3    H224258   6.328   2.264   2.977  0.1414  3.5951 -0.4180
  923TIP3   OH224259   3.840   1.039   4.728 -0.1849  0.8433 -0.1449
  923TIP3    H124260   3.810   1.020   4.639 -0.7132 -1.0881  0.4125
  923TIP3    H224261   3.933   1.015   4.728 -0.6152 -0.9022  0.2883
  924TIP3   OH224262   0.887   1.946   3.417 -0.2220 -0.1735 -0.5466
  924TIP3    H124263   0.939   2.021   3.447  0.6134 -0.5411 -1.0728
  924TIP3    H224264   0.951   1.882   3.386 -0.9795 -0.6249 -1.2227
  925TIP3   OH224265   2.135   5.581  16.091  0.5689 -0.1108 -0.0540
  925TIP3    H124266   2.213   5.535  16.059  0.7439  0.2970 -0.2214
  925TIP3    H224267   2.133   5.662  16.040 -0.1197 -0.2452 -0.2364
  926TIP3   OH224268   6.738   4.987   4.550  0.5668 -0.4425  0.1782
  926TIP3    H124269   6.734   5.082   4.540  0.9629 -0.5403 -0.9258
  926TIP3    H224270   6.720   4.972   4.643 -1.3642  0.5744 -0.0259
  927TIP3   OH224271   0.582   2.583   5.345  0.9339  0.1954 -0.2881
  927TIP3    H124272   0.675   2.606   5.343  0.5430  1.9652  0.9126
  927TIP3    H224273   0.549   2.609   5.258  1.3998  0.2447 -0.4536
  928TIP3   OH224274   6.401   6.183   1.628  0.2959  0.5011  0.3151
  928TIP3    H124275   6.479   6.183   1.572 -0.0189 -0.2559 -0.1454
  928TIP3    H224276   6.392   6.273   1.658  2.1361  0.3143  1.4888
  929TIP3   OH224277   3.035   1.718   4.342  0.0704  0.1026  0.6585
  929TIP3    H124278   2.950   1.753   4.316  0.5839 -0.4946 -1.9768
  929TIP3    H224279   3.018   1.628   4.368  0.2174 -0.7963 -2.2169
  930TIP3   OH224280   1.765   0.672  16.959 -0.1448 -0.1115 -0.0591
  930TIP3    H124281   1.811   0.702  17.037 -0.4697  1.6624 -0.5084
  930TIP3    H224282   1.788   0.580  16.951  0.4337 -0.1481  1.7391
  931TIP3   OH224283   0.229   4.012   1.303 -0.2133  0.2425  0.1307
  931TIP3    H124284   0.303   3.952   1.313  0.6032  0.9769 -1.3375
  931TIP3    H224285   0.164   3.962   1.254  0.4489  0.5224 -1.0511
  932TIP3   OH224286   1.010   5.052   0.728  0.3699 -0.1297  1.1160
  932TIP3    H124287   0.938   4.989   0.726 -0.8911  1.2497  1.7014
  932TIP3    H224288   1.028   5.071   0.636  1.9449 -2.6167  0.8647
  933TIP3   OH224289   3.399   4.534   4.555 -0.1493 -0.7452  0.6715
  933TIP3    H124290   3.363   4.448   4.534 -1.9551  0.1712 -0.1735
  933TIP3    H224291   3.359   4.557   4.639  0.7620 -0.9605  1.1688
  934TIP3   OH224292   1.814   3.839   1.588 -0.4128 -0.3185 -0.1691
  934TIP3    H124293   1.752   3.872   1.653 -2.2551  0.5559 -2.3183
  934TIP3    H224294   1.760   3.789   1.526  1.2175 -0.6840 -1.3366
  935TIP3   OH224295   4.821   3.945   1.280  0.2246  0.8216  0.3075
  935TIP3    H124296   4.912   3.917   1.286 -0.1264 -0.1738  1.3797
  935TIP3    H224297   4.772   3.864   1.266 -0.5642  1.2452  0.5450
  936TIP3   OH224298   5.187   4.313   1.600  0.1510 -0.7026 -0.2445
  936TIP3    H124299   5.244   4.315   1.523  1.1811 -0.7158  0.5161
  936TIP3    H224300   5.099   4.301   1.563  0.3079  1.8673 -1.5742
  937TIP3   OH224301   6.680   0.395   0.931  0.0279 -0.1161  0.1642
  937TIP3    H124302   6.602   0.401   0.986 -0.9081 -0.3427 -1.1163
  937TIP3    H224303   6.653   0.433   0.848  1.6861  1.0227  0.1214
  938TIP3   OH224304   3.326   5.831  11.717 -0.2944 -0.7027 -0.1480
  938TIP3    H124305   3.277   5.905  11.680 -2.6589 -1.5195  1.2718
  938TIP3    H224306   3.372   5.868  11.792 -0.6724 -0.4501 -0.0384
  939TIP3   OH224307   5.115   0.313   0.653 -0.1310  0.4894  0.3378
  939TIP3    H124308   5.112   0.263   0.571 -1.2443  1.4975 -0.2478
  939TIP3    H224309   5.040   0.281   0.703 -1.2198  1.9840 -0.2976
  940TIP3   OH224310   6.810   6.566   0.479  0.0692 -0.1577  0.5900
  940TIP3    H124311   6.869   6.511   0.428  0.5155  0.0930  0.8334
  940TIP3    H224312   6.839   6.656   0.461 -1.0412  0.0341 -0.2849
  941TIP3   OH224313   4.032   0.239  16.771  0.1508  0.3144 -0.7248
  941TIP3    H124314   3.972   0.289  16.826  0.1757  0.9773 -1.2850
  941TIP3    H224315   4.102   0.301  16.750  1.5571 -0.7415  0.7379
  942TIP3   OH224316   1.743   4.897   2.523  0.5725 -0.1161 -0.5482
  942TIP3    H124317   1.706   4.927   2.440 -0.0073 -1.0086 -0.6175
  942TIP3    H224318   1.689   4.822   2.548  0.4636  0.4020  0.8483
  943TIP3   OH224319   5.103   4.352   1.881 -0.1239  0.0031  0.2713
  943TIP3    H124320   5.133   4.342   1.791 -0.9869  0.9521 -0.1308
  943TIP3    H224321   5.164   4.413   1.921 -0.3474  0.3933  0.0228
  944TIP3   OH224322   6.515   2.097   4.639  0.1115 -0.3749 -0.2883
  944TIP3    H124323   6.534   2.052   4.557  1.4403 -1.0745  0.3729
  944TIP3    H224324   6.585   2.069   4.698 -0.0825  1.1286  0.6949
  945TIP3   OH224325   3.887   3.323   2.757 -0.5531 -0.0733  0.1865
  945TIP3    H124326   3.836   3.392   2.799 -1.1745  0.0021 -0.6662
  945TIP3    H224327   3.901   3.355   2.668  0.4227 -0.3919  0.2126
  946TIP3   OH224328   4.599   0.986  11.632 -0.5428  0.1434 -0.1550
  946TIP3    H124329   4.553   1.040  11.569  0.3664  0.2141 -0.7671
  946TIP3    H224330   4.545   0.906  11.639 -1.3792  0.7196  0.0448
  947TIP3   OH224331   4.274   2.915   1.315 -0.2254 -0.0987  0.3237
  947TIP3    H124332   4.364   2.912   1.282 -0.6334 -0.0360 -0.8044
  947TIP3    H224333   4.223   2.953   1.243 -1.4387 -1.7149  0.2934
  948TIP3   OH224334   5.576   5.573   3.224 -0.5689 -0.0455 -0.3809
  948TIP3    H124335   5.487   5.589   3.256 -0.3239 -0.5769  0.5695
  948TIP3    H224336   5.586   5.478   3.228 -0.3649 -0.0738 -1.5918
  949TIP3   OH224337   3.392   1.444   4.659 -0.5216 -0.6385  0.4063
  949TIP3    H124338   3.376   1.526   4.706 -1.5555  0.3506 -1.6449
  949TIP3    H224339   3.446   1.393   4.720 -0.2643  1.3480  1.9191
  950TIP3   OH224340   2.884   1.060  10.553 -0.8947 -0.0952 -0.3254
  950TIP3    H124341   2.887   1.080  10.647 -2.1323  0.4008 -0.3772
  950TIP3    H224342   2.916   0.970  10.547 -1.5895 -0.4198  0.6731
  951TIP3   OH224343   1.043   6.355  11.992  0.5638  0.1401  0.8003
  951TIP3    H124344   0.987   6.432  11.998  0.5256  0.1010  0.9459
  951TIP3    H224345   1.076   6.357  11.902 -0.3826 -0.3207  0.4335
  952TIP3   OH224346   5.422   0.588  14.708  0.3604  0.6594 -0.4933
  952TIP3    H124347   5.409   0.517  14.770 -2.8830  1.7476  0.1634
  952TIP3    H224348   5.488   0.645  14.748  1.9251 -1.1848 -0.3841
  953TIP3   OH224349   1.974   2.631   4.697 -0.7035 -0.0960  0.0886
  953TIP3    H124350   2.012   2.717   4.677  0.8206 -0.9863 -0.9764
  953TIP3    H224351   2.050   2.576   4.719 -1.6225 -1.2668  0.3923
  954TIP3   OH224352   6.125   2.761  13.073 -0.8840  0.2241  0.2339
  954TIP3    H124353   6.034   2.737  13.055 -0.5485 -0.7554 -0.2123
  954TIP3    H224354   6.175   2.723  13.001  0.0754 -0.7374  1.3754
  955TIP3   OH224355   5.275   6.423  15.887 -0.0618  0.0027 -0.0009
  955TIP3    H124356   5.292   6.367  15.963 -1.2282 -1.8770 -1.1016
  955TIP3    H224357   5.228   6.498  15.924  0.6677 -0.1779  1.3500
  956TIP3   OH224358   5.015   3.055   3.886 -0.4740 -0.2778  0.1817
  956TIP3    H124359   4.926   3.047   3.918 -1.6107  2.7919 -2.0572
  956TIP3    H224360   5.022   2.988   3.818 -1.7351  0.7489 -0.9833
  957TIP3   OH224361   5.258   6.067  16.906 -0.1039  0.4298  0.4218
  957TIP3    H124362   5.177   6.094  16.948 -0.3002 -0.7196  0.7917
  957TIP3    H224363   5.327   6.100  16.963 -0.3515 -0.3394  1.1684
  958TIP3   OH224364   4.974   4.820  12.313 -0.2382 -0.1687 -0.0768
  958TIP3    H124365   5.016   4.897  12.352 -1.3121  0.2676  0.2744
  958TIP3    H224366   5.032   4.793  12.243  0.3754  0.7072  0.0835
  959TIP3   OH224367   2.535   1.082  12.200  0.1689 -0.9092 -0.4054
  959TIP3    H124368   2.529   1.164  12.151 -1.0464 -2.0334 -2.1986
  959TIP3    H224369   2.629   1.063  12.202  0.7978  1.9887  2.6089
  960TIP3   OH224370   0.752   1.168  14.929  0.5209  0.2989 -0.3686
  960TIP3    H124371   0.681   1.227  14.954  0.8603  1.6900 -2.4896
  960TIP3    H224372   0.832   1.219  14.942  0.9558 -0.3481 -0.4448
  961TIP3   OH224373   0.170   2.153   0.167 -0.1410  0.1646  0.3332
  961TIP3    H124374   0.237   2.110   0.221  0.3855  1.6452  0.8676
  961TIP3    H224375   0.202   2.143   0.077 -0.6441 -1.6402  0.3331
  962TIP3   OH224376   3.536   3.564  11.708 -0.3488 -0.4223  0.3420
  962TIP3    H124377   3.522   3.499  11.639 -0.8002 -0.5939  0.5888
  962TIP3    H224378   3.528   3.648  11.664  1.4332 -0.5303 -0.2201
  963TIP3   OH224379   4.623   6.111  12.056  0.1183 -0.1958 -0.7121
  963TIP3    H124380   4.552   6.168  12.026 -0.6311 -2.4115 -3.4008
  963TIP3    H224381   4.578   6.037  12.098  1.0259  0.4309  1.4298
  964TIP3   OH224382   2.348   4.671   3.289  0.5163  0.0260 -0.0475
  964TIP3    H124383   2.443   4.669   3.298  0.3803 -0.4940  1.5353
  964TIP3    H224384   2.322   4.579   3.287  0.1126  0.1545 -1.4640
  965TIP3   OH224385   4.606   5.521  13.290 -0.5625 -0.1944 -0.0028
  965TIP3    H124386   4.568   5.609  13.295  0.4631  0.1635  1.7753
  965TIP3    H224387   4.689   5.533  13.245 -0.0265 -0.1131  1.0031
  966TIP3   OH224388   5.396   2.439   2.705 -0.5419  0.6041  0.0771
  966TIP3    H124389   5.471   2.496   2.722 -0.8980  0.5399  1.9932
  966TIP3    H224390   5.432   2.350   2.714 -0.5690  0.5576 -0.2704
  967TIP3   OH224391   2.086   1.267  11.187  0.1984  0.8433  0.0121
  967TIP3    H124392   2.155   1.300  11.130 -0.5274  0.9108 -0.8259
  967TIP3    H224393   2.107   1.306  11.273  1.3509  0.6383 -0.1596
  968TIP3   OH224394   3.324   3.966   3.703  0.1855  0.1744 -0.0712
  968TIP3    H124395   3.304   4.020   3.780  1.5171  0.9409 -0.2643
  968TIP3    H224396   3.241   3.964   3.654 -0.6520 -0.2454  1.3144
  969TIP3   OH224397   0.699   0.534  11.934 -0.1104 -0.2270  0.2819
  969TIP3    H124398   0.611   0.570  11.932 -0.1527 -0.4183 -3.0638
  969TIP3    H224399   0.686   0.439  11.929  0.2974 -0.2558 -0.2358
  970TIP3   OH224400   1.076   3.062  14.189 -0.0633 -0.5558  0.0314
  970TIP3    H124401   1.172   3.056  14.190  0.0203  0.5418  1.1217
  970TIP3    H224402   1.057   3.121  14.117  0.2485  1.1815  1.3331
  971TIP3   OH224403   0.868   2.385  13.570 -0.1520 -0.2410  0.6667
  971TIP3    H124404   0.849   2.407  13.479 -1.4653 -0.7097  0.8068
  971TIP3    H224405   0.949   2.334  13.567 -0.2875 -0.4107 -0.2522
  972TIP3   OH224406   5.027   5.585  16.382  0.2145  0.2086  0.0896
  972TIP3    H124407   5.022   5.675  16.348 -0.1845 -0.0371 -0.5078
  972TIP3    H224408   5.042   5.596  16.476 -1.7659  0.9256  0.3584
  973TIP3   OH224409   6.782   4.302   5.906 -0.8609 -0.3743  0.7052
  973TIP3    H124410   6.794   4.321   5.999  0.5531  0.5305  0.3522
  973TIP3    H224411   6.864   4.260   5.879 -0.3246  1.5034 -0.6638
  974TIP3   OH224412   1.603   0.687  11.380  0.1065 -0.6393  0.1119
  974TIP3    H124413   1.695   0.662  11.370  0.3837  0.3169  0.2323
  974TIP3    H224414   1.606   0.777  11.411 -0.8567 -0.8958  1.0080
  975TIP3   OH224415   5.423   2.454  10.646  0.3374  0.2258  0.0232
  975TIP3    H124416   5.375   2.390  10.593 -0.2616  1.1010 -0.5033
  975TIP3    H224417   5.356   2.515  10.677  1.2728  2.3225 -1.9462
  976TIP3   OH224418   0.861   1.967  15.363 -0.0122 -0.0474 -0.4055
  976TIP3    H124419   0.800   2.030  15.324 -0.6276 -0.6320 -0.3974
  976TIP3    H224420   0.918   1.940  15.291 -0.0083  0.2040 -0.4981
  977TIP3   OH224421   6.324   0.934  15.886  0.1514  0.6436 -0.2894
  977TIP3    H124422   6.403   0.967  15.930  1.2992 -0.3455 -1.5775
  977TIP3    H224423   6.308   0.849  15.927  0.6784  0.1395 -1.1223
  978TIP3   OH224424   5.352   3.438   1.200  0.2736 -0.7422 -0.2071
  978TIP3    H124425   5.421   3.500   1.222  0.7649 -1.2686 -0.2497
  978TIP3    H224426   5.271   3.487   1.213  0.7243  1.1015 -3.8469
  979TIP3   OH224427   6.786   5.208  12.555 -0.6062  0.5390  0.4482
  979TIP3    H124428   6.805   5.127  12.508  1.8300  0.7411  1.0163
  979TIP3    H224429   6.834   5.275  12.507  2.1426  0.7107  3.2907
  980TIP3   OH224430   5.339   6.134  17.274 -0.1543 -0.0667  0.3744
  980TIP3    H124431   5.256   6.148  17.318  0.1022  0.5784  0.6596
  980TIP3    H224432   5.372   6.222  17.256  0.2156 -0.3196 -0.2047
  981TIP3   OH224433   2.779   2.824  10.765 -0.1771  0.2885 -0.5666
  981TIP3    H124434   2.798   2.732  10.787 -2.5507  0.2184  1.4430
  981TIP3    H224435   2.824   2.838  10.682 -1.4655 -3.3365 -2.0041
  982TIP3   OH224436   5.929   5.455   0.450 -0.0285  0.3195  0.0995
  982TIP3    H124437   5.949   5.362   0.442 -0.5539  0.0958  1.2907
  982TIP3    H224438   5.986   5.498   0.386  0.9016 -0.7337  0.2205
  983TIP3   OH224439   6.501   4.331   4.566  0.4846  0.2488 -0.1063
  983TIP3    H124440   6.429   4.322   4.628 -0.2778  0.8165 -0.9006
  983TIP3    H224441   6.550   4.249   4.574 -1.5713 -1.1180 -1.2066
  984TIP3   OH224442   0.271   2.237   4.886 -0.1837 -0.0373 -0.1292
  984TIP3    H124443   0.203   2.295   4.920 -0.5175  0.1572 -1.1008
  984TIP3    H224444   0.252   2.152   4.924 -0.6048  0.1567  0.0948
  985TIP3   OH224445   4.986   5.791  15.908  0.3699  0.6403 -0.4703
  985TIP3    H124446   4.986   5.714  15.965 -1.9879  1.0338  0.1138
  985TIP3    H224447   4.998   5.865  15.967 -3.3639  1.1513 -0.2450
  986TIP3   OH224448   5.834   3.065  14.601 -0.2450  0.1449  0.3426
  986TIP3    H124449   5.836   3.008  14.677  1.4593  1.2689  1.1735
  986TIP3    H224450   5.920   3.056  14.561 -0.3933  1.1493 -0.2498
  987TIP3   OH224451   3.822   0.297   1.500  0.5479 -0.3327  0.7207
  987TIP3    H124452   3.867   0.260   1.576 -1.3631 -1.7949  1.1924
  987TIP3    H224453   3.736   0.256   1.502  0.5137 -0.4698 -2.3287
  988TIP3   OH224454   3.132   0.671   0.048 -0.2228 -0.1357  0.5985
  988TIP3    H124455   3.056   0.621   0.018  0.9041 -0.7181 -1.3655
  988TIP3    H224456   3.116   0.759   0.016 -0.0770 -0.2459  0.2291
  989TIP3   OH224457   4.457   4.553   0.476 -0.0224  0.2506 -0.4609
  989TIP3    H124458   4.478   4.631   0.527  0.3455 -0.2735  0.1940
  989TIP3    H224459   4.372   4.524   0.511  0.0052  0.1636 -0.4641
  990TIP3   OH224460   0.570   6.816  15.518 -0.5454 -0.0671 -0.0893
  990TIP3    H124461   0.566   6.847  15.609 -1.7943 -0.0964 -0.1293
  990TIP3    H224462   0.570   6.721  15.526  0.2666 -0.0762 -0.0955
  991TIP3   OH224463   1.273   3.151  14.757 -0.3874  0.1272  0.0580
  991TIP3    H124464   1.341   3.131  14.692  1.4429  1.4771  1.4930
  991TIP3    H224465   1.245   3.240  14.736  0.9036  0.9435  1.6440
  992TIP3   OH224466   0.618   5.209   1.304  0.2553  0.3122  0.3401
  992TIP3    H124467   0.569   5.189   1.383  2.1397  0.9051  1.6784
  992TIP3    H224468   0.631   5.124   1.262 -2.8574  0.2506 -0.6542
  993TIP3   OH224469   0.753   4.745   3.788  0.1717 -0.6204 -0.1888
  993TIP3    H124470   0.688   4.734   3.857  2.0424 -1.1349  1.5242
  993TIP3    H224471   0.781   4.837   3.797 -0.5046 -0.3186 -1.1044
  994TIP3   OH224472   4.032   5.022   4.206  0.3621 -0.3874  0.1860
  994TIP3    H124473   4.051   4.995   4.116 -2.4767  0.1820 -0.6339
  994TIP3    H224474   3.996   5.110   4.197  0.3945 -0.1908  1.9143
  995TIP3   OH224475   1.804   2.045  12.340 -0.0485 -0.4172  0.3301
  995TIP3    H124476   1.714   2.012  12.342  0.1346 -0.8646  1.3456
  995TIP3    H224477   1.855   1.981  12.389  0.9873 -0.6152 -0.9444
  996TIP3   OH224478   0.137   4.102   6.398 -0.0893 -0.1531  0.5205
  996TIP3    H124479   0.061   4.052   6.428 -1.1850 -0.5604 -2.8062
  996TIP3    H224480   0.127   4.188   6.439 -1.3405 -0.7637  1.5377
  997TIP3   OH224481   2.895   1.419  14.873 -0.1737  0.2628 -0.3606
  997TIP3    H124482   2.983   1.393  14.902 -1.3020 -3.2106  0.2628
  997TIP3    H224483   2.896   1.406  14.779  0.4596  1.8863 -0.5982
  998TIP3   OH224484   3.987   2.872  13.229  0.1537  0.3468  0.5265
  998TIP3    H124485   3.902   2.866  13.184  0.8713 -0.0619 -0.8203
  998TIP3    H224486   3.983   2.805  13.297 -0.6672  0.4462  0.5822
  999TIP3   OH224487   1.697   5.939  12.250  0.0332  0.1018 -0.3558
  999TIP3    H124488   1.701   5.929  12.155  1.2115 -0.9665 -0.1931
  999TIP3    H224489   1.672   5.852  12.283  0.4618  0.2476  0.3725
 1000TIP3   OH224490   3.338   2.777  12.954  0.2766  1.2341  0.0965
 1000TIP3    H124491   3.400   2.802  12.886  0.8660  2.0493  0.9171
 1000TIP3    H224492   3.389   2.721  13.013  0.0212  1.2444  0.3285
 1001TIP3   OH224493   6.008   5.651   6.365 -0.3357 -0.2438 -0.9433
 1001TIP3    H124494   6.063   5.582   6.402 -2.0927 -1.6839 -0.9469
 1001TIP3    H224495   6.052   5.676   6.284  0.9243 -0.5434 -0.3630
 1002TIP3   OH224496   5.103   3.629  11.283 -0.2202 -0.2560 -0.0524
 1002TIP3    H124497   5.026   3.600  11.235  1.0762 -0.7943 -1.8687
 1002TIP3    H224498   5.136   3.704  11.233  1.1868 -0.8485 -0.0303
 1003TIP3   OH224499   5.099   0.918   4.435 -0.0869 -0.0782 -0.6683
 1003TIP3    H124500   5.128   0.843   4.487 -0.1763  1.2657  1.3644
 1003TIP3    H224501   5.005   0.904   4.424  0.0019 -0.5701 -0.8469
 1004TIP3   OH224502   3.975   1.768  12.389 -0.0328  0.4091 -0.9482
 1004TIP3    H124503   3.881   1.758  12.371 -0.3101  0.6516  0.3205
 1004TIP3    H224504   3.989   1.862  12.395  0.2432  0.3657 -0.9000
 1005TIP3   OH224505   5.070   1.446  13.837  0.3575  0.1262  0.1657
 1005TIP3    H124506   5.116   1.432  13.755 -3.0021 -0.0178 -1.7786
 1005TIP3    H224507   5.132   1.494  13.892  3.0279 -0.6982 -2.0667
 1006TIP3   OH224508   3.693   6.676  14.651  0.1888  1.0047  0.2288
 1006TIP3    H124509   3.759   6.636  14.708  0.6329 -0.1686 -1.0567
 1006TIP3    H224510   3.669   6.758  14.695 -0.3095 -0.3884  2.6387
 1007TIP3   OH224511   2.639   0.910   5.044 -0.5706  0.8775 -0.0485
 1007TIP3    H124512   2.558   0.936   5.088 -0.3580 -1.6096  1.9488
 1007TIP3    H224513   2.610   0.861   4.967 -0.9818  0.7531  0.1846
 1008TIP3   OH224514   1.813   4.901  14.686  1.1099 -0.2205  0.0289
 1008TIP3    H124515   1.850   4.821  14.722 -0.2575  0.3514  2.7963
 1008TIP3    H224516   1.838   4.969  14.748  0.6843  1.1997 -1.3331
 1009TIP3   OH224517   3.769   5.513   4.650  0.1222  0.0259  0.4242
 1009TIP3    H124518   3.780   5.426   4.688 -0.2490  0.0588  0.6125
 1009TIP3    H224519   3.811   5.572   4.712  0.5363 -0.0351  0.2053
 1010TIP3   OH224520   6.029   1.575   0.656 -0.3046 -0.5485 -0.1031
 1010TIP3    H124521   5.933   1.576   0.658 -0.2982 -0.7947  2.4875
 1010TIP3    H224522   6.052   1.493   0.613 -1.3113 -1.9519  1.9323
 1011TIP3   OH224523   0.894   5.046   1.562  0.0152  0.2296 -0.1353
 1011TIP3    H124524   0.867   5.056   1.471  1.3814  0.5987 -0.5196
 1011TIP3    H224525   0.908   4.952   1.573 -1.0463  0.0750 -0.0266
 1012TIP3   OH224526   4.746   0.766  10.951 -0.3026 -0.6789  0.2361
 1012TIP3    H124527   4.754   0.796  11.041 -2.7247 -0.4526  0.3948
 1012TIP3    H224528   4.741   0.846  10.899  1.2724 -0.8059 -0.1459
 1013TIP3   OH224529   5.454   2.268   3.590  0.1758  0.4209  0.3614
 1013TIP3    H124530   5.374   2.279   3.641 -1.1809 -0.1727 -1.5973
 1013TIP3    H224531   5.470   2.354   3.551 -0.2108  0.2111 -0.2600
 1014TIP3   OH224532   1.975   4.205  12.707 -0.0451 -0.0588 -0.0742
 1014TIP3    H124533   1.980   4.128  12.651  0.6251 -0.5668  0.6857
 1014TIP3    H224534   2.013   4.276  12.654 -1.7690  0.0359 -1.2388
 1015TIP3   OH224535   1.021   4.609   0.300 -0.6999  0.1983  0.0579
 1015TIP3    H124536   0.977   4.548   0.241 -0.5637  0.7007 -0.5699
 1015TIP3    H224537   0.952   4.668   0.330 -1.0738 -0.9925  1.6271
 1016TIP3   OH224538   2.133   1.658  11.807  0.2671 -0.0947  0.1499
 1016TIP3    H124539   2.078   1.651  11.729  1.8830 -0.8872 -0.9540
 1016TIP3    H224540   2.187   1.735  11.792  0.6781 -0.3236  0.4290
 1017TIP3   OH224541   2.660   0.409   2.597 -0.3563 -0.4378  0.1282
 1017TIP3    H124542   2.665   0.314   2.583 -0.6577 -0.3832 -0.3563
 1017TIP3    H224543   2.600   0.419   2.671  1.5153 -0.7460  1.7418
 1018TIP3   OH224544   5.005   5.596   1.256  0.9906  0.1098 -0.2324
 1018TIP3    H124545   5.065   5.665   1.227  0.4673  0.5377 -0.3134
 1018TIP3    H224546   4.922   5.642   1.271 -0.0206 -0.8834 -2.5285
 1019TIP3   OH224547   3.245   1.673  11.210  0.4289 -0.2188 -0.0539
 1019TIP3    H124548   3.295   1.754  11.199 -1.3064  0.8756 -0.1315
 1019TIP3    H224549   3.310   1.603  11.203  1.7153  1.0923 -1.6327
 1020TIP3   OH224550   2.726   0.251  10.715  0.2852  0.5046 -0.4061
 1020TIP3    H124551   2.657   0.195  10.680  0.3147 -0.5497  1.1834
 1020TIP3    H224552   2.679   0.323  10.757  0.0661 -0.9170  1.8716
 1021TIP3   OH224553   4.198   3.959   4.601  0.1771 -0.3600  0.2584
 1021TIP3    H124554   4.252   3.886   4.631  1.4448 -0.4876 -2.1664
 1021TIP3    H224555   4.261   4.025   4.571 -0.9793  0.5771 -0.1619
 1022TIP3   OH224556   0.968   3.515   2.242 -0.0396 -0.2382  0.0572
 1022TIP3    H124557   1.034   3.455   2.206  0.3154 -0.2294  0.6986
 1022TIP3    H224558   0.980   3.511   2.337 -0.9122 -0.1788  0.1747
 1023TIP3   OH224559   2.448   1.884   1.025 -0.3114 -0.0391 -0.0216
 1023TIP3    H124560   2.436   1.804   1.076 -1.5619 -0.1740 -0.4982
 1023TIP3    H224561   2.390   1.947   1.066 -2.3397 -0.5253 -2.0279
 1024TIP3   OH224562   1.537   2.176   6.054 -0.5677 -0.5500  0.0349
 1024TIP3    H124563   1.452   2.135   6.065 -0.5271 -0.1626  1.8773
 1024TIP3    H224564   1.550   2.228   6.134  0.4184  1.1582 -1.1896
 1025TIP3   OH224565   3.586   0.716   5.374  0.0213  0.1485  0.3369
 1025TIP3    H124566   3.672   0.695   5.338 -0.3188  0.8002 -0.8894
 1025TIP3    H224567   3.524   0.692   5.304 -0.8645 -1.1076  1.5282
 1026TIP3   OH224568   6.070   5.725   3.074 -0.3133  0.6734 -0.2365
 1026TIP3    H124569   6.080   5.659   3.006  0.5031 -0.0408  0.5613
 1026TIP3    H224570   6.021   5.796   3.032  1.1451  0.7329 -1.8987
 1027TIP3   OH224571   2.702   5.360   5.131 -0.3222  0.6271 -0.8029
 1027TIP3    H124572   2.724   5.451   5.112  1.6400  0.0873 -1.2474
 1027TIP3    H224573   2.780   5.324   5.173 -1.1902 -0.7730 -0.3251
 1028TIP3   OH224574   3.722   1.612  15.479 -0.3725  0.1739 -0.0420
 1028TIP3    H124575   3.675   1.601  15.396  0.1636  1.0179 -0.4581
 1028TIP3    H224576   3.766   1.696  15.471  1.7613 -0.9059  0.0791
 1029TIP3   OH224577   3.369   2.420   6.149  0.0860 -0.2251  0.0415
 1029TIP3    H124578   3.444   2.403   6.207 -0.2657 -1.3621  0.1790
 1029TIP3    H224579   3.351   2.335   6.109 -0.1596  0.3830 -1.1668
 1030TIP3   OH224580   0.192   2.668   0.275  0.2468  0.4918 -0.2075
 1030TIP3    H124581   0.223   2.699   0.190 -0.3745  4.4217  0.8654
 1030TIP3    H224582   0.158   2.747   0.318 -0.0990 -1.5024  3.4046
 1031TIP3   OH224583   6.017   5.902  16.100 -0.4459  0.0153  0.1045
 1031TIP3    H124584   6.082   5.904  16.029  0.9916  1.0145  1.4160
 1031TIP3    H224585   6.038   5.822  16.149 -0.1894  0.3356  0.5240
 1032TIP3   OH224586   2.320   4.459   5.165 -0.6827 -0.8535  0.2155
 1032TIP3    H124587   2.249   4.516   5.194 -0.5909  0.6709 -2.3354
 1032TIP3    H224588   2.292   4.431   5.077  1.9446 -0.0167 -0.9283
 1033TIP3   OH224589   1.450   0.904  15.250 -0.1895 -0.3169  0.0400
 1033TIP3    H124590   1.397   0.983  15.255  0.3891 -0.0011  1.2858
 1033TIP3    H224591   1.392   0.834  15.279  0.2274  0.1059  1.9223
 1034TIP3   OH224592   2.575   3.778  12.695 -0.0703 -0.2834 -0.5908
 1034TIP3    H124593   2.515   3.823  12.756  0.3712 -0.7370  0.1874
 1034TIP3    H224594   2.592   3.842  12.627 -0.4729  0.2820 -0.1684
 1035TIP3   OH224595   1.872   3.396  10.531 -0.5298  0.2512 -0.2764
 1035TIP3    H124596   1.942   3.367  10.473  0.0154  1.2230 -0.1086
 1035TIP3    H224597   1.879   3.339  10.607  0.4272  0.7111 -0.0200
 1036TIP3   OH224598   3.870   1.494   1.320  0.8690  0.4061  0.2217
 1036TIP3    H124599   3.934   1.504   1.250  1.5657 -0.1882  0.7610
 1036TIP3    H224600   3.921   1.499   1.401  0.6386 -2.6767  0.6139
 1037TIP3   OH224601   5.519   0.091  15.222 -0.0287  0.0465  0.1511
 1037TIP3    H124602   5.520   0.120  15.131  0.2804  1.4835  0.5978
 1037TIP3    H224603   5.575   0.013  15.223 -0.3603 -0.2168 -0.9531
 1038TIP3   OH224604   0.862   6.244   5.710  0.3729  0.8572  0.0005
 1038TIP3    H124605   0.872   6.181   5.639 -0.2855  1.1614 -0.3624
 1038TIP3    H224606   0.948   6.247   5.752 -0.1591 -1.8860  1.3822
 1039TIP3   OH224607   2.062   3.517  11.747  0.0568  0.0543  0.1104
 1039TIP3    H124608   2.127   3.583  11.724  0.3775  0.0060  0.8540
 1039TIP3    H224609   2.013   3.502  11.666  0.7122  0.3783 -0.3544
 1040TIP3   OH224610   6.219   5.318   1.791 -0.4833  0.6236  0.0690
 1040TIP3    H124611   6.154   5.253   1.818 -2.4614  2.8717  0.9937
 1040TIP3    H224612   6.198   5.336   1.699 -0.9023  0.9989  0.2323
 1041TIP3   OH224613   6.662   2.251  16.014 -0.5030  0.5378  0.3674
 1041TIP3    H124614   6.574   2.233  16.048 -0.7935 -0.3018 -0.7786
 1041TIP3    H224615   6.652   2.246  15.919  0.6783  0.9810  0.2130
 1042TIP3   OH224616   6.393   6.648   5.331 -0.1599  0.3691 -0.1810
 1042TIP3    H124617   6.487   6.633   5.337 -0.0770  0.0411 -2.0889
 1042TIP3    H224618   6.381   6.740   5.352  0.4894  0.2325  0.8343
 1043TIP3   OH224619   5.261   1.435   5.986  0.6353 -0.0662  0.0219
 1043TIP3    H124620   5.178   1.396   6.012  1.4120 -1.3787  0.5937
 1043TIP3    H224621   5.275   1.405   5.896 -0.8288  2.4367 -1.1290
 1044TIP3   OH224622   6.088   2.997  13.939  0.3783  0.0460  0.2980
 1044TIP3    H124623   6.072   2.920  13.883  0.7118 -0.6588  1.1592
 1044TIP3    H224624   6.003   3.014  13.981  0.4947 -0.3184  0.6839
 1045TIP3   OH224625   2.207   5.280  16.028  0.1978 -0.2022  0.3982
 1045TIP3    H124626   2.278   5.344  16.023  1.1392 -1.3023 -0.9468
 1045TIP3    H224627   2.214   5.245  16.117  1.5071 -0.4576  0.2151
 1046TIP3   OH224628   5.161   5.549   5.080 -0.4696  0.1301 -0.6171
 1046TIP3    H124629   5.093   5.546   5.013  0.0274  0.6597 -1.1503
 1046TIP3    H224630   5.127   5.496   5.152 -1.6044  0.6969 -0.7333
 1047TIP3   OH224631   1.560   3.152   6.284  0.4649  0.0042 -0.7216
 1047TIP3    H124632   1.580   3.241   6.253  2.6267  0.0682  0.7948
 1047TIP3    H224633   1.506   3.166   6.362  3.2758  0.1321  1.2879
 1048TIP3   OH224634   1.485   1.098  16.489 -0.0929  0.0903 -0.2331
 1048TIP3    H124635   1.495   1.175  16.434  0.4807  0.6870  0.6959
 1048TIP3    H224636   1.564   1.096  16.544  0.3093 -1.6303 -0.8224
 1049TIP3   OH224637   3.642   5.961   4.367 -0.2712 -1.1261 -0.3284
 1049TIP3    H124638   3.551   5.977   4.392 -0.4935 -0.9295 -1.2168
 1049TIP3    H224639   3.637   5.885   4.308  0.1073 -0.9694 -0.5619
 1050TIP3   OH224640   2.588   2.250   4.911 -0.2770 -0.5168  0.9008
 1050TIP3    H124641   2.614   2.247   5.003  0.7341  0.4915  0.6580
 1050TIP3    H224642   2.666   2.220   4.864  0.1640  1.6578  0.2105
 1051TIP3   OH224643   6.524   2.768   3.414 -0.1772  0.0417 -0.0413
 1051TIP3    H124644   6.583   2.803   3.347  0.1708 -0.0815  0.1987
 1051TIP3    H224645   6.581   2.720   3.474 -0.6349 -0.8860 -0.3336
 1052TIP3   OH224646   1.484   2.311  14.898  0.1420 -0.2988  0.0078
 1052TIP3    H124647   1.509   2.275  14.983 -2.1383 -0.3970  0.6768
 1052TIP3    H224648   1.479   2.406  14.913 -3.9115 -0.5677  1.0874
 1053TIP3   OH224649   5.434   2.181  16.575 -0.5512 -0.1193  0.0788
 1053TIP3    H124650   5.397   2.162  16.661  0.1355  0.8952  0.6053
 1053TIP3    H224651   5.364   2.161  16.514 -0.0668 -3.8166  0.6265
 1054TIP3   OH224652   2.681   5.397  12.579 -0.2527 -0.2360  0.1162
 1054TIP3    H124653   2.771   5.417  12.554 -0.1655  0.1376  0.7272
 1054TIP3    H224654   2.648   5.477  12.618  0.0717 -1.1934  2.4787
 1055TIP3   OH224655   0.768   3.186  11.528 -0.3910 -0.1641 -0.8046
 1055TIP3    H124656   0.850   3.207  11.484  0.0547  0.8484  0.4830
 1055TIP3    H224657   0.763   3.247  11.602 -2.3890 -0.0933 -0.9544
 1056TIP3   OH224658   6.392   5.598   6.672  0.0497  0.5426  0.0385
 1056TIP3    H124659   6.458   5.540   6.633 -0.5450 -0.5323  0.5882
 1056TIP3    H224660   6.398   5.581   6.766  0.9727  2.5724  0.3632
 1057TIP3   OH224661   0.123   1.462  16.998  0.2863 -0.0429  0.1523
 1057TIP3    H124662   0.118   1.455  16.903 -1.4242 -0.2442  0.2493
 1057TIP3    H224663   0.041   1.505  17.024  0.4464 -0.5694  1.5830
 1058TIP3   OH224664   1.259   0.517  13.545 -0.1077 -0.2388 -0.0546
 1058TIP3    H124665   1.237   0.437  13.497 -0.9522  0.6391 -1.1547
 1058TIP3    H224666   1.317   0.487  13.615 -0.3928 -1.8143 -0.4569
 1059TIP3   OH224667   1.765   1.568   2.105 -0.2850  0.8577 -0.0153
 1059TIP3    H124668   1.838   1.507   2.094  0.0774  1.3675 -0.5009
 1059TIP3    H224669   1.788   1.617   2.185 -0.7062  0.1919  0.5227
 1060TIP3   OH224670   1.053   4.098  11.969  0.5564 -0.0281 -0.5331
 1060TIP3    H124671   1.113   4.133  12.035 -1.3245  0.6221  0.8756
 1060TIP3    H224672   1.085   4.009  11.952  0.5905 -0.5057  1.8632
 1061TIP3   OH224673   5.339   3.454  13.785  0.2079  0.2094  0.2864
 1061TIP3    H124674   5.298   3.371  13.762  2.0168 -1.5520  3.1331
 1061TIP3    H224675   5.425   3.450  13.742 -0.2988  1.3183 -0.8525
 1062TIP3   OH224676   2.839   5.047   3.424  0.1318 -0.7110 -0.1276
 1062TIP3    H124677   2.856   5.129   3.376 -0.6420  0.3649  1.3900
 1062TIP3    H224678   2.911   5.040   3.486 -0.6913 -0.2746  0.8969
 1063TIP3   OH224679   0.759   5.489  11.610  0.1395 -0.0724 -0.0071
 1063TIP3    H124680   0.837   5.539  11.585  0.1307 -1.1988 -2.3756
 1063TIP3    H224681   0.790   5.398  11.614 -0.7085 -0.3333  0.5691
 1064TIP3   OH224682   0.158   0.028  11.859 -0.0113 -0.2469 -0.1676
 1064TIP3    H124683   0.194   0.084  11.928  0.1394 -0.2499 -0.2451
 1064TIP3    H224684   0.069   0.008  11.889  0.1073 -0.3714  0.0990
 1065TIP3   OH224685   2.889   2.440   0.754  0.1153  0.0472  0.3163
 1065TIP3    H124686   2.912   2.490   0.676 -0.3198  0.6688  0.5845
 1065TIP3    H224687   2.801   2.470   0.777  0.2127 -0.1818  1.0023
 1066TIP3   OH224688   1.432   2.060   1.358 -0.1461  0.4999 -0.2755
 1066TIP3    H124689   1.385   2.133   1.398  0.2726  1.7811 -2.0540
 1066TIP3    H224690   1.522   2.093   1.347 -0.0464 -0.1230 -1.4495
 1067TIP3   OH224691   0.146   6.431  15.392  0.4411 -0.0153 -0.3274
 1067TIP3    H124692   0.124   6.395  15.306  0.6078  0.0848 -0.4134
 1067TIP3    H224693   0.072   6.408  15.447  1.0254 -1.4038 -0.1134
 1068TIP3   OH224694   0.651   6.720   5.244  0.7267 -0.0821 -0.4755
 1068TIP3    H124695   0.569   6.674   5.222  0.8841  0.5099 -2.4692
 1068TIP3    H224696   0.719   6.669   5.201  1.3104 -0.0570  0.4152
 1069TIP3   OH224697   3.929   5.139   1.901  0.2198  0.1090  0.0402
 1069TIP3    H124698   3.911   5.046   1.891  0.7796 -0.0453  0.4246
 1069TIP3    H224699   3.843   5.178   1.918 -0.5615  0.2220 -3.8739
 1070TIP3   OH224700   0.987   3.849  16.397 -0.3342 -0.2633 -0.3100
 1070TIP3    H124701   1.001   3.760  16.428  0.6454 -1.1693 -3.1606
 1070TIP3    H224702   1.075   3.887  16.394 -0.6865  0.6168  0.3407
 1071TIP3   OH224703   4.131   6.818   2.620  0.1350  0.0500  0.0369
 1071TIP3    H124704   4.095   6.733   2.645 -0.0890  0.1579  0.0846
 1071TIP3    H224705   4.109   6.827   2.528 -2.2164  1.2341  0.6668
 1072TIP3   OH224706   4.698   3.324  12.590  0.1586  1.0118  0.1732
 1072TIP3    H124707   4.700   3.369  12.674  1.0562  1.8600 -0.2893
 1072TIP3    H224708   4.679   3.233  12.612 -2.0045  1.6598  1.0972
 1073TIP3   OH224709   5.285   1.024   3.221 -0.1845 -0.1424 -0.5460
 1073TIP3    H124710   5.297   0.943   3.271 -0.3338  1.3009  1.9301
 1073TIP3    H224711   5.205   1.062   3.257 -0.5075  0.7767 -2.1827
 1074TIP3   OH224712   6.064   1.636  11.487 -0.2077  0.3870  0.0133
 1074TIP3    H124713   6.012   1.664  11.563 -0.3075 -0.4633  0.2596
 1074TIP3    H224714   6.130   1.578  11.524  0.1546  0.4949 -0.4718
 1075TIP3   OH224715   3.355   6.699   2.934  0.7804  0.1494 -0.2969
 1075TIP3    H124716   3.285   6.746   2.979  0.6833 -1.4648  1.2800
 1075TIP3    H224717   3.330   6.702   2.841 -0.5840  0.8860  0.0820
 1076TIP3   OH224718   1.951   3.178   5.057  0.3625 -0.6532 -0.0437
 1076TIP3    H124719   1.907   3.195   5.140  0.2643 -0.6714 -0.0921
 1076TIP3    H224720   1.880   3.153   4.997  0.1955  1.2048 -0.6353
 1077TIP3   OH224721   3.605   0.902   4.001  0.2670  0.0112 -0.4951
 1077TIP3    H124722   3.514   0.876   4.012  0.7003 -1.6311 -0.8025
 1077TIP3    H224723   3.616   0.975   4.063 -0.1038 -2.5189  2.6600
 1078TIP3   OH224724   2.890   3.532  16.700 -0.1743 -0.4303 -0.4119
 1078TIP3    H124725   2.816   3.589  16.720 -0.1187 -0.6600  0.4311
 1078TIP3    H224726   2.887   3.463  16.766  2.2332  0.8997  1.1408
 1079TIP3   OH224727   1.761   1.260   3.343 -0.0939 -0.1582 -0.2292
 1079TIP3    H124728   1.757   1.214   3.427  1.5364 -0.1056 -0.1125
 1079TIP3    H224729   1.744   1.352   3.366 -0.3480 -0.2474 -0.0531
 1080TIP3   OH224730   6.257   0.502   3.688 -0.1348  0.1177 -0.2637
 1080TIP3    H124731   6.334   0.535   3.642  0.4760 -2.3520 -1.0949
 1080TIP3    H224732   6.278   0.514   3.781  1.6111 -1.2439 -0.4512
 1081TIP3   OH224733   3.856   6.687   0.739  0.0330 -1.1548  0.1621
 1081TIP3    H124734   3.926   6.694   0.674 -2.1955  3.6749 -1.9565
 1081TIP3    H224735   3.787   6.638   0.696 -0.2090 -0.6882  0.0120
 1082TIP3   OH224736   4.266   3.662   4.253 -0.3274 -0.2718 -0.3004
 1082TIP3    H124737   4.214   3.719   4.310 -1.5837 -0.6721 -1.0313
 1082TIP3    H224738   4.254   3.574   4.289 -2.4315 -0.7566 -2.0951
 1083TIP3   OH224739   2.345   5.971   2.626 -0.2220  0.2582  0.5196
 1083TIP3    H124740   2.421   5.933   2.671  0.4296  1.7380  0.7035
 1083TIP3    H224741   2.311   6.036   2.688 -1.1504  0.1726  0.1052
 1084TIP3   OH224742   3.590   1.817   3.415  0.1639  0.4123 -0.1345
 1084TIP3    H124743   3.541   1.831   3.334 -1.6975 -1.3901  0.6447
 1084TIP3    H224744   3.601   1.722   3.420  2.4557  0.6766  0.4870
 1085TIP3   OH224745   6.651   4.495   0.154  0.5013 -0.6610 -0.3394
 1085TIP3    H124746   6.660   4.435   0.229 -0.9697 -1.2591 -0.6164
 1085TIP3    H224747   6.611   4.441   0.086 -0.9079  0.6487 -0.5778
 1086TIP3   OH224748   0.675   5.774   4.502 -0.1012  0.3347 -0.6856
 1086TIP3    H124749   0.674   5.870   4.495 -0.9602  0.4511  0.8087
 1086TIP3    H224750   0.751   5.747   4.450 -0.7649  1.7087 -2.4202
 1087TIP3   OH224751   5.390   6.339  14.956  0.4785  0.0895 -0.0340
 1087TIP3    H124752   5.338   6.419  14.953  0.7207  0.2967  1.0570
 1087TIP3    H224753   5.421   6.326  14.867  1.5620  1.9664  0.0473
 1088TIP3   OH224754   6.255   4.940   5.767 -0.0380 -0.3194 -0.1642
 1088TIP3    H124755   6.165   4.944   5.799  0.1069  1.3550  0.0801
 1088TIP3    H224756   6.251   4.884   5.689 -1.0069 -1.4958  0.7034
 1089TIP3   OH224757   5.500   3.835   2.492  0.6542 -0.5933 -0.0683
 1089TIP3    H124758   5.578   3.786   2.466  0.9743  0.6745 -1.5489
 1089TIP3    H224759   5.427   3.786   2.455  1.0188  0.4097 -2.1859
 1090TIP3   OH224760   1.537   2.012  15.845  0.0379 -0.2834  0.4724
 1090TIP3    H124761   1.453   1.983  15.809  0.2920 -0.1920 -0.2085
 1090TIP3    H224762   1.594   2.020  15.768  0.3576  0.7074  0.8042
 1091TIP3   OH224763   6.467   4.687   0.878 -0.1322  0.2755  0.6898
 1091TIP3    H124764   6.408   4.616   0.853  0.3299 -0.1629  0.8423
 1091TIP3    H224765   6.412   4.747   0.928 -1.4397  1.8659 -2.5056
 1092TIP3   OH224766   6.647   6.047   1.085  0.1272  0.3060 -0.1564
 1092TIP3    H124767   6.737   6.014   1.076 -0.6934 -2.0134 -0.0764
 1092TIP3    H224768   6.595   5.970   1.103 -1.9279  1.6324 -0.2878
 1093TIP3   OH224769   1.729   0.198  10.591  0.5463  0.5329  0.3317
 1093TIP3    H124770   1.742   0.232  10.680 -1.0706 -0.5414  1.0063
 1093TIP3    H224771   1.743   0.103  10.600 -0.5997  0.2917 -0.3450
 1094TIP3   OH224772   5.637   4.836  10.234 -0.3728  0.2706  0.5932
 1094TIP3    H124773   5.570   4.857  10.298  0.5860 -0.3321  1.8269
 1094TIP3    H224774   5.589   4.801  10.159 -1.6116  2.3998  0.3648
 1095TIP3   OH224775   6.620   0.473   5.185 -0.2562  0.5116 -0.4958
 1095TIP3    H124776   6.675   0.399   5.210  0.1543  0.3926 -1.7264
 1095TIP3    H224777   6.661   0.549   5.226  0.0476  0.2288 -0.2789
 1096TIP3   OH224778   3.367   0.116  11.542  0.5603 -0.1646  0.0934
 1096TIP3    H124779   3.355   0.151  11.630 -0.6465  1.8692 -0.8603
 1096TIP3    H224780   3.316   0.035  11.541 -0.5192  0.4966  0.8612
 1097TIP3   OH224781   0.749   1.731  12.165 -0.1224  0.4716  0.3771
 1097TIP3    H124782   0.723   1.779  12.086 -0.4101  1.2995  0.9657
 1097TIP3    H224783   0.841   1.753  12.177  0.0230  0.0396  0.0570
 1098TIP3   OH224784   5.131   2.473  17.046  0.3898  0.3251 -0.0491
 1098TIP3    H124785   5.083   2.416  16.986 -0.4891  1.1211 -0.1088
 1098TIP3    H224786   5.151   2.551  16.994 -0.0890  0.8765  0.5919
 1099TIP3   OH224787   0.878   1.459  12.059  0.3407  0.0964  0.1021
 1099TIP3    H124788   0.915   1.377  12.026 -2.0900  0.4301 -3.7011
 1099TIP3    H224789   0.795   1.434  12.099 -0.2302  0.6529 -0.7286
 1100TIP3   OH224790   2.091   5.914  10.527 -0.3803  0.3646  0.3059
 1100TIP3    H124791   2.184   5.899  10.546 -0.5433 -0.9900  0.1293
 1100TIP3    H224792   2.048   5.832  10.552 -1.7839  1.5875  1.9898
 1101TIP3   OH224793   6.746   4.077   2.206  0.4936 -0.4138 -0.8038
 1101TIP3    H124794   6.827   4.121   2.180  0.2298  0.3550 -0.3345
 1101TIP3    H224795   6.726   4.018   2.133  2.0848 -1.4370 -0.4402
 1102TIP3   OH224796   5.971   2.945   2.900  0.0565  0.0260  0.7051
 1102TIP3    H124797   5.884   2.910   2.879  0.1362  0.4029 -0.2522
 1102TIP3    H224798   5.972   3.032   2.860  0.6670  0.2524  1.2073
 1103TIP3   OH224799   3.595   1.320   6.311 -0.7237 -0.5990  0.2262
 1103TIP3    H124800   3.511   1.280   6.334 -0.8600 -1.7550 -2.1021
 1103TIP3    H224801   3.640   1.252   6.260  0.8818  0.6425 -0.0228
 1104TIP3   OH224802   5.927   3.080   3.141  0.4216 -0.2430  0.3508
 1104TIP3    H124803   6.008   3.111   3.182  0.5820 -1.7316  1.1940
 1104TIP3    H224804   5.951   3.063   3.050  1.0896 -0.7831  0.6217
 1105TIP3   OH224805   1.475   3.989  16.957 -0.5043 -0.4849  0.1466
 1105TIP3    H124806   1.547   4.020  16.902 -2.1691  0.4476 -1.5433
 1105TIP3    H224807   1.490   4.031  17.042 -0.4474  1.7112 -0.9161
 1106TIP3   OH224808   6.782   6.058  15.479  0.3556  0.0562  0.2992
 1106TIP3    H124809   6.716   5.989  15.487  1.1390 -0.9826 -1.6086
 1106TIP3    H224810   6.826   6.060  15.564 -0.0774 -1.4094  0.5738
 1107TIP3   OH224811   3.197   1.321  16.130 -0.5697  0.7413  0.2636
 1107TIP3    H124812   3.115   1.352  16.091 -0.6467 -0.5572 -0.6791
 1107TIP3    H224813   3.233   1.397  16.174 -1.6534  1.6660 -0.4024
 1108TIP3   OH224814   3.786   6.604   1.634  0.2148 -0.1889 -0.4439
 1108TIP3    H124815   3.707   6.556   1.657 -0.2287  1.0992  0.7851
 1108TIP3    H224816   3.858   6.549   1.664 -0.2738 -0.2531  0.6144
 1109TIP3   OH224817   6.510   4.340  12.158  0.3535 -0.1350 -0.0653
 1109TIP3    H124818   6.549   4.378  12.080  1.0244 -1.4339 -0.3724
 1109TIP3    H224819   6.584   4.303  12.207  0.3269  3.0873  2.5908
 1110TIP3   OH224820   1.818   6.222  16.881 -0.7215 -0.7598 -0.0615
 1110TIP3    H124821   1.749   6.158  16.865 -0.0110 -0.9308 -2.8276
 1110TIP3    H224822   1.889   6.194  16.823 -0.4105  2.5016 -1.3413
 1111TIP3   OH224823   5.018   6.327  11.664 -0.2544 -0.4908  0.2832
 1111TIP3    H124824   4.939   6.288  11.626 -1.6458  1.1575  1.3806
 1111TIP3    H224825   4.994   6.419  11.678  1.3965 -0.2944  1.9377
 1112TIP3   OH224826   4.886   6.507  17.125  0.0200  0.0593 -0.2531
 1112TIP3    H124827   4.865   6.441  17.190 -0.0492 -1.1460 -1.4629
 1112TIP3    H224828   4.824   6.578  17.141 -1.4547 -1.1732 -0.3989
 1113TIP3   OH224829   1.125   2.616   3.745  0.0292 -0.4129  0.4973
 1113TIP3    H124830   1.050   2.557   3.742  0.0578 -0.4386  0.2899
 1113TIP3    H224831   1.091   2.700   3.715  0.5514 -0.9203 -1.5753
 1114TIP3   OH224832   5.462   1.362  17.097 -0.4582 -0.4796 -0.7173
 1114TIP3    H124833   5.468   1.387  17.005  0.1102 -0.2693 -0.6240
 1114TIP3    H224834   5.420   1.437  17.139 -1.9042 -1.1056 -1.0127
 1115TIP3   OH224835   6.742   0.325  15.690 -0.6516 -0.6434  0.3289
 1115TIP3    H124836   6.818   0.314  15.747 -1.1318 -1.1057  0.8850
 1115TIP3    H224837   6.676   0.265  15.725 -0.5658 -1.7806 -1.3970
 1116TIP3   OH224838   5.340   6.786  15.715  0.2742  0.5115 -0.8398
 1116TIP3    H124839   5.394   6.864  15.716 -1.4423  1.7435 -1.2088
 1116TIP3    H224840   5.357   6.743  15.799  2.3167  0.4950 -1.2522
 1117TIP3   OH224841   3.096   5.134   5.065 -0.0461  0.3247 -0.1603
 1117TIP3    H124842   3.031   5.119   4.997  0.4687  1.9853 -1.0189
 1117TIP3    H224843   3.090   5.056   5.121 -1.6626 -0.2492 -1.1142
 1118TIP3   OH224844   5.846   3.641  13.308  0.0167  0.2645  0.1165
 1118TIP3    H124845   5.803   3.695  13.241 -0.1364 -1.4906 -1.2267
 1118TIP3    H224846   5.934   3.679  13.317 -1.0170  2.4958  1.2761
 1119TIP3   OH224847   1.837   0.752   0.966  0.5788  0.4951 -0.3653
 1119TIP3    H124848   1.931   0.737   0.974  0.1741 -1.3834  1.0119
 1119TIP3    H224849   1.809   0.693   0.896 -0.2824 -2.2165  2.1717
 1120TIP3   OH224850   1.691   0.145  12.941 -0.3093  0.1034 -0.0461
 1120TIP3    H124851   1.741   0.126  13.020  0.2117  0.1993 -0.3519
 1120TIP3    H224852   1.619   0.083  12.943  1.3206 -1.8813 -0.9821
 1121TIP3   OH224853   3.134   4.251  16.195  0.1585 -0.4259 -0.3476
 1121TIP3    H124854   3.229   4.262  16.197  0.1804 -0.7552  1.0470
 1121TIP3    H224855   3.120   4.159  16.218 -0.5197 -0.2248  0.0613
 1122TIP3   OH224856   1.202   0.329  15.084  0.4548 -0.6113 -0.0259
 1122TIP3    H124857   1.164   0.416  15.076  0.0696 -0.7328  0.4280
 1122TIP3    H224858   1.280   0.331  15.029 -0.0055 -0.2334 -0.6673
 1123TIP3   OH224859   3.386   4.870   4.570 -0.6288 -0.4095  0.2859
 1123TIP3    H124860   3.416   4.866   4.480 -1.8909  0.8261 -0.2093
 1123TIP3    H224861   3.433   4.944   4.608 -0.7973 -0.3384  0.3610
 1124TIP3   OH224862   4.655   4.015   5.016 -0.0669  0.3230  0.6166
 1124TIP3    H124863   4.704   3.949   4.966 -0.7225  0.4674 -0.2270
 1124TIP3    H224864   4.710   4.032   5.093  0.5349 -0.5487  0.3930
 1125TIP3   OH224865   0.239   2.276  12.570  0.2591 -0.5403  0.1130
 1125TIP3    H124866   0.238   2.365  12.535 -1.0152 -0.7526 -0.3874
 1125TIP3    H224867   0.283   2.284  12.655 -1.7006  0.9118  1.0173
 1126TIP3   OH224868   6.745   6.106   2.922  0.5568 -0.0080 -0.4670
 1126TIP3    H124869   6.655   6.072   2.919  0.5654 -0.1082  0.2779
 1126TIP3    H224870   6.741   6.178   2.985  0.4857  1.5450 -2.2028
 1127TIP3   OH224871   3.408   4.567  17.266 -0.2836 -0.0870  0.1055
 1127TIP3    H124872   3.501   4.588  17.274 -0.5462  0.6687  1.2637
 1127TIP3    H224873   3.398   4.533  17.177  0.6822  2.0018 -0.8306
 1128TIP3   OH224874   6.029   4.543   3.066  0.3644 -0.3692 -0.1517
 1128TIP3    H124875   5.943   4.537   3.025 -0.2289 -2.1442  1.2201
 1128TIP3    H224876   6.092   4.538   2.994 -0.6832 -0.1861 -1.0755
 1129TIP3   OH224877   2.287   5.569  13.321 -0.9548 -0.1495 -0.4212
 1129TIP3    H124878   2.380   5.549  13.320 -0.5423  1.4393  1.8566
 1129TIP3    H224879   2.266   5.582  13.414 -3.6214 -1.2890 -0.8218
 1130TIP3   OH224880   4.800   6.189  15.503 -0.5576 -0.3765  0.5023
 1130TIP3    H124881   4.871   6.129  15.477 -0.1269 -0.3893  1.6840
 1130TIP3    H224882   4.840   6.276  15.500 -0.5086 -0.3755  1.0855
 1131TIP3   OH224883   0.934   3.907   1.533 -0.1627  0.0179  0.1852
 1131TIP3    H124884   0.903   3.929   1.446  0.5322 -0.9032 -0.3143
 1131TIP3    H224885   1.030   3.902   1.524  0.0280  1.3009  1.3293
 1132TIP3   OH224886   6.075   0.041   6.886  0.0975 -0.1141 -0.6107
 1132TIP3    H124887   6.009  -0.027   6.873 -1.1851  0.9753  0.1086
 1132TIP3    H224888   6.075   0.091   6.805 -1.1498  0.8850 -0.0127
 1133TIP3   OH224889   6.439   5.541  15.516 -0.1772  0.4235 -0.1628
 1133TIP3    H124890   6.435   5.635  15.535  0.1097  0.3027  0.5499
 1133TIP3    H224891   6.529   5.516  15.541 -0.8911 -0.4441  1.6787
 1134TIP3   OH224892   3.097   6.004  12.987  0.2703  0.1490  0.0812
 1134TIP3    H124893   3.098   6.100  12.991  0.9007  0.1580 -0.1214
 1134TIP3    H224894   3.183   5.978  13.022 -0.1506 -0.3664  0.7412
 1135TIP3   OH224895   4.937   0.581  15.456 -0.0878 -0.0153  0.0428
 1135TIP3    H124896   4.971   0.491  15.454  2.1377  0.7739  0.6907
 1135TIP3    H224897   4.843   0.571  15.471 -0.2578 -2.3079 -2.2153
 1136TIP3   OH224898   6.214   4.867   3.773 -0.0879 -0.0947  0.0311
 1136TIP3    H124899   6.217   4.838   3.864 -0.8713 -2.4238 -0.6460
 1136TIP3    H224900   6.163   4.948   3.775 -1.1758 -0.7828  1.5214
 1137TIP3   OH224901   5.906   5.227  11.702  0.3123  0.1336  0.0761
 1137TIP3    H124902   5.981   5.198  11.650  0.4607  0.1963  0.2545
 1137TIP3    H224903   5.847   5.152  11.704  0.9749 -0.3680  1.0593
 1138TIP3   OH224904   5.611   2.799  17.043  0.2777  0.5563  0.2747
 1138TIP3    H124905   5.691   2.831  17.000  0.6415  0.7504  1.0991
 1138TIP3    H224906   5.575   2.875  17.088 -2.6597  1.5644 -3.4580
 1139TIP3   OH224907   4.010   2.274   0.793  0.4783  0.1914  0.6051
 1139TIP3    H124908   4.048   2.343   0.739 -0.3643  0.4178  0.3066
 1139TIP3    H224909   4.051   2.286   0.879 -0.0913  1.4028  0.7099
 1140TIP3   OH224910   0.043   2.547  14.633  1.0728  0.8697 -0.0767
 1140TIP3    H124911   0.053   2.530  14.539 -0.6740 -0.9732  0.0626
 1140TIP3    H224912  -0.035   2.499  14.659  0.7722  2.4222  2.0792
 1141TIP3   OH224913   0.820   4.209  14.295  0.2029 -0.1761  0.1400
 1141TIP3    H124914   0.905   4.193  14.254  0.2580 -0.5908  0.4200
 1141TIP3    H224915   0.773   4.127  14.284 -0.1003 -0.0010  0.1410
 1142TIP3   OH224916   6.382   5.243   6.013  0.4913 -0.4995  0.1162
 1142TIP3    H124917   6.305   5.276   6.059 -0.4854  1.6563 -2.9330
 1142TIP3    H224918   6.452   5.305   6.035  0.9137 -1.3751  1.3300
 1143TIP3   OH224919   5.818   3.307   3.262 -0.3970 -0.3619  0.2488
 1143TIP3    H124920   5.802   3.227   3.213  0.8099 -1.4935  1.6360
 1143TIP3    H224921   5.877   3.358   3.207 -0.7955 -0.6426 -0.4353
 1144TIP3   OH224922   2.591   3.841   4.545  0.0498  0.2025 -0.0075
 1144TIP3    H124923   2.518   3.843   4.608  0.3974 -1.5418  0.4679
 1144TIP3    H224924   2.551   3.810   4.464  0.5384 -2.4409  0.6982
 1145TIP3   OH224925   4.474   1.697   0.614  0.8361 -0.1073 -0.0213
 1145TIP3    H124926   4.498   1.612   0.576  0.7517 -0.2356  0.2090
 1145TIP3    H224927   4.378   1.696   0.616  0.7736  0.7500 -1.7286
 1146TIP3   OH224928   1.528   6.211   4.071 -0.1576  0.3995 -0.4286
 1146TIP3    H124929   1.480   6.133   4.043 -2.2596  1.6630 -0.4739
 1146TIP3    H224930   1.492   6.231   4.157  0.7254  1.0200 -0.2020
 1147TIP3   OH224931   3.463   1.574  15.721 -0.5290  0.1015  0.4217
 1147TIP3    H124932   3.455   1.538  15.633 -0.6907  1.8131 -0.2697
 1147TIP3    H224933   3.550   1.547  15.750  0.1860  0.9220 -0.9105
 1148TIP3   OH224934   4.206   1.388  15.661 -0.3157  0.1530  0.2881
 1148TIP3    H124935   4.249   1.398  15.576  1.4543 -0.0829  1.1300
 1148TIP3    H224936   4.182   1.295  15.664  0.0456  0.0566  0.2420
 1149TIP3   OH224937   6.262   6.272   2.316 -0.3265 -0.2454  0.3432
 1149TIP3    H124938   6.176   6.248   2.280 -0.2943  0.0629  0.0681
 1149TIP3    H224939   6.325   6.245   2.249 -0.2473  0.0659  0.2945
 1150TIP3   OH224940   6.008   6.654   1.644 -0.4695  0.1728  0.3154
 1150TIP3    H124941   5.954   6.632   1.568  0.4293 -1.1790  0.0509
 1150TIP3    H224942   6.089   6.689   1.607 -0.4371  0.4835  0.6754
 1151TIP3   OH224943   5.950   4.229  12.581  0.2617 -0.1322 -0.0782
 1151TIP3    H124944   5.892   4.153  12.581  1.3996 -1.0232 -1.8150
 1151TIP3    H224945   5.952   4.258  12.490 -1.0962  2.7352  0.7612
 1152TIP3   OH224946   4.554   5.224  16.789  0.2104 -0.1751 -0.1970
 1152TIP3    H124947   4.537   5.318  16.779  1.6837  0.1045 -0.1907
 1152TIP3    H224948   4.579   5.214  16.880  2.8526 -0.1048 -0.8867
 1153TIP3   OH224949   6.218   4.800  11.697  0.0325  0.7670  0.1423
 1153TIP3    H124950   6.290   4.747  11.663 -0.1749 -0.7737  2.0523
 1153TIP3    H224951   6.141   4.744  11.693 -0.6615  1.7043  0.0350
 1154TIP3   OH224952   3.632   1.761  11.820 -0.5769 -0.0708  0.3911
 1154TIP3    H124953   3.642   1.666  11.821 -2.9699 -0.3636 -1.4961
 1154TIP3    H224954   3.686   1.790  11.746 -2.2463 -0.3028 -0.9606
 1155TIP3   OH224955   0.589   0.702  12.152 -0.1923  0.0752  0.4763
 1155TIP3    H124956   0.531   0.654  12.092  1.5423 -0.5548 -0.7598
 1155TIP3    H224957   0.645   0.634  12.190  0.8478  0.8481  0.3543
 1156TIP3   OH224958   3.634   4.391   4.660  0.2034 -0.3584  0.6058
 1156TIP3    H124959   3.647   4.473   4.612  1.9106 -1.5425 -1.0396
 1156TIP3    H224960   3.547   4.362   4.633  1.1229 -0.9898 -1.8308
 1157TIP3   OH224961   5.366   1.388   1.118  0.1731 -0.0899 -0.2721
 1157TIP3    H124962   5.282   1.411   1.079 -0.4357  0.4875  1.3342
 1157TIP3    H224963   5.347   1.377   1.211  2.1472  1.5265  0.3634
 1158TIP3   OH224964   1.589   5.644   4.485  0.1076 -0.4688 -0.4542
 1158TIP3    H124965   1.640   5.586   4.541  0.0703  1.1767  1.3455
 1158TIP3    H224966   1.522   5.588   4.447  0.1343 -1.6376  1.1844
 1159TIP3   OH224967   0.416   0.950   2.836  0.3033  0.4194 -0.0917
 1159TIP3    H124968   0.407   0.856   2.852  1.0155  0.3023 -0.3577
 1159TIP3    H224969   0.497   0.975   2.880  0.7273  0.6735 -1.0064
 1160TIP3   OH224970   0.432   3.476   3.771 -0.0026  0.5604  0.1900
 1160TIP3    H124971   0.340   3.482   3.797 -0.1806  1.2174 -0.5709
 1160TIP3    H224972   0.430   3.456   3.677  0.6100  3.0768 -0.3953
 1161TIP3   OH224973   3.545   5.975  13.506 -0.1355  0.1779  0.0861
 1161TIP3    H124974   3.455   5.944  13.501  0.2942 -0.9293 -0.9072
 1161TIP3    H224975   3.538   6.069  13.488 -1.1131  0.1317  0.1827
 1162TIP3   OH224976   1.469   4.662   3.692 -0.1220 -0.9860 -0.0640
 1162TIP3    H124977   1.400   4.617   3.740 -1.2018 -0.4615 -1.0784
 1162TIP3    H224978   1.544   4.602   3.695 -0.7695 -1.7669  0.6692
 1163TIP3   OH224979   1.436   3.836  12.433 -0.1260  0.5709 -0.4715
 1163TIP3    H124980   1.516   3.819  12.482 -0.1511 -0.8071 -0.8854
 1163TIP3    H224981   1.421   3.756  12.383 -2.2461  0.4539  0.2723
 1164TIP3   OH224982   2.783   3.207  11.942  0.2300  0.1905 -0.3298
 1164TIP3    H124983   2.705   3.211  11.996 -0.2162 -2.9165 -0.6539
 1164TIP3    H224984   2.827   3.126  11.969  1.8047  0.3933 -2.1742
 1165TIP3   OH224985   6.076   0.551  16.049  0.0743 -0.6462  0.7027
 1165TIP3    H124986   6.153   0.502  16.078  0.6952  0.0579  0.2616
 1165TIP3    H224987   6.107   0.640  16.035 -0.4664 -0.6960 -0.9639
 1166TIP3   OH224988   2.659   0.497  12.798 -0.8031 -0.0130 -0.5148
 1166TIP3    H124989   2.735   0.446  12.824 -0.4837  0.4290 -0.5669
 1166TIP3    H224990   2.646   0.559  12.871  0.1729  1.3223 -1.4435
 1167TIP3   OH224991   1.041   3.514   1.507 -0.4085  0.0019 -0.0597
 1167TIP3    H124992   1.007   3.598   1.477 -2.9108 -0.5698  1.0777
 1167TIP3    H224993   1.072   3.531   1.596 -0.3642 -0.1497 -0.0463
 1168TIP3   OH224994   5.344   3.935  13.090 -0.9526  0.0460 -0.5856
 1168TIP3    H124995   5.389   3.904  13.011 -2.3833 -1.6804 -0.7676
 1168TIP3    H224996   5.332   3.856  13.143 -0.7802  1.0512  0.9758
 1169TIP3   OH224997   3.705   4.208   0.685  0.0980 -0.0562  0.0028
 1169TIP3    H124998   3.788   4.166   0.707  0.4319  0.5223 -0.1600
 1169TIP3    H224999   3.654   4.202   0.766  0.3669 -0.2454  0.1605
 1170TIP3   OH225000   1.534   2.296  14.620 -0.3423  0.1451 -0.4750
 1170TIP3    H125001   1.535   2.312  14.715 -2.8293  0.7251 -0.5198
 1170TIP3    H225002   1.591   2.220  14.608 -1.4060 -1.0575  1.7213
 1171TIP3   OH225003   3.201   2.399  17.112  0.1847  0.6233 -0.0417
 1171TIP3    H125004   3.125   2.429  17.161 -0.9355  0.9169 -1.9002
 1171TIP3    H225005   3.273   2.457  17.139  0.0480 -0.3331  2.5222
 1172TIP3   OH225006   1.815   3.170   1.169 -0.2177  0.0609 -0.1266
 1172TIP3    H125007   1.753   3.202   1.235 -0.3980 -1.1379  0.3038
 1172TIP3    H225008   1.897   3.157   1.217  0.0385  0.5147 -0.4404
 1173TIP3   OH225009   1.268   2.726  12.947 -0.2938 -0.3204  0.2611
 1173TIP3    H125010   1.358   2.757  12.933 -0.2944 -0.7710 -0.7603
 1173TIP3    H225011   1.235   2.780  13.019  0.3778  0.6903 -0.1848
 1174TIP3   OH225012   3.729   3.075  11.850  0.4358 -0.5463  0.3816
 1174TIP3    H125013   3.814   3.032  11.846  0.9870  0.6481 -1.0693
 1174TIP3    H225014   3.737   3.136  11.923  2.0113  1.9660 -1.8074
 1175TIP3   OH225015   2.215   4.390   1.612  0.4022 -0.2308 -0.0915
 1175TIP3    H125016   2.272   4.392   1.536 -0.3855  2.0569 -0.6712
 1175TIP3    H225017   2.247   4.461   1.668  0.1410 -1.0307  1.0863
 1176TIP3   OH225018   3.021   3.159   5.363 -0.0941  0.0668 -0.6913
 1176TIP3    H125019   3.034   3.089   5.427 -0.3201  1.6317  1.1381
 1176TIP3    H225020   2.932   3.190   5.381 -0.1193  0.5967 -1.7185
 1177TIP3   OH225021   0.426   6.271   0.995  0.7556  0.2818  0.2182
 1177TIP3    H125022   0.498   6.221   0.958  1.6269 -0.4666  2.7845
 1177TIP3    H225023   0.466   6.353   1.023 -0.1799  1.4352 -1.7638
 1178TIP3   OH225024   6.005   0.227   4.679  0.3616  0.0254  0.3151
 1178TIP3    H125025   6.028   0.145   4.637  0.2234  0.0425  0.2080
 1178TIP3    H225026   6.072   0.289   4.649 -0.1046  0.1961 -0.3827
 1179TIP3   OH225027   4.716   5.497  15.038  0.3720  0.0497 -0.1487
 1179TIP3    H125028   4.788   5.560  15.048  0.4565 -0.2011  0.8138
 1179TIP3    H225029   4.751   5.430  14.980  0.7209  0.2285 -0.1461
 1180TIP3   OH225030   4.013   4.075  12.626  0.1744  0.0694  0.3593
 1180TIP3    H125031   3.932   4.108  12.588  0.3385 -0.1800 -0.2177
 1180TIP3    H225032   4.021   4.119  12.710 -0.3936  0.3349  0.2693
 1181TIP3   OH225033   6.190   6.678   4.217  0.7233 -0.4488 -0.2139
 1181TIP3    H125034   6.208   6.754   4.273  1.2976  0.1901 -1.2574
 1181TIP3    H225035   6.095   6.664   4.227  0.9590 -0.9154  1.6106
 1182TIP3   OH225036   2.047   0.487   0.335  0.0193 -0.3569 -0.1138
 1182TIP3    H125037   2.036   0.467   0.427  1.8465 -1.1737 -0.0522
 1182TIP3    H225038   2.108   0.561   0.333 -0.9640  0.4437 -0.6150
 1183TIP3   OH225039   3.293   3.310   1.557  0.0863  0.8395  0.4947
 1183TIP3    H125040   3.348   3.384   1.583  0.3518  0.5529  0.7506
 1183TIP3    H225041   3.331   3.235   1.602 -0.4740  0.6260  0.6236
 1184TIP3   OH225042   2.950   5.806   3.298 -0.1249 -0.0849  0.1490
 1184TIP3    H125043   3.003   5.764   3.231 -1.5338 -1.3249 -0.2148
 1184TIP3    H225044   2.871   5.834   3.252 -0.7106 -0.1412  1.1028
 1185TIP3   OH225045   3.011   2.853   4.235 -0.3198 -0.1030 -0.1015
 1185TIP3    H125046   3.000   2.946   4.253 -1.2742 -0.0377 -0.9902
 1185TIP3    H225047   2.999   2.810   4.319 -0.8589  0.5019  0.1334
 1186TIP3   OH225048   1.276   3.944   3.206  0.3061  0.2655 -0.5177
 1186TIP3    H125049   1.208   3.876   3.206 -0.0128  0.5783 -0.7453
 1186TIP3    H225050   1.307   3.946   3.115 -0.2469  0.9675 -0.7013
 1187TIP3   OH225051   0.187   1.466   0.848 -0.3835  0.0567  0.1527
 1187TIP3    H125052   0.133   1.390   0.830  0.1319 -0.0440 -1.0090
 1187TIP3    H225053   0.254   1.465   0.780  2.0863 -0.7486  2.4901
 1188TIP3   OH225054   0.368   2.790  16.746  0.3157 -0.0968 -0.3841
 1188TIP3    H125055   0.402   2.720  16.690 -1.0890 -0.0577 -1.3145
 1188TIP3    H225056   0.415   2.868  16.718  2.2803 -0.7137  1.0196
 1189TIP3   OH225057   3.556   6.415   4.714  0.1927  0.0253  0.3316
 1189TIP3    H125058   3.623   6.400   4.647  0.0958 -1.4634  0.5600
 1189TIP3    H225059   3.480   6.445   4.665  0.5243  0.1768 -0.0932
 1190TIP3   OH225060   3.636   6.412   6.350 -0.5490 -0.1151 -0.1052
 1190TIP3    H125061   3.646   6.358   6.271  0.1563  0.2261 -0.2608
 1190TIP3    H225062   3.556   6.380   6.392 -0.0930 -1.3314 -0.1450
 1191TIP3   OH225063   0.964   2.130   2.857  0.2242  0.2393  0.2693
 1191TIP3    H125064   1.027   2.098   2.921  2.2888 -0.6655 -2.1432
 1191TIP3    H225065   0.901   2.058   2.847  1.2824 -0.5817 -0.5083
 1192TIP3   OH225066   2.294   4.020   0.002  0.2129 -0.3893  0.0979
 1192TIP3    H125067   2.389   4.012   0.003  0.3721  1.0447 -1.0093
 1192TIP3    H225068   2.278   4.114   0.015 -1.0282 -0.5924  0.1020
 1193TIP3   OH225069   2.972   6.501   1.767  0.3610  0.3090  0.0041
 1193TIP3    H125070   3.034   6.463   1.829 -0.8555  0.7580  1.5184
 1193TIP3    H225071   3.026   6.551   1.706  1.7010 -1.3548 -0.1865
 1194TIP3   OH225072   1.292   0.021  11.763 -0.3138 -0.2779 -0.3844
 1194TIP3    H125073   1.281   0.059  11.850 -0.8875 -1.5852  0.1291
 1194TIP3    H225074   1.310   0.096  11.706  3.0056  0.3146  1.3366
 1195TIP3   OH225075   2.899   1.178  15.960 -0.7877  0.1993 -0.7909
 1195TIP3    H125076   2.835   1.142  15.899 -1.8121  0.1251  0.3214
 1195TIP3    H225077   2.975   1.120  15.951 -1.8345 -1.2816 -0.2040
 1196TIP3   OH225078   6.312   4.301  17.100 -0.0031 -0.0834  0.0389
 1196TIP3    H125079   6.351   4.294  17.013 -0.1908 -0.5859 -0.0099
 1196TIP3    H225080   6.260   4.380  17.097  1.6595  1.0510  0.3671
 1197TIP3   OH225081   2.413   2.114   0.046 -0.6659 -0.3053  0.0621
 1197TIP3    H125082   2.411   2.061  -0.034 -2.1781  1.8124 -1.3436
 1197TIP3    H225083   2.506   2.118   0.069 -0.1751 -0.7470 -1.7262
 1198TIP3   OH225084   1.469   6.042   0.595  0.4625  0.2447  0.0279
 1198TIP3    H125085   1.516   6.113   0.551 -0.0645 -0.6009 -1.9493
 1198TIP3    H225086   1.534   5.973   0.606  0.1809 -0.1946 -0.9902
 1199TIP3   OH225087   5.129   4.490   3.805  0.4014 -0.5275 -0.1914
 1199TIP3    H125088   5.159   4.476   3.716  0.0416  0.0309 -0.4067
 1199TIP3    H225089   5.208   4.481   3.859  0.4346 -1.8470 -0.4610
 1200TIP3   OH225090   3.096   4.139  15.091  0.7285  0.0520 -0.0860
 1200TIP3    H125091   3.110   4.065  15.032 -1.1818  0.7660 -1.4723
 1200TIP3    H225092   3.111   4.217  15.037 -2.5250  0.7398 -0.1020
 1201TIP3   OH225093   2.571   0.367   0.797  0.3778 -0.4087 -0.4939
 1201TIP3    H125094   2.585   0.358   0.892 -0.6953  0.1667 -0.2797
 1201TIP3    H225095   2.604   0.454   0.776  3.2086 -1.5820 -1.1559
 1202TIP3   OH225096   6.527   3.816  12.982  0.1515  0.1148  0.5124
 1202TIP3    H125097   6.474   3.740  13.006 -0.2447 -0.0624 -0.8496
 1202TIP3    H225098   6.553   3.798  12.891  1.7005  0.6793  0.8372
 1203TIP3   OH225099   2.925   3.683   1.256  0.1402 -0.3031 -0.3758
 1203TIP3    H125100   2.857   3.616   1.246 -0.0044 -0.1884 -0.1610
 1203TIP3    H225101   2.995   3.639   1.305  0.4923 -0.6122 -1.1476
 1204TIP3   OH225102   3.620   5.677   0.234 -0.4246  0.8059 -0.6792
 1204TIP3    H125103   3.576   5.622   0.299 -1.7335  2.1354 -0.4069
 1204TIP3    H225104   3.558   5.685   0.162  0.2522  0.9159 -1.2617
 1205TIP3   OH225105   6.063   5.110  11.963 -0.2929 -0.1175  0.0962
 1205TIP3    H125106   6.001   5.069  11.903  1.5323 -2.0224 -0.5400
 1205TIP3    H225107   6.043   5.071  12.048 -0.0111 -0.7174 -0.1066
 1206TIP3   OH225108   5.551   5.900   1.877 -0.6518 -0.4245 -0.1429
 1206TIP3    H125109   5.469   5.851   1.880 -0.2060 -1.1039  1.5776
 1206TIP3    H225110   5.606   5.859   1.944  0.0189  1.9036  0.7804
 1207TIP3   OH225111   5.953   1.266  15.347  0.0416 -0.2886  0.2581
 1207TIP3    H125112   6.002   1.258  15.266  0.6857 -1.5636  0.7652
 1207TIP3    H225113   5.965   1.358  15.374 -0.0368  0.0901 -0.9736
 1208TIP3   OH225114   0.719   6.562  14.282  0.3057  0.6233  0.3682
 1208TIP3    H125115   0.788   6.556  14.348 -0.4816  2.4283  1.4010
 1208TIP3    H225116   0.644   6.599  14.329 -1.0473 -0.3441 -0.9771
 1209TIP3   OH225117   0.429   4.049   3.954  0.3109 -0.2731  0.3676
 1209TIP3    H125118   0.359   4.018   4.013 -1.9246  2.9354 -0.4902
 1209TIP3    H225119   0.457   3.970   3.909 -2.0645 -1.8416  1.4826
 1210TIP3   OH225120   5.169   1.285   0.392  0.0725 -0.0944  0.0363
 1210TIP3    H125121   5.131   1.214   0.340 -1.3383  0.5149  0.2174
 1210TIP3    H225122   5.194   1.243   0.475 -1.4156 -0.2463  0.4223
 1211TIP3   OH225123   1.142   2.037   0.379 -0.7796 -0.7531 -0.1402
 1211TIP3    H125124   1.158   1.986   0.459 -2.3024  0.0430  0.7016
 1211TIP3    H225125   1.154   2.128   0.406  0.1531 -0.5569 -1.1975
 1212TIP3   OH225126   5.949   0.357  13.719  0.3068  0.8292  0.2915
 1212TIP3    H125127   5.984   0.338  13.632 -2.7395 -1.5582 -0.4984
 1212TIP3    H225128   5.923   0.449  13.715 -0.1759  0.6337 -1.4923
 1213TIP3   OH225129   1.432   4.553   3.373 -0.6730 -0.7625 -0.1953
 1213TIP3    H125130   1.347   4.594   3.392 -1.4838 -1.5144 -2.0386
 1213TIP3    H225131   1.450   4.499   3.450  0.9769  3.8156  2.7723
 1214TIP3   OH225132   4.866   3.616  14.770 -0.4107  0.3560  0.2552
 1214TIP3    H125133   4.863   3.630  14.865 -0.7686 -2.2119  0.6524
 1214TIP3    H225134   4.777   3.589  14.747 -0.4224  1.3422 -0.8875
 1215TIP3   OH225135   3.809   2.886   1.209  0.1960 -0.4400 -0.2213
 1215TIP3    H125136   3.821   2.815   1.272  0.4426 -0.7055 -0.5611
 1215TIP3    H225137   3.733   2.861   1.158  0.6122 -0.7293 -0.7003
 1216TIP3   OH225138   0.687   0.433  13.748  0.6536  0.0148  0.1453
 1216TIP3    H125139   0.752   0.393  13.690  2.0273  0.3587  1.4165
 1216TIP3    H225140   0.703   0.392  13.833 -0.2633  0.7037  0.6514
 1217TIP3   OH225141   3.259   3.455   5.088  0.5039 -0.0905  0.4510
 1217TIP3    H125142   3.310   3.534   5.071  1.7360 -1.2129 -1.2455
 1217TIP3    H225143   3.179   3.466   5.037  1.6593 -0.8974 -1.5983
 1218TIP3   OH225144   0.972   0.735   0.004  0.6940  0.1069  0.0363
 1218TIP3    H125145   0.981   0.827  -0.021 -1.2477  0.0993 -0.7769
 1218TIP3    H225146   0.906   0.735   0.074 -0.0149 -0.7509 -0.6142
 1219TIP3   OH225147   4.565   6.066  15.408 -0.2938  0.3277 -0.2848
 1219TIP3    H125148   4.650   6.092  15.445  0.4854 -1.7698 -0.5369
 1219TIP3    H225149   4.577   6.071  15.314  0.0400 -1.4218 -0.3492
 1220TIP3   OH225150   4.558   3.665   3.892  0.1077 -0.1866 -0.0689
 1220TIP3    H125151   4.648   3.671   3.859 -0.1135 -2.7898 -1.2526
 1220TIP3    H225152   4.509   3.624   3.821 -1.4888 -1.1207  1.5217
 1221TIP3   OH225153   6.268   5.453  14.668 -0.5513 -0.4888 -0.9401
 1221TIP3    H125154   6.256   5.540  14.632  1.6758 -0.3813 -1.5026
 1221TIP3    H225155   6.314   5.467  14.751 -1.3057 -1.0574 -0.4119
 1222TIP3   OH225156   6.621   2.225  16.826 -0.0173  0.4065  0.6166
 1222TIP3    H125157   6.659   2.285  16.889 -0.6210 -1.4714  2.8424
 1222TIP3    H225158   6.543   2.270  16.793 -1.2208  0.3526  3.2585
 1223TIP3   OH225159   5.675   3.762  15.680 -0.0427 -0.0539  0.3217
 1223TIP3    H125160   5.705   3.849  15.704 -0.0419  0.2788 -0.8593
 1223TIP3    H225161   5.720   3.703  15.741  2.9428  0.4261 -1.3285
 1224TIP3   OH225162   4.065   4.159   4.254 -0.1372  0.0131  0.1144
 1224TIP3    H125163   4.073   4.075   4.210  1.1603 -0.2283  0.7995
 1224TIP3    H225164   4.041   4.137   4.344  3.3358  0.1841  1.1473
 1225TIP3   OH225165   3.392   0.481  12.583 -0.2100 -0.0254  0.0400
 1225TIP3    H125166   3.401   0.489  12.678 -0.3189  0.8381 -0.0196
 1225TIP3    H225167   3.467   0.428  12.556 -0.4213 -0.6532  0.6570
 1226TIP3   OH225168   1.310   3.349   3.814 -0.3068  0.6847 -0.3501
 1226TIP3    H125169   1.216   3.330   3.804 -0.2812  1.5567 -2.5307
 1226TIP3    H225170   1.347   3.328   3.728  1.6238 -0.2851  0.7049
 1227TIP3   OH225171   4.854   1.391  11.381  0.3186  0.0368  0.1126
 1227TIP3    H125172   4.833   1.299  11.401 -1.6282  0.4656  0.1197
 1227TIP3    H225173   4.938   1.406  11.424  0.9931 -1.9491 -0.4809
 1228TIP3   OH225174   3.783   1.485   1.967  0.3380  0.2720  0.0189
 1228TIP3    H125175   3.828   1.559   1.926 -2.1793  0.9744 -1.6151
 1228TIP3    H225176   3.720   1.524   2.027  0.8042 -0.6399  1.1235
 1229TIP3   OH225177   6.751   2.066  11.828 -0.0795  0.0752  0.3485
 1229TIP3    H125178   6.810   2.045  11.901  0.4292  0.3997  0.0300
 1229TIP3    H225179   6.728   2.158  11.843  0.2189  0.2113 -0.0393
 1230TIP3   OH225180   6.160   6.529  12.179 -0.7213  0.3438 -0.3721
 1230TIP3    H125181   6.138   6.444  12.216 -0.6919  0.4838 -0.0373
 1230TIP3    H225182   6.089   6.587  12.208 -0.1188  0.7056  0.3762
 1231TIP3   OH225183   0.648   5.838   1.431  0.1405 -0.0688 -0.0070
 1231TIP3    H125184   0.636   5.776   1.503 -1.2143 -1.9820 -1.8106
 1231TIP3    H225185   0.713   5.796   1.375 -0.4015  0.3786 -0.9786
 1232TIP3   OH225186   4.479   3.782  15.070 -0.4487 -0.1178 -0.2401
 1232TIP3    H125187   4.476   3.835  14.991  0.8404 -0.9484 -0.8623
 1232TIP3    H225188   4.497   3.845  15.141 -1.3272  0.5844 -0.6359
 1233TIP3   OH225189   2.680   2.105   0.048 -0.0159 -0.3067 -0.9154
 1233TIP3    H125190   2.725   2.072  -0.029  2.7179 -0.3661  0.6662
 1233TIP3    H225191   2.707   2.046   0.119 -2.9069 -0.5833  0.0224
 1234TIP3   OH225192   3.699   0.292  12.212  0.0012  0.2022 -0.3210
 1234TIP3    H125193   3.609   0.292  12.179 -0.6571 -0.5781  1.4434
 1234TIP3    H225194   3.742   0.364  12.165 -1.7234  1.0005 -0.6895
 1235TIP3   OH225195   2.456   5.220   1.321 -0.5439  0.4381 -0.2997
 1235TIP3    H125196   2.377   5.185   1.361 -1.0002  0.9638 -0.7402
 1235TIP3    H225197   2.464   5.308   1.356 -0.1704  0.3963 -0.2791
 1236TIP3   OH225198   1.002   6.397  13.216  0.0224 -0.8223 -0.0094
 1236TIP3    H125199   0.977   6.422  13.305 -0.3707  0.2886 -0.4250
 1236TIP3    H225200   1.094   6.424  13.209  0.3956 -1.9596  0.4385
 1237TIP3   OH225201   5.557   3.436   5.453 -0.0322  0.5039 -1.0088
 1237TIP3    H125202   5.581   3.349   5.487  1.8590  1.3816 -0.0247
 1237TIP3    H225203   5.545   3.490   5.532  0.4132  1.5344 -1.6371
 1238TIP3   OH225204   3.579   6.353   0.437  0.3378 -0.7089 -0.1724
 1238TIP3    H125205   3.588   6.428   0.378 -1.9185  0.8155  1.3450
 1238TIP3    H225206   3.518   6.295   0.392  0.0101 -0.3846 -0.1495
 1239TIP3   OH225207   0.862   5.708  12.446 -0.8615  0.4223  0.0260
 1239TIP3    H125208   0.874   5.620  12.479 -1.0309  1.1482  2.0662
 1239TIP3    H225209   0.855   5.763  12.524  0.2964  2.3809 -1.1979
 1240TIP3   OH225210   4.448   0.342  13.674 -0.1095 -0.1187  0.0049
 1240TIP3    H125211   4.363   0.362  13.713  0.3306  0.1829  0.8228
 1240TIP3    H225212   4.501   0.311  13.747  0.0653 -1.6654 -0.7508
 1241TIP3   OH225213   6.153   5.338  13.829  0.2480 -1.2705 -0.0852
 1241TIP3    H125214   6.196   5.381  13.903  0.3665 -2.3431  0.4835
 1241TIP3    H225215   6.098   5.405  13.790  0.4337 -0.6091  0.7846
 1242TIP3   OH225216   1.260   4.252  12.156  0.1470  0.8967  0.1501
 1242TIP3    H125217   1.246   4.259  12.251  2.5754  0.7671  0.5531
 1242TIP3    H225218   1.269   4.159  12.140 -1.2760  0.8333 -0.4036
 1243TIP3   OH225219   2.725   1.887  11.556 -0.1073  0.1604 -0.2044
 1243TIP3    H125220   2.761   1.971  11.584  1.9868 -0.3109 -1.3476
 1243TIP3    H225221   2.642   1.909  11.514  0.4119  1.6651 -0.4812
 1244TIP3   OH225222   6.192   0.976   4.335  0.2122 -0.0132 -0.3913
 1244TIP3    H125223   6.236   0.947   4.415  1.2646  1.7020 -0.3240
 1244TIP3    H225224   6.229   1.062   4.317 -0.0965 -0.3187 -2.6670
 1245TIP3   OH225225   6.001   2.338  15.583  0.1772  0.0596 -0.8797
 1245TIP3    H125226   5.977   2.421  15.541  0.7757  0.5469 -0.2666
 1245TIP3    H225227   6.023   2.280  15.510  3.9740  1.7428 -1.2016
 1246TIP3   OH225228   3.974   2.768  12.719  0.8121  0.1017 -0.4829
 1246TIP3    H125229   4.034   2.817  12.774  1.6975  1.6628 -2.7365
 1246TIP3    H225230   3.892   2.818  12.721  0.6524 -0.1789 -0.0839
 1247TIP3   OH225231   4.698   6.812  14.361  0.9095  0.3728  0.0041
 1247TIP3    H125232   4.681   6.905  14.377  1.1711  0.4106  0.0696
 1247TIP3    H225233   4.621   6.767  14.396  1.2751  0.4878  0.9753
 1248TIP3   OH225234   0.551   5.270  15.673 -0.1635 -0.3245  0.1622
 1248TIP3    H125235   0.507   5.197  15.629  0.0758 -0.4538  0.1365
 1248TIP3    H225236   0.569   5.332  15.602 -1.8050  0.4845  0.4248
 1249TIP3   OH225237   6.583   0.805   2.471  0.1644 -0.1950  0.0195
 1249TIP3    H125238   6.583   0.760   2.386  0.6244 -0.5842  0.2235
 1249TIP3    H225239   6.490   0.811   2.495  0.1007 -1.0727  0.0082
 1250TIP3   OH225240   3.988   3.731  12.422 -0.3001  0.5140 -0.4512
 1250TIP3    H125241   3.897   3.753  12.444 -0.0541  1.1324 -0.0572
 1250TIP3    H225242   4.017   3.673  12.493 -0.0194  1.2361  0.0292
 1251TIP3   OH225243   0.097   5.014   0.219 -0.5541  0.5407  0.1223
 1251TIP3    H125244   0.123   5.053   0.303 -2.2288  0.1638  0.8346
 1251TIP3    H225245   0.160   5.050   0.156  0.4170  1.2265  1.4415
 1252TIP3   OH225246   4.886   5.850  14.767 -0.4369 -0.0589  0.0070
 1252TIP3    H125247   4.960   5.879  14.820  0.1348 -0.5945 -0.5014
 1252TIP3    H225248   4.818   5.915  14.784  0.0818  0.3270  0.6240
 1253TIP3   OH225249   5.768   1.238  15.012 -0.7175 -0.0391  0.0266
 1253TIP3    H125250   5.816   1.166  15.054 -0.5230 -0.2160 -0.5015
 1253TIP3    H225251   5.830   1.277  14.951 -1.3138 -0.4377 -0.8474
 1254TIP3   OH225252   2.625   5.353   0.577  0.0008 -0.3629 -0.1065
 1254TIP3    H125253   2.692   5.348   0.508 -1.1832 -1.4359 -1.1986
 1254TIP3    H225254   2.676   5.356   0.658  1.4056 -2.1317 -0.8570
 1255TIP3   OH225255   4.433   0.236  17.247 -0.1319 -0.0244 -0.2063
 1255TIP3    H125256   4.417   0.280  17.331 -1.0927  1.1214 -0.9797
 1255TIP3    H225257   4.369   0.166  17.244  0.4426 -0.5881  0.3709
 1256TIP3   OH225258   5.996   0.185  14.373  0.1343  0.5157  0.5930
 1256TIP3    H125259   6.091   0.186  14.376  0.1295  1.4094  0.5830
 1256TIP3    H225260   5.972   0.274  14.345 -0.6210 -0.3897 -1.7134
 1257TIP3   OH225261   2.143   2.528  11.421  0.4374 -0.3859  0.8452
 1257TIP3    H125262   2.175   2.616  11.401  0.2125 -0.1868  1.3503
 1257TIP3    H225263   2.055   2.526  11.385  0.6275 -0.5797  0.3836
 1258TIP3   OH225264   4.189   2.813  14.553  0.0226  0.3060  0.1611
 1258TIP3    H125265   4.170   2.849  14.466  1.9685  0.5530 -0.1877
 1258TIP3    H225266   4.122   2.745  14.565 -0.3531  0.3448 -1.4823
 1259TIP3   OH225267   0.035   6.131  13.332 -0.0206  0.3166 -0.0777
 1259TIP3    H125268   0.053   6.210  13.382 -2.4713  0.0788  1.2057
 1259TIP3    H225269  -0.045   6.150  13.284  1.1461 -0.2305 -2.3416
 1260TIP3   OH225270   2.870   2.134  11.863  0.0449  0.4481  0.1815
 1260TIP3    H125271   2.905   2.094  11.942  1.0786  0.3272 -0.3260
 1260TIP3    H225272   2.936   2.199  11.837 -1.1515  1.7919  0.4450
 1261TIP3   OH225273   4.469   5.752  13.316  0.3813  0.4618  0.1968
 1261TIP3    H125274   4.410   5.717  13.249  0.4969  1.4885 -0.4522
 1261TIP3    H225275   4.427   5.833  13.345 -0.0448 -0.3608  1.9179
 1262TIP3   OH225276   4.253   4.198  12.053  0.3009  0.3379 -0.1440
 1262TIP3    H125277   4.193   4.173  11.983  1.0146  1.5463 -1.2158
 1262TIP3    H225278   4.198   4.203  12.131 -0.4074 -1.5147 -0.4976
 1263TIP3   OH225279   4.523   4.937  12.048  0.7498  0.0415  0.2315
 1263TIP3    H125280   4.616   4.914  12.037  1.1600  1.8168 -0.1291
 1263TIP3    H225281   4.520   5.032  12.035 -1.1000  0.0236  0.4241
 1264TIP3   OH225282   0.784   4.378   2.482 -0.1997  0.0953 -0.0439
 1264TIP3    H125283   0.832   4.304   2.519  0.3970 -0.7926 -2.4583
 1264TIP3    H225284   0.853   4.433   2.444 -0.9627 -0.4172 -2.2076
 1265TIP3   OH225285   3.860   2.376  15.714  0.2771  0.7176 -0.6906
 1265TIP3    H125286   3.855   2.281  15.726  0.5518  0.5069 -2.1698
 1265TIP3    H225287   3.946   2.390  15.673  1.5936  1.9152  2.3510
 1266TIP3   OH225288   2.247   2.801  11.379 -0.2283 -0.0620  0.0547
 1266TIP3    H125289   2.300   2.805  11.300 -2.3817  0.0756 -1.4264
 1266TIP3    H225290   2.283   2.869  11.436 -0.2106  1.5032 -1.7899
 1267TIP3   OH225291   3.951   2.582   2.593  0.1000  0.0392 -0.3243
 1267TIP3    H125292   4.038   2.542   2.584 -1.2306 -3.1862  0.3117
 1267TIP3    H225293   3.926   2.606   2.504  0.5539 -1.5077 -0.8900
 1268TIP3   OH225294   4.188   6.034   3.627  0.1778 -0.1174 -0.2164
 1268TIP3    H125295   4.170   6.109   3.684 -0.2662 -0.7978  0.5397
 1268TIP3    H225296   4.118   6.037   3.561  0.8513  0.8316 -0.9123
 1269TIP3   OH225297   0.566   2.090  11.617 -0.3828  0.6062 -0.3791
 1269TIP3    H125298   0.488   2.090  11.673  0.3496 -0.8385  0.6758
 1269TIP3    H225299   0.549   2.159  11.553 -1.1400  2.4441  1.7343
 1270TIP3   OH225300   6.147   1.945   4.272 -0.2092  0.3789  0.0331
 1270TIP3    H125301   6.055   1.953   4.249 -0.3701 -2.7438 -0.5719
 1270TIP3    H225302   6.188   1.905   4.195  1.4550  0.7746  0.6874
 1271TIP3   OH225303   0.862   3.933   3.420  0.4052 -0.3759 -0.1336
 1271TIP3    H125304   0.785   3.969   3.376 -1.0432 -0.8392  1.9440
 1271TIP3    H225305   0.936   3.972   3.374 -1.0792  0.7677 -1.6171
 1272TIP3   OH225306   6.729   2.666   3.025  0.4555 -0.2126  0.6511
 1272TIP3    H125307   6.739   2.728   2.952  0.3799  1.0530  1.6884
 1272TIP3    H225308   6.812   2.619   3.028  0.6887  0.1546  0.1294
 1273TIP3   OH225309   3.817   3.516   5.996 -0.4898  0.0656  0.1859
 1273TIP3    H125310   3.876   3.480   6.063  1.5520  0.8548 -1.1474
 1273TIP3    H225311   3.790   3.440   5.944  1.5273  0.0560 -0.8649
 1274TIP3   OH225312   1.588   0.748   2.424 -0.0481 -0.3554 -0.3430
 1274TIP3    H125313   1.512   0.723   2.371 -0.0998  1.0106 -0.9347
 1274TIP3    H225314   1.661   0.753   2.362 -0.0141  0.8278 -0.2201
 1275TIP3   OH225315   3.588   3.965   2.841 -0.0610 -0.1564  0.2775
 1275TIP3    H125316   3.578   3.995   2.750  1.9826 -2.0572 -0.6070
 1275TIP3    H225317   3.510   3.999   2.885 -0.2590  2.2528 -1.7697
 1276TIP3   OH225318   4.699   1.752   4.962 -0.4065  0.2313 -0.0414
 1276TIP3    H125319   4.773   1.702   4.928  0.0723  0.5072  0.5713
 1276TIP3    H225320   4.712   1.751   5.057  1.0864  3.7462 -0.1421
 1277TIP3   OH225321   3.283   0.571   2.014  0.0293 -0.4823 -0.4689
 1277TIP3    H125322   3.362   0.578   1.961  0.3690 -0.4594  0.0375
 1277TIP3    H225323   3.305   0.508   2.082  0.0570  0.4872  0.4471
 1278TIP3   OH225324   5.411   1.456   2.550  0.1603  0.3494  0.4671
 1278TIP3    H125325   5.350   1.436   2.621 -1.5767  0.8910 -0.8295
 1278TIP3    H225326   5.420   1.373   2.502  0.7182  0.1835  0.8550
 1279TIP3   OH225327   5.076   6.713   1.014  0.1271  0.5624 -0.8021
 1279TIP3    H125328   5.029   6.746   1.090  2.2859  0.1332  0.7699
 1279TIP3    H225329   5.086   6.789   0.957 -0.1114  1.2584  0.0833
 1280TIP3   OH225330   5.249   1.305  16.914 -0.0742 -0.2687  0.4659
 1280TIP3    H125331   5.239   1.250  16.836  0.8664  0.4024 -0.1466
 1280TIP3    H225332   5.295   1.249  16.977  0.6231 -0.2920 -0.0500
 1281TIP3   OH225333   4.004   5.632  14.298  0.3414  0.2747 -0.1787
 1281TIP3    H125334   4.046   5.547  14.312 -1.8436 -0.6366  1.1689
 1281TIP3    H225335   4.033   5.685  14.372  0.5551  0.2329 -0.2312
 1282TIP3   OH225336   1.503   0.013  16.622  0.0994 -0.6822  0.3631
 1282TIP3    H125337   1.581   0.069  16.623  0.0051 -0.5531  0.4988
 1282TIP3    H225338   1.494  -0.015  16.530  0.6961 -1.2442  0.4716
 1283TIP3   OH225339   1.096   1.243  15.438  0.1386  0.4632  0.1125
 1283TIP3    H125340   1.070   1.295  15.514  0.9136  0.3070  0.4884
 1283TIP3    H225341   1.043   1.277  15.366 -0.8080  0.4172  0.7848
 1284TIP3   OH225342   1.718   4.525   3.732 -0.6100 -0.0412  0.3194
 1284TIP3    H125343   1.800   4.507   3.687 -0.1578 -0.3168  1.2454
 1284TIP3    H225344   1.738   4.512   3.825 -0.9715  2.5956  0.7938
 1285TIP3   OH225345   0.946   1.289   0.043 -0.5587 -0.0684 -0.1745
 1285TIP3    H125346   0.965   1.372  -0.002  0.2256  0.1137  0.4611
 1285TIP3    H225347   0.877   1.312   0.106 -1.2519 -0.1947 -0.8815
 1286TIP3   OH225348   6.243   4.114   6.108 -0.2681  0.1600 -0.3897
 1286TIP3    H125349   6.160   4.127   6.062 -0.4864  1.1640  0.2693
 1286TIP3    H225350   6.222   4.131   6.200  0.4601 -0.5170 -0.0877
 1287TIP3   OH225351   4.206   5.130  10.381 -0.1844  0.2889  0.4667
 1287TIP3    H125352   4.112   5.146  10.379 -0.2408  0.0434  1.2616
 1287TIP3    H225353   4.245   5.217  10.367 -0.5218  0.3529 -0.1148
 1288TIP3   OH225354   0.328   6.350  11.334 -0.4581  0.1496 -0.1131
 1288TIP3    H125355   0.316   6.434  11.379  1.4908  0.1629  0.4268
 1288TIP3    H225356   0.249   6.300  11.355 -0.4449  0.8669  1.7478
 1289TIP3   OH225357   4.106   0.691   0.843 -0.4568 -0.2283 -0.0087
 1289TIP3    H125358   4.024   0.708   0.889 -1.6440 -2.1908 -1.3191
 1289TIP3    H225359   4.099   0.599   0.815  1.6022 -0.0189 -1.3032
 1290TIP3   OH225360   6.379   1.494  15.827  0.3411  0.0190  0.0830
 1290TIP3    H125361   6.298   1.444  15.832 -0.1619  0.3673 -3.3037
 1290TIP3    H225362   6.442   1.443  15.878 -2.1639  0.2194  3.5633
 1291TIP3   OH225363   5.730   6.453  16.525 -0.2718  0.3025  0.1102
 1291TIP3    H125364   5.769   6.528  16.570 -0.6945  0.6583 -0.1143
 1291TIP3    H225365   5.640   6.481  16.505 -0.3418 -0.1569 -0.2269
 1292TIP3   OH225366   3.190   2.593   0.447 -0.4231  0.0324  0.3319
 1292TIP3    H125367   3.266   2.565   0.499 -0.6001  1.2493  1.2670
 1292TIP3    H225368   3.114   2.574   0.502 -0.7352 -0.2980 -0.2099
 1293TIP3   OH225369   3.606   3.244  12.087  0.1325  0.0912  0.3678
 1293TIP3    H125370   3.542   3.295  12.038 -1.8051 -1.4121  1.2438
 1293TIP3    H225371   3.679   3.304  12.102 -0.4647  1.4343 -1.8340
 1294TIP3   OH225372   5.581   5.851  12.150  0.6385 -0.1804 -0.0610
 1294TIP3    H125373   5.574   5.850  12.246  0.5547 -1.0306 -0.0648
 1294TIP3    H225374   5.500   5.808  12.121  1.5382 -1.6619 -0.4403
 1295TIP3   OH225375   5.616   6.031  16.474 -0.4056 -0.1959 -0.1198
 1295TIP3    H125376   5.570   6.111  16.502  1.8047  1.1963 -0.3718
 1295TIP3    H225377   5.585   5.963  16.534 -2.0255  0.9192  0.3413
 1296TIP3   OH225378   0.192   5.438  11.489 -0.0551 -0.5149  0.0519
 1296TIP3    H125379   0.263   5.502  11.487  0.4849 -1.1103  0.3600
 1296TIP3    H225380   0.122   5.479  11.437  0.1712  0.4608  0.5052
 1297TIP3   OH225381   4.099   2.383   1.064 -0.7806  0.7517 -0.2753
 1297TIP3    H125382   4.120   2.463   1.112 -1.4764 -0.1289  1.5462
 1297TIP3    H225383   4.135   2.313   1.118 -0.1826 -0.1892 -1.8455
 1298TIP3   OH225384   3.840   5.312   0.508 -0.7448 -0.0636 -0.7059
 1298TIP3    H125385   3.927   5.280   0.485 -0.9707  0.2135 -1.9756
 1298TIP3    H225386   3.780   5.243   0.482 -0.8294 -0.7870  1.3085
 1299TIP3   OH225387   5.984   5.726   6.068 -0.4287 -0.1453 -0.4018
 1299TIP3    H125388   5.992   5.631   6.059 -0.4229 -0.0473 -1.4898
 1299TIP3    H225389   5.942   5.754   5.986  3.0111  1.2409 -1.7829
 1300TIP3   OH225390   1.504   1.390   1.754 -0.2221 -0.4974  0.4652
 1300TIP3    H125391   1.485   1.384   1.660 -0.7903 -0.3709  0.5726
 1300TIP3    H225392   1.431   1.439   1.790  0.8716  0.9941  0.6973
 1301TIP3   OH225393   2.729   4.007  12.245 -0.7058  0.1325 -0.0712
 1301TIP3    H125394   2.666   4.035  12.179 -0.6356  0.1466 -0.1320
 1301TIP3    H225395   2.809   3.987  12.195 -1.1716 -1.5230 -0.1816
 1302TIP3   OH225396   0.822   1.342  13.292 -0.4705 -0.2288 -0.2660
 1302TIP3    H125397   0.852   1.252  13.302  0.8966  0.3104  0.5867
 1302TIP3    H225398   0.873   1.376  13.219 -1.5291 -0.3569 -1.0842
 1303TIP3   OH225399   2.644   2.774   4.389 -0.1126  0.1858  0.6664
 1303TIP3    H125400   2.608   2.690   4.361  2.5647 -0.9936  0.5941
 1303TIP3    H225401   2.738   2.757   4.401  0.2717  2.8708  1.8023
 1304TIP3   OH225402   4.334   0.656   0.212 -0.3200  0.2863  0.2523
 1304TIP3    H125403   4.375   0.735   0.178  1.1219  0.5045  2.4261
 1304TIP3    H225404   4.255   0.687   0.256  0.1683  0.5275  0.9768
 1305TIP3   OH225405   4.873   4.447   4.096 -0.5394  0.1858 -0.0284
 1305TIP3    H125406   4.866   4.481   4.185  0.4286 -1.1084  0.5730
 1305TIP3    H225407   4.857   4.353   4.105  0.6728 -0.1388 -1.0311
 1306TIP3   OH225408   0.981   1.089   6.403 -0.3553  0.1582  0.5715
 1306TIP3    H125409   1.068   1.053   6.384  0.0965  1.0399  0.9276
 1306TIP3    H225410   0.920   1.022   6.372  0.4623 -0.8528  1.0954
 1307TIP3   OH225411   4.510   0.371   0.445 -0.0362 -1.0133  0.0652
 1307TIP3    H125412   4.455   0.375   0.367  0.6034 -2.0861 -0.4493
 1307TIP3    H225413   4.538   0.462   0.459  1.1056 -1.0313 -1.8790
 1308TIP3   OH225414   5.834   1.588  14.983  0.9860  0.5388 -0.1051
 1308TIP3    H125415   5.859   1.555  15.070 -2.6476 -2.7098 -0.1522
 1308TIP3    H225416   5.755   1.639  14.999  0.4263  0.1196 -1.4606
 1309TIP3   OH225417   5.553   6.232   1.224 -0.4204 -0.1205  0.1181
 1309TIP3    H125418   5.505   6.151   1.212 -2.1381  0.7306  1.0631
 1309TIP3    H225419   5.644   6.205   1.235 -0.9410 -1.8828  0.2127
 1310TIP3   OH225420   0.698   4.236   4.460  0.0697  0.3230  0.1753
 1310TIP3    H125421   0.735   4.187   4.533  2.1577  1.3472 -0.1441
 1310TIP3    H225422   0.687   4.171   4.390  0.8367 -0.1025  0.4405
 1311TIP3   OH225423   4.961   6.753  13.071  0.2244 -0.1764 -0.0806
 1311TIP3    H125424   4.938   6.780  13.160 -0.7476 -0.2244 -0.3111
 1311TIP3    H225425   5.049   6.787  13.058 -1.1280  3.4063 -0.5486
 1312TIP3   OH225426   0.009   4.459   3.397  0.0122  0.1278  0.0111
 1312TIP3    H125427  -0.086   4.470   3.390 -0.2451 -0.2241  2.4503
 1312TIP3    H225428   0.042   4.545   3.421  0.5287  0.6381 -2.3972
 1313TIP3   OH225429   0.271   0.333   5.188  0.0931  0.2806 -0.2009
 1313TIP3    H125430   0.328   0.259   5.211 -0.6382 -0.4191 -0.5773
 1313TIP3    H225431   0.330   0.407   5.178  0.8131 -0.1957  0.4486
 1314TIP3   OH225432   5.336   5.947  11.660 -0.5346 -0.0012 -0.0111
 1314TIP3    H125433   5.300   6.029  11.694 -0.3467  0.4330 -0.8457
 1314TIP3    H225434   5.378   5.971  11.578  0.5765 -0.7285  0.3303
 1315TIP3   OH225435   3.102   6.246   2.299 -0.6092 -0.5090 -0.5108
 1315TIP3    H125436   3.039   6.318   2.294  2.8440  2.7874  0.6608
 1315TIP3    H225437   3.170   6.269   2.235  2.2342 -0.9496  2.2506
 1316TIP3   OH225438   1.961   5.143  11.580 -0.6185  0.5176 -0.0179
 1316TIP3    H125439   2.044   5.112  11.616  0.2518  2.3398 -0.3763
 1316TIP3    H225440   1.942   5.083  11.508  0.6881  0.4069 -0.2802
 1317TIP3   OH225441   3.863   5.435  11.913 -0.2994  0.1885  0.3985
 1317TIP3    H125442   3.857   5.529  11.931 -0.4382  0.1500  0.5525
 1317TIP3    H225443   3.944   5.426  11.862 -0.6026  0.4665 -0.1384
 1318TIP3   OH225444   5.199   2.877  13.052 -0.1506  0.0990 -0.0793
 1318TIP3    H125445   5.107   2.893  13.031  0.0553  2.8297  0.9060
 1318TIP3    H225446   5.247   2.908  12.975  0.0687  1.3928  0.5549
 1319TIP3   OH225447   3.258   3.194   4.446 -0.3027  0.0996  0.7409
 1319TIP3    H125448   3.233   3.197   4.354  1.7290 -0.9854  0.1163
 1319TIP3    H225449   3.342   3.241   4.449  0.4926 -1.3546  1.7401
 1320TIP3   OH225450   4.141   1.465   5.275  0.5865  0.1441 -0.0281
 1320TIP3    H125451   4.175   1.554   5.263  0.5926  0.0469 -0.7269
 1320TIP3    H225452   4.200   1.426   5.340  0.5931  0.6421  0.2701
 1321TIP3   OH225453   5.358   5.721   1.882  0.3886  0.9208 -0.0437
 1321TIP3    H125454   5.397   5.689   1.964 -0.4138 -1.4912 -0.5685
 1321TIP3    H225455   5.306   5.647   1.850 -0.7085  2.4446 -1.8437
 1322TIP3   OH225456   2.979   1.531   4.069 -0.1348 -0.2967 -0.1311
 1322TIP3    H125457   2.999   1.442   4.039  0.5996 -0.6241  1.3232
 1322TIP3    H225458   2.979   1.525   4.164 -0.3179  1.2193 -0.0296
 1323TIP3   OH225459   6.299   4.255  15.958 -0.2508 -0.0557 -0.3895
 1323TIP3    H125460   6.286   4.241  16.052  0.0031  1.8519 -0.0609
 1323TIP3    H225461   6.377   4.204  15.937  1.5430  2.0103  1.0898
 1324TIP3   OH225462   5.257   1.245  15.475  0.2522  0.0072  0.1020
 1324TIP3    H125463   5.353   1.242  15.469  0.2280 -1.2153  0.1323
 1324TIP3    H225464   5.234   1.334  15.451  1.3835  0.1962 -0.3056
 1325TIP3   OH225465   3.404   3.487   2.040  0.5257  0.2125 -0.3447
 1325TIP3    H125466   3.413   3.432   2.119  1.1550 -0.1193 -0.6470
 1325TIP3    H225467   3.411   3.426   1.967 -1.3612  0.3302 -0.6598
 1326TIP3   OH225468   2.900   1.761  16.257 -0.4022 -0.2622 -0.2957
 1326TIP3    H125469   2.834   1.802  16.201 -0.2400  1.5549  0.7965
 1326TIP3    H225470   2.863   1.675  16.279 -2.2963  0.6374  0.0978
 1327TIP3   OH225471   1.776   5.336  13.958 -0.2968  0.5419  0.4072
 1327TIP3    H125472   1.855   5.388  13.972  0.7117 -0.7132 -0.4383
 1327TIP3    H225473   1.750   5.358  13.868  0.3359 -0.6367 -0.0804
 1328TIP3   OH225474   4.466   4.945  11.654 -0.0756  0.0540  0.5811
 1328TIP3    H125475   4.414   4.982  11.725  0.7253  0.1639  1.1167
 1328TIP3    H225476   4.517   4.875  11.696  0.9842  0.6370  0.2783
 1329TIP3   OH225477   6.288   3.748   0.799  0.0953 -0.2298 -0.2765
 1329TIP3    H125478   6.287   3.728   0.706  0.9003  1.6189 -0.7027
 1329TIP3    H225479   6.201   3.783   0.818  0.0132 -0.3809 -0.3730
 1330TIP3   OH225480   5.876   6.671   0.764 -0.1078  0.5728  0.5874
 1330TIP3    H125481   5.902   6.723   0.688  0.0738 -0.5851 -0.1687
 1330TIP3    H225482   5.956   6.664   0.816 -0.2354  1.3805  0.8999
 1331TIP3   OH225483   5.422   5.839  12.829  0.0003 -0.1012  0.2034
 1331TIP3    H125484   5.356   5.818  12.896  1.2443 -3.0271  0.5807
 1331TIP3    H225485   5.431   5.758  12.779  1.5372  1.0373 -1.3923
 1332TIP3   OH225486   3.168   1.408   2.992 -0.0452  0.3019 -0.5511
 1332TIP3    H125487   3.104   1.469   2.954  2.5419  2.4241 -1.6118
 1332TIP3    H225488   3.159   1.328   2.940 -0.4468  1.2784 -2.0025
 1333TIP3   OH225489   4.226   2.607   2.867  0.6890  0.6430  0.5347
 1333TIP3    H125490   4.257   2.587   2.779 -0.8184  2.4995 -0.4695
 1333TIP3    H225491   4.283   2.677   2.898 -0.2989  1.6758  0.0512
 1334TIP3   OH225492   0.445   4.099  12.917  0.3207 -0.0234 -0.0509
 1334TIP3    H125493   0.352   4.120  12.917  0.1239 -0.8899 -0.6743
 1334TIP3    H225494   0.475   4.123  13.005 -0.9645 -1.8773  0.9173
 1335TIP3   OH225495   1.828   4.607  14.802  0.1401 -0.0943  0.3945
 1335TIP3    H125496   1.787   4.599  14.716 -0.6770 -1.3790  0.8933
 1335TIP3    H225497   1.815   4.522  14.843 -2.5410  1.5432  3.1407
 1336TIP3   OH225498   1.136   5.947   0.079 -0.2125  0.5216  0.3308
 1336TIP3    H125499   1.177   6.031   0.099 -2.0478  1.5653 -0.1793
 1336TIP3    H225500   1.183   5.915   0.002 -1.6212  2.6649 -1.4689
 1337TIP3   OH225501   4.461   1.718  12.270 -0.1849 -0.0104 -0.1779
 1337TIP3    H125502   4.430   1.656  12.205  0.7360 -0.3919 -0.2506
 1337TIP3    H225503   4.544   1.751  12.236 -0.0740  0.3602  0.4293
 1338TIP3   OH225504   6.413   2.502   3.342 -0.5068 -0.6601 -0.0794
 1338TIP3    H125505   6.436   2.588   3.377 -1.1457 -0.4744 -0.0993
 1338TIP3    H225506   6.496   2.463   3.317 -0.0442 -0.7337  1.5045
 1339TIP3   OH225507   5.191   1.290   4.815  0.0704 -0.0885  0.4756
 1339TIP3    H125508   5.225   1.321   4.899 -1.2263 -0.9418  1.3354
 1339TIP3    H225509   5.174   1.370   4.765 -0.7680  0.5106  1.6808
 1340TIP3   OH225510   4.963   4.504   1.308  0.0074 -0.5493  0.1984
 1340TIP3    H125511   4.914   4.527   1.229 -1.2896  1.4697  1.5461
 1340TIP3    H225512   5.048   4.547   1.296 -0.4641  0.4059  0.2435
 1341TIP3   OH225513   3.019   6.159   2.003 -0.4406  0.6228 -0.2905
 1341TIP3    H125514   2.970   6.117   1.933 -1.1846  1.3428 -0.2122
 1341TIP3    H225515   2.983   6.123   2.084  0.2175  0.0110 -0.2624
 1342TIP3   OH225516   6.096   6.003   2.070  0.5042 -0.5895 -0.2918
 1342TIP3    H125517   6.141   5.979   2.151  1.9333 -0.9474 -1.1669
 1342TIP3    H225518   6.005   6.016   2.096  0.3446 -3.6130  0.8329
 1343TIP3   OH225519   0.456   1.609   5.944 -0.0712 -0.1323  0.3896
 1343TIP3    H125520   0.550   1.609   5.928 -0.0839  1.8112  0.2847
 1343TIP3    H225521   0.432   1.516   5.941  1.9309 -0.7052  1.0245
 1344TIP3   OH225522   2.030   5.538  12.866 -0.6115  0.7467 -0.2523
 1344TIP3    H125523   1.950   5.575  12.904  0.2004  2.0184  0.2691
 1344TIP3    H225524   2.067   5.609  12.814  1.6717  1.1769  1.8297
 1345TIP3   OH225525   0.856   1.224  11.609 -0.2771 -0.5358  0.3683
 1345TIP3    H125526   0.824   1.152  11.555  0.2815  0.7163 -1.6878
 1345TIP3    H225527   0.809   1.301  11.577  1.1951  0.4866  0.5959
 1346TIP3   OH225528   2.210   2.195  14.215 -0.4777  0.5626 -0.1293
 1346TIP3    H125529   2.208   2.137  14.138  1.6810 -0.8022  0.7973
 1346TIP3    H225530   2.177   2.279  14.182  0.6817  0.0945 -2.6259
 1347TIP3   OH225531   6.202   4.388  16.409 -0.4877 -0.0619  0.5944
 1347TIP3    H125532   6.249   4.407  16.490  1.0209  0.7261 -0.4240
 1347TIP3    H225533   6.142   4.462  16.399  0.6554  0.8040  0.0454
 1348TIP3   OH225534   3.360   3.339  14.347  0.0034 -0.2582  0.5499
 1348TIP3    H125535   3.307   3.317  14.424  0.3242  0.2149  0.9161
 1348TIP3    H225536   3.439   3.380  14.384 -0.5723  1.4916 -0.0873
 1349TIP3   OH225537   6.157   2.981  15.998 -0.0800 -0.2458  0.1017
 1349TIP3    H125538   6.121   2.993  15.910 -0.8606  0.1019  0.4575
 1349TIP3    H225539   6.237   2.931  15.985 -0.2608 -0.3125 -0.7969
 1350TIP3   OH225540   1.807   1.347   5.710 -0.3684 -0.4604  0.2173
 1350TIP3    H125541   1.779   1.429   5.670 -1.0543  0.7356  3.0624
 1350TIP3    H225542   1.731   1.289   5.703 -0.5677 -0.1768  0.0647
 1351TIP3   OH225543   1.008   3.738   3.083  0.3731 -0.1729 -0.7282
 1351TIP3    H125544   1.066   3.732   3.007  0.6543 -1.1228 -0.4462
 1351TIP3    H225545   0.929   3.780   3.049  0.0894 -1.5083 -1.7896
 1352TIP3   OH225546   6.487   1.331  11.087 -0.3698 -0.0756  0.9202
 1352TIP3    H125547   6.515   1.249  11.047 -1.2400 -0.5283  1.2363
 1352TIP3    H225548   6.566   1.364  11.131  1.1002  1.2955 -2.5247
 1353TIP3   OH225549   3.611   6.158   2.745  0.0664 -0.2875  0.0490
 1353TIP3    H125550   3.598   6.179   2.653  1.5558  1.3747  0.1905
 1353TIP3    H225551   3.696   6.114   2.747  0.6608  0.8606  0.7755
 1354TIP3   OH225552   1.050   0.669  16.000  0.0916  0.1595  0.4454
 1354TIP3    H125553   1.095   0.631  15.925  1.9563 -0.7258  1.9611
 1354TIP3    H225554   0.957   0.648  15.986  0.2539  1.1988 -2.2494
 1355TIP3   OH225555   6.573   2.878  11.397  0.2365 -0.5483  0.1583
 1355TIP3    H125556   6.513   2.859  11.470  0.0467  0.2815  0.2255
 1355TIP3    H225557   6.573   2.974  11.391  1.2720 -0.5637 -0.0819
 1356TIP3   OH225558   1.666   3.010  15.628 -0.6751  0.3402 -0.5733
 1356TIP3    H125559   1.734   3.026  15.694 -0.4756  1.1194 -0.9693
 1356TIP3    H225560   1.602   3.079  15.641 -1.9964 -1.0690  0.5617
 1357TIP3   OH225561   6.257   6.775  13.433  0.1842 -0.3920  0.2300
 1357TIP3    H125562   6.281   6.725  13.511 -1.5970 -1.9559 -0.1689
 1357TIP3    H225563   6.309   6.736  13.363  2.2350  1.4108  0.7011
 1358TIP3   OH225564   0.981   2.660  15.733 -0.4307 -0.1075 -0.2838
 1358TIP3    H125565   0.937   2.583  15.769 -0.8728  0.0809 -0.4173
 1358TIP3    H225566   0.940   2.672  15.647  0.6795 -0.6141 -0.8985
 1359TIP3   OH225567   2.946   2.683  16.268 -0.3112  0.0100 -0.0904
 1359TIP3    H125568   3.040   2.666  16.267 -0.6374 -1.8924 -1.0334
 1359TIP3    H225569   2.933   2.743  16.342  1.5370 -0.2659  0.4783
 1360TIP3   OH225570   1.802   0.654  13.695 -0.3315 -0.7814 -0.3845
 1360TIP3    H125571   1.828   0.612  13.612 -1.4922 -3.6126  0.6242
 1360TIP3    H225572   1.712   0.683  13.680  0.3602  1.1547 -0.9680
 1361TIP3   OH225573   2.275   6.644  10.915  0.0590  0.5617  0.4508
 1361TIP3    H125574   2.290   6.683  11.001  0.4433  0.8355  0.2610
 1361TIP3    H225575   2.255   6.553  10.934  0.6807  0.4947  0.7968
 1362TIP3   OH225576   5.485   6.776  13.030 -0.4970 -0.2974  0.4272
 1362TIP3    H125577   5.390   6.782  13.022 -0.3780  2.1207  0.3560
 1362TIP3    H225578   5.505   6.818  13.114  0.4573 -1.2950  0.7088
 1363TIP3   OH225579   1.186   5.447   2.246 -0.2150  0.3661 -0.7574
 1363TIP3    H125580   1.144   5.464   2.331  0.5615  1.5240 -0.5988
 1363TIP3    H225581   1.117   5.408   2.193 -0.8671  0.1471  0.2300
 1364TIP3   OH225582   0.853   3.210   1.903  0.0821  0.5249  0.0101
 1364TIP3    H125583   0.810   3.126   1.918  1.0831  0.1574  0.8932
 1364TIP3    H225584   0.862   3.248   1.990  1.7529  0.4699 -0.1169
 1365TIP3   OH225585   4.021   3.685   1.090 -0.1559 -0.2264 -0.5057
 1365TIP3    H125586   4.035   3.778   1.073  1.4406 -0.3852 -0.1611
 1365TIP3    H225587   4.087   3.641   1.036  0.2464 -1.0640  0.6480
 1366TIP3   OH225588   4.619   3.357   3.932 -0.5152  0.1101 -0.0065
 1366TIP3    H125589   4.675   3.421   3.978 -0.2541  0.7564 -1.2075
 1366TIP3    H225590   4.642   3.367   3.840 -2.1945 -0.0345 -0.4569
 1367TIP3   OH225591   3.552   6.508   5.844  0.0168 -0.3692 -0.2048
 1367TIP3    H125592   3.578   6.594   5.810 -2.3995  0.1553 -0.8525
 1367TIP3    H225593   3.488   6.528   5.913 -0.4932 -1.6358 -0.3025
 1368TIP3   OH225594   0.891   1.601   2.998 -0.5216  0.1469  0.3628
 1368TIP3    H125595   0.830   1.572   3.066 -0.6739 -0.1831  0.0879
 1368TIP3    H225596   0.854   1.567   2.916 -0.9561  1.4989 -0.0226
 1369TIP3   OH225597   2.138   3.882   0.206 -0.3748 -0.0124 -0.1684
 1369TIP3    H125598   2.147   3.941   0.131  1.0144 -0.9887 -0.7857
 1369TIP3    H225599   2.112   3.798   0.168 -2.5444  0.2079  0.7233
 1370TIP3   OH225600   1.532   0.682   4.477  0.5371 -0.1158 -0.2463
 1370TIP3    H125601   1.607   0.684   4.416  0.6867 -1.2091 -0.1054
 1370TIP3    H225602   1.476   0.613   4.443  0.6116 -0.7212  0.8443
 1371TIP3   OH225603   6.205   6.516   1.238  0.6305  0.6213 -0.0144
 1371TIP3    H125604   6.287   6.496   1.284  0.9995  2.5819  0.2261
 1371TIP3    H225605   6.229   6.521   1.146  0.7370  0.9445  0.0302
 1372TIP3   OH225606   1.477   6.544  12.956 -0.0060  0.2469  0.4449
 1372TIP3    H125607   1.547   6.479  12.945  0.7505  1.1011  0.1636
 1372TIP3    H225608   1.452   6.566  12.866 -0.4505  0.1474  0.5443
 1373TIP3   OH225609   3.391   0.357   6.553 -0.1376  0.6369  0.3390
 1373TIP3    H125610   3.483   0.383   6.543 -0.2362  1.3384  1.1710
 1373TIP3    H225611   3.349   0.390   6.473  0.8057 -2.0059 -1.3038
 1374TIP3   OH225612   4.127   4.926   3.971 -0.0956  0.3604  0.5313
 1374TIP3    H125613   4.181   4.971   3.906 -1.0713  1.7376  0.6543
 1374TIP3    H225614   4.060   4.881   3.919 -0.4025  0.8163  0.5257
 1375TIP3   OH225615   3.446   2.102   5.316  0.0943 -0.1683  0.2139
 1375TIP3    H125616   3.437   2.103   5.412 -0.0129  0.4876  0.2045
 1375TIP3    H225617   3.397   2.179   5.287  0.4178 -0.1689 -0.3455
 1376TIP3   OH225618   3.026   3.952   3.285  0.1324  0.4574 -0.0641
 1376TIP3    H125619   2.996   4.017   3.349 -2.0609 -3.3358  2.9776
 1376TIP3    H225620   3.102   3.912   3.325 -0.5846 -1.1869 -0.3228
 1377TIP3   OH225621   6.336   4.795   4.071  0.7013 -0.3258 -0.3329
 1377TIP3    H125622   6.369   4.869   4.019  1.9899 -0.8085 -0.2048
 1377TIP3    H225623   6.378   4.805   4.156  0.9796 -1.2786 -0.3538
 1378TIP3   OH225624   1.835   2.531   6.548  0.0691  0.4372 -0.1611
 1378TIP3    H125625   1.889   2.587   6.492  0.1044  2.3960  1.7362
 1378TIP3    H225626   1.782   2.480   6.487  1.9185  0.6184 -2.0052
 1379TIP3   OH225627   5.286   4.772   4.682  0.4635 -0.0441  0.1524
 1379TIP3    H125628   5.344   4.768   4.607  0.0077  0.0642 -0.2069
 1379TIP3    H225629   5.217   4.833   4.656  0.8182  0.7371  1.0240
 1380TIP3   OH225630   6.578   2.801   0.674 -0.5208 -0.3828  0.3767
 1380TIP3    H125631   6.601   2.741   0.745  0.6018  0.4478  0.7346
 1380TIP3    H225632   6.605   2.756   0.594 -0.7371 -0.8326  0.5545
 1381TIP3   OH225633   3.300   4.366   4.277 -0.0074  0.0026 -0.2284
 1381TIP3    H125634   3.299   4.445   4.223 -2.2827  0.4805  0.4574
 1381TIP3    H225635   3.383   4.371   4.325  2.0934 -0.4735 -3.6567
 1382TIP3   OH225636   3.696   4.454   0.537  0.5628  0.4749 -0.4192
 1382TIP3    H125637   3.608   4.441   0.501  0.3192  1.1892 -0.0952
 1382TIP3    H225638   3.705   4.386   0.604  0.5444 -0.0690 -0.9655
 1383TIP3   OH225639   0.746   2.202   0.969  0.2812  0.1101 -0.6823
 1383TIP3    H125640   0.683   2.190   1.040 -2.2607 -0.3310 -2.9095
 1383TIP3    H225641   0.750   2.297   0.957 -0.6787  0.1102 -1.0903
 1384TIP3   OH225642   3.976   4.386   4.022 -0.3136 -0.3771 -0.4012
 1384TIP3    H125643   4.024   4.304   4.030  3.1141  1.4963 -1.1222
 1384TIP3    H225644   3.943   4.403   4.110 -0.2666 -2.0271 -0.0470
 1385TIP3   OH225645   4.666   6.264  15.757 -0.0275 -0.5069 -0.1558
 1385TIP3    H125646   4.626   6.351  15.757 -0.2270 -0.5997 -0.0372
 1385TIP3    H225647   4.680   6.244  15.664  0.8541  0.0385 -0.1551
 1386TIP3   OH225648   2.136   4.201   5.972  0.1970  0.2877 -0.0351
 1386TIP3    H125649   2.213   4.197   6.029 -0.2790 -1.9258  0.5191
 1386TIP3    H225650   2.068   4.240   6.026  0.5422  0.9093 -0.0509
 1387TIP3   OH225651   0.263   3.567   0.310  0.6922 -0.1689 -0.1645
 1387TIP3    H125652   0.253   3.524   0.225 -1.9674  0.1527 -0.0629
 1387TIP3    H225653   0.237   3.658   0.295  1.5080  0.2135  0.6967
 1388TIP3   OH225654   4.386   0.570   2.914 -0.0326  0.1430 -0.1084
 1388TIP3    H125655   4.315   0.564   2.850 -0.5923 -0.0877  0.5370
 1388TIP3    H225656   4.346   0.610   2.991  0.4815 -0.1912  0.3358
 1389TIP3   OH225657   5.702   6.111  14.949  0.2855 -0.5496  0.5999
 1389TIP3    H125658   5.727   6.196  14.985  1.2902 -1.1218  1.2603
 1389TIP3    H225659   5.735   6.112  14.859 -0.1265 -0.0648  0.4465
 1390TIP3   OH225660   5.477   2.755   1.148 -0.2718 -0.4604  0.2501
 1390TIP3    H125661   5.496   2.700   1.072  0.5333 -0.4152  0.4066
 1390TIP3    H225662   5.561   2.761   1.194  0.6236  3.9612 -1.7601
 1391TIP3   OH225663   5.272   1.379   5.058  0.4190 -0.3199  0.3408
 1391TIP3    H125664   5.225   1.449   5.105 -3.8322 -2.8120  0.0505
 1391TIP3    H225665   5.249   1.299   5.105  0.1487 -2.2619 -2.9462
 1392TIP3   OH225666   6.819   2.147   5.229 -0.5901  0.8439  0.4130
 1392TIP3    H125667   6.893   2.166   5.287 -1.7630  0.3641  2.0727
 1392TIP3    H225668   6.758   2.095   5.282 -1.0727 -0.7739 -1.6508
 1393TIP3   OH225669   1.024   5.797  16.323  0.3514 -0.1024  0.4722
 1393TIP3    H125670   0.967   5.720  16.318  1.0991 -0.7646  1.8645
 1393TIP3    H225671   1.089   5.782  16.254 -0.4411  0.0683 -0.3188
 1394TIP3   OH225672   4.893   2.276   3.271  0.6508  0.0181  0.0681
 1394TIP3    H125673   4.955   2.298   3.201  1.7103  0.9356  1.2641
 1394TIP3    H225674   4.864   2.187   3.249  1.0593  0.2382 -1.4600
 1395TIP3   OH225675   0.912   1.894   4.295  0.4607  0.5038  0.1745
 1395TIP3    H125676   0.973   1.845   4.349 -0.8928  0.5952  1.8221
 1395TIP3    H225677   0.838   1.834   4.282  0.8105  0.4365 -1.6847
 1396TIP3   OH225678   0.487   1.026  15.952  0.2025 -0.0962 -0.0541
 1396TIP3    H125679   0.484   0.975  16.033 -2.4123  1.1912  0.7266
 1396TIP3    H225680   0.447   1.109  15.975  1.1111  0.9734 -2.2331
 1397TIP3   OH225681   3.248   2.423  12.589 -0.1759 -0.0626  0.4248
 1397TIP3    H125682   3.229   2.479  12.513 -0.6654  0.4298  0.9114
 1397TIP3    H225683   3.187   2.453  12.657  0.1455 -0.6184  0.9597
 1398TIP3   OH225684   5.046   1.782  14.023 -0.2666  0.1588  0.1277
 1398TIP3    H125685   5.029   1.804  13.931  0.4198  1.7376  0.3706
 1398TIP3    H225686   4.961   1.793  14.066 -0.2593  0.9097 -0.0378
 1399TIP3   OH225687   1.847   3.601   0.537  0.1703 -0.3238 -0.2459
 1399TIP3    H125688   1.892   3.518   0.526 -0.4905 -0.8627  0.9789
 1399TIP3    H225689   1.849   3.617   0.632  0.2866  1.0538 -0.4626
 1400TIP3   OH225690   5.683   3.947  12.262 -0.6582  0.3363 -0.1903
 1400TIP3    H125691   5.651   4.014  12.322 -2.2956  0.0200 -0.6658
 1400TIP3    H225692   5.630   3.870  12.282  1.1321 -0.7934  0.2788
 1401TIP3   OH225693   3.148   6.811  14.762  0.3199  0.3632 -0.5033
 1401TIP3    H125694   3.230   6.814  14.813  0.5578  0.4177 -0.8874
 1401TIP3    H225695   3.128   6.718  14.755  0.2982  0.3549 -0.3229
 1402TIP3   OH225696   4.363   6.564  13.291 -0.2318 -0.1191 -0.3051
 1402TIP3    H125697   4.426   6.507  13.249 -0.3868  0.0807 -0.8155
 1402TIP3    H225698   4.308   6.505  13.343  1.1831 -0.1550  1.2053
 1403TIP3   OH225699   5.366   6.664  14.641  0.5300 -0.6889 -0.0533
 1403TIP3    H125700   5.344   6.621  14.558  0.1941  1.3556 -1.0441
 1403TIP3    H225701   5.295   6.638  14.700 -0.4573 -0.3364 -1.0548
 1404TIP3   OH225702   0.539   3.348  15.932 -0.1575 -0.1673  0.0873
 1404TIP3    H125703   0.538   3.440  15.959 -1.7109 -0.0606 -0.2979
 1404TIP3    H225704   0.500   3.301  16.006  1.0821 -0.5790  0.4871
 1405TIP3   OH225705   2.996   0.222   5.131 -0.0569 -0.4512  0.3574
 1405TIP3    H125706   3.047   0.164   5.075  1.1451  1.0555 -0.1556
 1405TIP3    H225707   2.905   0.210   5.103  0.2353 -1.7116 -0.0543
 1406TIP3   OH225708   3.625   0.286   2.758 -0.1550  0.0668 -0.4100
 1406TIP3    H125709   3.671   0.334   2.690  0.4359  1.8174  1.1819
 1406TIP3    H225710   3.532   0.300   2.739 -0.0248  4.0944  1.5023
 1407TIP3   OH225711   0.919   1.763   0.562 -0.1755 -0.4117 -0.3660
 1407TIP3    H125712   0.947   1.851   0.534 -1.5960  0.3217  0.4446
 1407TIP3    H225713   0.899   1.774   0.655  0.4846 -1.8212 -0.0542
 1408TIP3   OH225714   3.102   0.894   1.928 -0.0450  0.0918  0.2275
 1408TIP3    H125715   3.103   0.812   1.976 -1.0264 -0.0459  0.0174
 1408TIP3    H225716   3.106   0.962   1.995 -1.5864 -0.0956  0.5226
 1409TIP3   OH225717   5.392   2.137  14.969  0.5917 -0.4483 -0.0028
 1409TIP3    H125718   5.420   2.085  14.893 -0.4855  0.0808 -0.7695
 1409TIP3    H225719   5.415   2.082  15.045  0.2151 -1.6896 -0.7748
 1410TIP3   OH225720   2.687   0.337   1.896 -0.5883 -0.0045 -0.1355
 1410TIP3    H125721   2.702   0.320   1.989 -0.9969  0.4132  0.0134
 1410TIP3    H225722   2.598   0.304   1.880 -0.1585 -0.9383 -0.6031
 1411TIP3   OH225723   6.042   0.169   1.464 -0.2662  0.3714  0.3271
 1411TIP3    H125724   5.962   0.118   1.459 -0.5387  0.8835 -0.6028
 1411TIP3    H225725   6.059   0.178   1.558 -0.0721 -1.6221  0.5073
 1412TIP3   OH225726   0.240   1.386  10.613  0.3727  0.5607 -0.0127
 1412TIP3    H125727   0.334   1.385  10.595 -0.0019  2.0664 -2.2955
 1412TIP3    H225728   0.212   1.474  10.589 -1.9739 -0.4915 -1.3719
 1413TIP3   OH225729   4.239   2.916   0.238 -0.0898 -0.0708  0.2966
 1413TIP3    H125730   4.260   2.976   0.309 -0.8674 -0.7803  1.1425
 1413TIP3    H225731   4.147   2.935   0.217 -0.0108 -0.2059 -0.1751
 1414TIP3   OH225732   6.399   6.801   6.246 -0.4338 -0.4824  0.2232
 1414TIP3    H125733   6.469   6.865   6.241 -1.2194  0.3479 -0.2991
 1414TIP3    H225734   6.358   6.817   6.331 -2.0555  1.2482 -0.8340
 1415TIP3   OH225735   4.299   4.736   2.158 -0.0817 -0.5419  0.6115
 1415TIP3    H125736   4.293   4.808   2.095 -3.4760 -1.4022 -0.1503
 1415TIP3    H225737   4.344   4.666   2.111 -0.6756 -0.4344 -0.1119
 1416TIP3   OH225738   3.812   2.061   3.232  0.0808 -0.4091 -0.9131
 1416TIP3    H125739   3.727   2.052   3.189 -1.1201 -0.3365  1.3634
 1416TIP3    H225740   3.791   2.062   3.325  2.5110  0.5495 -0.3510
 1417TIP3   OH225741   1.450   0.342  12.182 -0.0831 -0.2019 -0.0310
 1417TIP3    H125742   1.424   0.405  12.249  0.3744  0.4110 -0.4341
 1417TIP3    H225743   1.502   0.277  12.230 -0.0888  0.0220  0.2826
 1418TIP3   OH225744   6.065   6.063  16.961  0.4478 -0.2287  0.5385
 1418TIP3    H125745   6.103   5.992  16.910 -0.0768 -0.3811  0.3588
 1418TIP3    H225746   6.113   6.141  16.933  2.5485 -0.8210  2.3169
 1419TIP3   OH225747   0.143   3.491  10.991 -0.7150 -0.5004  0.0957
 1419TIP3    H125748   0.224   3.536  11.016  0.1162 -1.3146 -1.0691
 1419TIP3    H225749   0.088   3.560  10.953 -0.2298 -0.1041  0.1063
 1420TIP3   OH225750   3.737   1.726  16.254 -0.2928  0.6872 -0.0892
 1420TIP3    H125751   3.688   1.806  16.270  0.2548  1.1480 -0.6974
 1420TIP3    H225752   3.685   1.679  16.188  0.2192  1.2985 -0.9271
 1421TIP3   OH225753   1.609   0.241  13.442 -0.1186  0.1057  0.2857
 1421TIP3    H125754   1.521   0.222  13.411 -0.3341 -0.8760  1.4467
 1421TIP3    H225755   1.610   0.336  13.455 -1.2957  0.0249  1.0673
 1422TIP3   OH225756   5.584   5.301   3.222 -0.1857  0.1500 -0.4106
 1422TIP3    H125757   5.585   5.300   3.126  0.6858 -1.5458 -0.3918
 1422TIP3    H225758   5.526   5.230   3.247  2.1766 -1.5819  0.3397
 1423TIP3   OH225759   3.545   3.138  13.586 -0.0731  0.3354 -0.1386
 1423TIP3    H125760   3.478   3.164  13.523 -0.5695 -1.1214 -0.2400
 1423TIP3    H225761   3.566   3.219  13.633 -1.0718  1.0459 -0.8789
 1424TIP3   OH225762   5.429   2.744   4.288 -0.1123 -0.4990 -0.4093
 1424TIP3    H125763   5.430   2.814   4.222  0.3533 -0.4114 -0.3133
 1424TIP3    H225764   5.425   2.790   4.372 -0.3983 -0.6021 -0.3686
 1425TIP3   OH225765   0.950   1.365  11.298  0.3412  0.4208 -0.0051
 1425TIP3    H125766   0.880   1.313  11.258 -0.8786 -0.2000  2.8765
 1425TIP3    H225767   0.906   1.419  11.363  2.3470  1.2361  0.7093
 1426TIP3   OH225768   6.542   2.314   4.372  0.3026  0.4321 -0.3831
 1426TIP3    H125769   6.547   2.296   4.278  0.6976  0.0368 -0.2933
 1426TIP3    H225770   6.482   2.248   4.406 -2.5112  2.6878 -0.8551
 1427TIP3   OH225771   0.657   4.820   2.789 -0.1315  0.4160 -0.0594
 1427TIP3    H125772   0.735   4.785   2.744  0.3482 -0.5557  1.4817
 1427TIP3    H225773   0.610   4.868   2.721  0.5724 -1.0270 -1.6192
 1428TIP3   OH225774   0.395   1.956   1.528 -0.0338 -0.2752 -0.0789
 1428TIP3    H125775   0.364   1.868   1.549  0.9107 -0.3806  0.9437
 1428TIP3    H225776   0.388   2.005   1.610  0.5306  0.2748 -0.3530
 1429TIP3   OH225777   5.151   5.417  11.722  0.4037 -0.3195 -0.1674
 1429TIP3    H125778   5.238   5.403  11.760 -0.8738 -1.4742  2.4013
 1429TIP3    H225779   5.123   5.330  11.694 -0.8766 -0.3519  1.1530
 1430TIP3   OH225780   1.138   0.978   4.913 -0.6675  0.1978  0.2126
 1430TIP3    H125781   1.213   1.033   4.935 -0.8017  1.2388 -1.8309
 1430TIP3    H225782   1.176   0.893   4.891  0.0276  0.9897 -1.7457
 1431TIP3   OH225783   2.941   1.688  13.191 -0.1957  0.1639  0.1124
 1431TIP3    H125784   3.015   1.740  13.223 -1.0910  1.5823 -0.0594
 1431TIP3    H225785   2.888   1.750  13.141 -1.2958 -0.9289 -0.1135
 1432TIP3   OH225786   6.423   5.765  13.066 -0.4853 -0.2082  0.5966
 1432TIP3    H125787   6.477   5.813  13.003  0.8977 -1.5098  0.7594
 1432TIP3    H225788   6.368   5.709  13.011 -1.5141  0.9259  0.4427
 1433TIP3   OH225789   5.697   6.688  11.702  0.7257  0.5323 -0.0377
 1433TIP3    H125790   5.785   6.653  11.711  0.4515  0.2244  1.4970
 1433TIP3    H225791   5.642   6.629  11.753 -0.0437  1.9517  0.8093
 1434TIP3   OH225792   0.441   1.922  16.489  0.1436 -0.6707 -0.6686
 1434TIP3    H125793   0.506   1.868  16.535 -0.1483  0.0858  0.6530
 1434TIP3    H225794   0.358   1.901  16.532 -0.1536 -0.0604 -0.9522
 1435TIP3   OH225795   6.473   6.741  14.902 -0.1624  0.0194 -0.2929
 1435TIP3    H125796   6.488   6.673  14.836  0.2569  0.5939 -0.7895
 1435TIP3    H225797   6.506   6.821  14.862 -0.1598  0.4211  0.5095
 1436TIP3   OH225798   1.788   5.607   0.190  0.1590 -0.1058  0.3459
 1436TIP3    H125799   1.781   5.644   0.102 -0.1681  1.3429  0.9728
 1436TIP3    H225800   1.786   5.512   0.176 -2.2266  0.1028 -1.0276
 1437TIP3   OH225801   4.470   5.311  13.154  0.1909 -0.4022  0.0926
 1437TIP3    H125802   4.506   5.373  13.218  1.9391  1.0960 -2.2663
 1437TIP3    H225803   4.411   5.364  13.100  0.5210 -1.1237 -0.9834
 1438TIP3   OH225804   2.546   1.607   4.004 -0.2616 -0.3777  0.0146
 1438TIP3    H125805   2.529   1.640   3.916  0.7730  1.3430  0.4542
 1438TIP3    H225806   2.637   1.577   4.001 -0.4271 -0.9313  0.3299
 1439TIP3   OH225807   4.144   2.234   2.967  0.0229  1.0178  0.0593
 1439TIP3    H125808   4.220   2.255   3.021  0.7850 -0.1238 -0.5510
 1439TIP3    H225809   4.069   2.252   3.024  0.8279 -0.5317  1.6658
 1440TIP3   OH225810   5.108   1.462   1.041 -0.4468 -0.4111 -0.3251
 1440TIP3    H125811   5.031   1.506   1.077  1.1778  0.2912  2.3865
 1440TIP3    H225812   5.142   1.522   0.975 -0.9573  0.2261 -0.0096
 1441TIP3   OH225813   2.699   0.295  11.080  0.2801 -0.4520 -0.0452
 1441TIP3    H125814   2.607   0.269  11.082  0.0272  0.1669 -2.6257
 1441TIP3    H225815   2.707   0.351  11.003  2.7518 -0.1934  0.3516
 1442TIP3   OH225816   6.208   3.440   2.463 -0.0248 -0.0365 -0.2232
 1442TIP3    H125817   6.172   3.522   2.499 -1.0372 -1.2248  1.5732
 1442TIP3    H225818   6.291   3.429   2.509 -0.1812 -0.3332 -0.0137
 1443TIP3   OH225819   5.399   4.577   1.439 -0.1492  0.2488  0.0224
 1443TIP3    H125820   5.314   4.596   1.478  0.0335  0.8773  0.1204
 1443TIP3    H225821   5.436   4.663   1.419  0.5589 -0.0093  0.1899
 1444TIP3   OH225822   3.563   1.681  11.253  0.2138 -0.1253 -0.2789
 1444TIP3    H125823   3.594   1.621  11.320 -0.7582 -0.2495  0.0672
 1444TIP3    H225824   3.519   1.626  11.189  1.0343  0.0065 -0.9661
 1445TIP3   OH225825   4.706   5.882   1.163 -0.4100 -0.6584 -0.7106
 1445TIP3    H125826   4.620   5.915   1.191  0.3996  0.6172  0.3413
 1445TIP3    H225827   4.734   5.825   1.234  1.1008  1.6128  0.5926
 1446TIP3   OH225828   1.776   5.431   1.573  0.2890 -1.1100 -0.4250
 1446TIP3    H125829   1.788   5.483   1.653 -1.5542 -1.7329  0.2751
 1446TIP3    H225830   1.807   5.489   1.503 -0.6251  0.4860  0.4548
 1447TIP3   OH225831   4.793   6.060   4.341 -0.0660 -0.1434 -0.2972
 1447TIP3    H125832   4.745   5.978   4.333  1.0832 -0.7769 -0.7939
 1447TIP3    H225833   4.845   6.051   4.420 -0.4935  0.4150  0.0580
 1448TIP3   OH225834   2.477   4.927   2.267  0.1907 -0.1944 -0.2547
 1448TIP3    H125835   2.425   4.855   2.303 -0.0211 -0.7161 -1.5942
 1448TIP3    H225836   2.563   4.889   2.252  0.3350  0.0779 -0.1184
 1449TIP3   OH225837   6.336   4.853  11.130  0.0173 -0.4114  0.4942
 1449TIP3    H125838   6.386   4.934  11.121  0.7727 -0.7563  1.4842
 1449TIP3    H225839   6.309   4.852  11.222  0.2117 -1.3990  0.5411
 1450TIP3   OH225840   6.581   0.941  15.492 -0.2456 -0.3793  0.3272
 1450TIP3    H125841   6.561   0.953  15.399  0.3729 -0.2235  0.2107
 1450TIP3    H225842   6.496   0.944  15.536 -0.5354 -0.4101 -0.2298
 1451TIP3   OH225843   4.875   1.941   0.259 -0.4086  0.2188 -0.0012
 1451TIP3    H125844   4.956   1.890   0.262 -0.1557  0.6433  0.4013
 1451TIP3    H225845   4.806   1.876   0.252  0.0103 -0.1264 -1.0823
 1452TIP3   OH225846   6.059   0.889  17.255  0.3373 -0.1169 -0.6761
 1452TIP3    H125847   6.138   0.937  17.284  1.1717 -1.4102 -0.7762
 1452TIP3    H225848   5.998   0.958  17.230  0.9151  0.9476  0.7693
 1453TIP3   OH225849   1.761   4.459   1.151 -0.1987 -0.3918 -0.1336
 1453TIP3    H125850   1.668   4.445   1.168 -0.7662  0.4685 -2.2733
 1453TIP3    H225851   1.806   4.420   1.226 -2.2201 -2.1438  0.2236
 1454TIP3   OH225852   1.121   3.525  12.724  0.2179 -0.1856  0.7616
 1454TIP3    H125853   1.057   3.471  12.771  0.5778 -0.9921  0.3457
 1454TIP3    H225854   1.172   3.462  12.673  1.8103  0.3667  1.6341
 1455TIP3   OH225855   1.504   3.034   5.116  0.4869 -0.1721 -0.2593
 1455TIP3    H125856   1.439   3.091   5.158  2.2018  0.2305  1.8896
 1455TIP3    H225857   1.452   2.965   5.074 -1.3314  0.1981  1.3420
 1456TIP3   OH225858   3.424   1.185   2.141  0.2527  0.1226  0.3277
 1456TIP3    H125859   3.477   1.114   2.105  0.9675 -0.3427  2.2524
 1456TIP3    H225860   3.452   1.263   2.093  0.9771 -0.5331 -0.3222
 1457TIP3   OH225861   3.866   6.429   5.031  0.2398 -0.3309 -0.2476
 1457TIP3    H125862   3.936   6.372   5.062  0.3195 -0.0433  0.0965
 1457TIP3    H225863   3.815   6.450   5.109 -0.2729 -0.5937 -0.5053
 1458TIP3   OH225864   2.452   5.781  13.182  0.2859  0.0233 -0.0335
 1458TIP3    H125865   2.416   5.840  13.116  0.1870 -1.7406 -1.5850
 1458TIP3    H225866   2.378   5.766  13.242  0.2483  1.2751  0.2505
 1459TIP3   OH225867   5.215   3.664  12.257  0.0497  0.1436  0.0428
 1459TIP3    H125868   5.197   3.680  12.350  0.7984 -0.0084  0.2236
 1459TIP3    H225869   5.135   3.626  12.222  0.3727 -1.5351  1.0576
 1460TIP3   OH225870   1.609   3.335  16.458  0.6151 -0.4296 -0.2090
 1460TIP3    H125871   1.632   3.368  16.545  1.4765 -0.2455 -0.5056
 1460TIP3    H225872   1.537   3.391  16.429 -0.0825 -0.8724  0.6330
 1461TIP3   OH225873   3.869   0.872   1.249  0.4220  0.8552 -0.2494
 1461TIP3    H125874   3.793   0.922   1.221 -0.0094 -0.1058 -0.8338
 1461TIP3    H225875   3.833   0.806   1.309  0.6714 -0.1311 -1.1716
 1462TIP3   OH225876   2.078   2.674  11.120 -0.7629 -0.3667  0.0746
 1462TIP3    H125877   1.995   2.627  11.119 -0.9255 -0.0856  0.1915
 1462TIP3    H225878   2.053   2.766  11.132 -0.5221 -0.0954 -1.4120
 1463TIP3   OH225879   2.502   1.651  15.703  0.0955 -0.0180  0.0246
 1463TIP3    H125880   2.464   1.727  15.746 -1.3869 -1.6265  1.6938
 1463TIP3    H225881   2.438   1.627  15.636  0.2358 -0.1652 -0.0556
 1464TIP3   OH225882   0.486   3.157  16.136 -0.5991  0.0699 -0.2598
 1464TIP3    H125883   0.451   3.180  16.222 -0.8207 -1.9545  0.2173
 1464TIP3    H225884   0.577   3.131  16.153 -0.4396  0.2964 -0.7401
 1465TIP3   OH225885   1.467   1.764  13.119  0.2630 -0.1597 -0.0257
 1465TIP3    H125886   1.559   1.737  13.110  0.0720 -1.2791  1.1397
 1465TIP3    H225887   1.444   1.800  13.034  0.9104 -2.6251 -1.3077
 1466TIP3   OH225888   3.721   3.166   4.292  0.5602  0.5908 -0.0468
 1466TIP3    H125889   3.788   3.162   4.224 -2.0921 -1.7853 -2.6623
 1466TIP3    H225890   3.764   3.131   4.370  2.0575 -2.0681 -1.9704
 1467TIP3   OH225891   1.053   2.039   3.721 -0.0515 -0.3275 -0.2907
 1467TIP3    H125892   0.963   2.070   3.734  0.0885  0.3224 -0.8640
 1467TIP3    H225893   1.081   2.011   3.809 -1.1798 -1.5558 -0.2965
 1468TIP3   OH225894   5.816   1.191   3.112 -0.2046 -0.1096 -0.0034
 1468TIP3    H125895   5.903   1.207   3.147  0.6844 -1.6275 -1.4930
 1468TIP3    H225896   5.819   1.224   3.022 -1.3444  0.3335  0.1047
 1469TIP3   OH225897   1.725   5.130  12.932 -0.5583  0.5758 -0.5360
 1469TIP3    H125898   1.721   5.039  12.961 -0.9889  0.0640 -2.1531
 1469TIP3    H225899   1.819   5.149  12.927 -0.4677  0.2661 -0.0809
 1470TIP3   OH225900   5.815   4.170   3.012 -0.3512 -0.3300  0.3541
 1470TIP3    H125901   5.846   4.201   3.098  2.3364 -1.7039 -0.0709
 1470TIP3    H225902   5.814   4.075   3.020  0.1548 -0.4789 -1.2092
 1471TIP3   OH225903   0.047   4.562  11.660  0.2020 -0.2192  0.1487
 1471TIP3    H125904   0.127   4.515  11.682 -0.0850 -0.7149  0.1513
 1471TIP3    H225905  -0.018   4.493  11.645 -0.0070  0.1556 -0.6984
 1472TIP3   OH225906   0.922   6.011  12.873 -0.1122  0.0805 -0.6753
 1472TIP3    H125907   0.959   6.083  12.823  1.0937  0.3242  0.5317
 1472TIP3    H225908   0.996   5.975  12.922 -1.1542 -0.5067  0.5090
 1473TIP3   OH225909   0.002   2.393   0.542 -0.0889  0.1747  0.3670
 1473TIP3    H125910  -0.070   2.334   0.520 -0.6043  1.1895 -0.7660
 1473TIP3    H225911   0.030   2.367   0.630 -1.0587 -0.9918  0.3312
 1474TIP3   OH225912   1.446   4.314   2.473  0.1351  0.0750 -0.5928
 1474TIP3    H125913   1.514   4.253   2.503  0.3524  1.0257  0.9030
 1474TIP3    H225914   1.371   4.297   2.531  0.5492  1.9192  0.5269
 1475TIP3   OH225915   4.029   1.800  13.243  0.0377  0.3253  0.4483
 1475TIP3    H125916   4.097   1.760  13.188 -0.8788 -0.7741  0.1016
 1475TIP3    H225917   4.033   1.751  13.325  0.4322  1.0182  0.8467
 1476TIP3   OH225918   0.269   5.483  15.126 -0.2729  0.5178  0.0270
 1476TIP3    H125919   0.184   5.464  15.086 -0.3892  1.1731 -0.0429
 1476TIP3    H225920   0.252   5.484  15.220  0.1247 -1.6381  0.1348
 1477TIP3   OH225921   1.784   5.932  13.450  0.1495  0.0310  0.0664
 1477TIP3    H125922   1.843   5.994  13.492  1.5973 -1.5296  0.4142
 1477TIP3    H225923   1.756   5.873  13.521 -2.3061  1.0821  0.0247
 1478TIP3   OH225924   4.115   1.724  11.232  0.0503 -0.9037  0.6947
 1478TIP3    H125925   4.175   1.799  11.229 -0.6795 -0.3547 -0.9906
 1478TIP3    H225926   4.160   1.657  11.180 -0.2130 -0.9167  0.4824
 1479TIP3   OH225927   1.172   1.429   2.912  0.2668 -0.0212 -0.5662
 1479TIP3    H125928   1.085   1.462   2.935 -0.1476 -0.6245 -1.2409
 1479TIP3    H225929   1.189   1.466   2.825  1.5793  1.7853  0.4427
 1480TIP3   OH225930   4.897   3.635   2.369 -1.1451  0.2326 -0.2872
 1480TIP3    H125931   4.952   3.652   2.292 -0.8050 -0.9124 -0.3020
 1480TIP3    H225932   4.909   3.542   2.387  0.5532  0.9519  2.5703
 1481TIP3   OH225933   4.209   5.326   3.105  0.1900  0.1636  0.0556
 1481TIP3    H125934   4.256   5.395   3.059  0.1729 -0.0891 -0.3357
 1481TIP3    H225935   4.271   5.293   3.170  0.5062 -0.0778 -0.3689
 1482TIP3   OH225936   0.603   0.071   1.376 -0.2439 -0.2327  0.1673
 1482TIP3    H125937   0.613   0.133   1.304  3.1497 -0.7440  0.0794
 1482TIP3    H225938   0.544   0.004   1.342 -0.1054  0.4647 -1.4903
 1483TIP3   OH225939   1.669   3.902  15.047 -0.3964  0.0030  0.7542
 1483TIP3    H125940   1.721   3.822  15.037  0.4011  0.2904  2.3582
 1483TIP3    H225941   1.615   3.885  15.124 -0.8179  0.7073  0.6159
 1484TIP3   OH225942   3.849   5.551  14.702  0.5757 -0.5980 -0.0592
 1484TIP3    H125943   3.816   5.538  14.791 -0.7281 -0.9846 -0.5881
 1484TIP3    H225944   3.922   5.489  14.694  2.4271  1.3091  1.6199
 1485TIP3   OH225945   6.541   2.957   4.711  0.2868  0.4024 -0.7158
 1485TIP3    H125946   6.571   2.866   4.706 -0.0843  0.0826  1.7580
 1485TIP3    H225947   6.477   2.965   4.640 -1.1028 -1.8907  0.1946
 1486TIP3   OH225948   0.213   3.267   1.474  0.5135 -0.1765 -0.1502
 1486TIP3    H125949   0.148   3.262   1.403 -0.2974 -0.1294  0.5746
 1486TIP3    H225950   0.197   3.188   1.526  1.7549 -0.7121 -0.5569
 1487TIP3   OH225951   6.018   0.261   2.308  0.0424 -0.4940  1.0631
 1487TIP3    H125952   6.052   0.172   2.317 -0.9674 -0.9274  0.7216
 1487TIP3    H225953   5.929   0.256   2.344 -0.1295  0.2968  0.7552
 1488TIP3   OH225954   2.467   1.621   0.493  0.1778  0.3777  0.0835
 1488TIP3    H125955   2.531   1.601   0.561 -0.1128 -0.2653  0.1731
 1488TIP3    H225956   2.504   1.583   0.413 -0.6221 -0.9880  0.3544
 1489TIP3   OH225957   1.696   5.566  15.337 -0.4948  0.1844  0.5449
 1489TIP3    H125958   1.650   5.593  15.416 -1.9274  0.6893 -0.4564
 1489TIP3    H225959   1.777   5.527  15.369 -0.8815  0.7480  2.2443
 1490TIP3   OH225960   4.472   3.776  11.572 -0.6422  0.3385  0.0932
 1490TIP3    H125961   4.549   3.719  11.568 -0.5886  0.4015  0.2058
 1490TIP3    H225962   4.431   3.768  11.486  0.7587  2.0794 -0.7789
 1491TIP3   OH225963   0.370   1.706  15.549 -0.1635  0.3423  0.6383
 1491TIP3    H125964   0.345   1.654  15.625 -0.7590  0.4509  0.5228
 1491TIP3    H225965   0.313   1.783  15.553 -1.1490 -0.2990 -0.6581
 1492TIP3   OH225966   3.262   0.880   4.366 -0.3767 -0.1736 -0.3142
 1492TIP3    H125967   3.223   0.886   4.454 -0.9824 -0.9658 -0.5212
 1492TIP3    H225968   3.355   0.897   4.380 -0.3016 -1.2940  0.6364
 1493TIP3   OH225969   2.453   4.614   4.971  0.2515  0.1143 -0.6007
 1493TIP3    H125970   2.384   4.605   5.036 -0.1913 -0.9725 -1.2105
 1493TIP3    H225971   2.501   4.692   4.998 -0.1131 -0.1454  0.8553
 1494TIP3   OH225972   2.939   2.795  16.538  0.3509 -0.1063  0.1774
 1494TIP3    H125973   3.022   2.751  16.556  0.7835  0.6943  0.1871
 1494TIP3    H225974   2.923   2.849  16.616  0.0059  0.0102  0.0261
 1495TIP3   OH225975   0.263   1.696  13.708  1.1142  0.3812 -0.1572
 1495TIP3    H125976   0.227   1.616  13.670  0.2672  0.1400  1.1528
 1495TIP3    H225977   0.198   1.764  13.687  1.1410  0.4449 -0.0358
 1496TIP3   OH225978   3.397   4.441  14.774  0.1323  0.1126  0.8924
 1496TIP3    H125979   3.490   4.419  14.772  0.1151 -0.0090  1.2930
 1496TIP3    H225980   3.353   4.356  14.780 -0.0801  0.0633 -1.2559
 1497TIP3   OH225981   5.304   1.251  11.239  0.3071  0.2553  0.1201
 1497TIP3    H125982   5.298   1.345  11.222  0.2776  0.0436 -1.0655
 1497TIP3    H225983   5.394   1.238  11.267 -0.2071  0.9248  2.1963
 1498TIP3   OH225984   4.738   5.099   4.493 -0.2538 -0.6496  0.3661
 1498TIP3    H125985   4.822   5.054   4.504  0.6019  0.9443  0.5259
 1498TIP3    H225986   4.676   5.030   4.473  1.5848 -1.6133 -2.3063
 1499TIP3   OH225987   3.702   2.439   3.652  0.1990 -0.3824 -0.6223
 1499TIP3    H125988   3.615   2.476   3.668 -0.4770 -2.3581  0.4477
 1499TIP3    H225989   3.715   2.450   3.558 -0.8338  0.7267 -0.6474
 1500TIP3   OH225990   0.461   4.090   4.599  0.1704  0.0179 -0.1883
 1500TIP3    H125991   0.556   4.086   4.610  0.3727  2.0712 -1.0589
 1500TIP3    H225992   0.430   4.143   4.672 -0.0347  1.3380 -1.2102
 1501TIP3   OH225993   0.499   1.141  11.660  0.3673 -0.4883 -0.4205
 1501TIP3    H125994   0.534   1.226  11.631 -3.2346  0.1572 -3.1336
 1501TIP3    H225995   0.534   1.078  11.598 -0.1587 -0.3922 -0.8190
 1502TIP3   OH225996   6.233   2.268   1.267  0.3512 -0.5479 -0.5495
 1502TIP3    H125997   6.158   2.224   1.308  0.2680  0.8475  0.8293
 1502TIP3    H225998   6.263   2.329   1.333  0.5794  1.3653 -2.3876
 1503TIP3   OH225999   0.764   6.102  17.187  0.3915  0.6495 -0.8543
 1503TIP3    H126000   0.794   6.012  17.201 -0.8821  0.1140 -1.4926
 1503TIP3    H226001   0.806   6.152  17.257  2.4031 -0.1395 -1.4504
 1504TIP3   OH226002   1.761   4.078  17.057 -0.0543  0.4374 -0.0025
 1504TIP3    H126003   1.717   4.159  17.081 -0.1639  0.0791  1.0096
 1504TIP3    H226004   1.822   4.061  17.128 -1.3656 -1.3660  0.7462
 1505TIP3   OH226005   2.500   4.671   1.129  0.8739 -0.2884  0.1574
 1505TIP3    H126006   2.577   4.714   1.090  0.0742 -0.6803 -1.9329
 1505TIP3    H226007   2.491   4.589   1.080 -0.4589 -0.5871  0.8722
 1506TIP3   OH226008   2.385   6.541  13.733  0.3565  0.6303 -0.4116
 1506TIP3    H126009   2.331   6.617  13.753 -1.0057 -0.0030 -1.5726
 1506TIP3    H226010   2.337   6.495  13.664  0.9600 -1.5017  0.5635
 1507TIP3   OH226011   5.363   6.303   2.287  0.0252  0.0516  0.4643
 1507TIP3    H126012   5.287   6.298   2.346 -0.1306 -0.0660  0.2561
 1507TIP3    H226013   5.324   6.304   2.199  0.1421  2.2835  0.3959
 1508TIP3   OH226014   4.993   6.327  12.891  0.2546 -0.0871 -0.5284
 1508TIP3    H126015   4.906   6.339  12.851  0.4374 -1.2656 -1.2857
 1508TIP3    H226016   5.044   6.281  12.825  1.0650 -0.5960  0.4446
 1509TIP3   OH226017   4.033   0.269  15.412 -0.0546 -0.0385 -0.2839
 1509TIP3    H126018   4.108   0.233  15.461 -1.0074 -2.1621 -0.3385
 1509TIP3    H226019   3.957   0.222  15.446 -0.7551 -1.5713 -3.8073
 1510TIP3   OH226020   5.888   2.372  15.168 -0.4773 -0.0321 -0.6999
 1510TIP3    H126021   5.836   2.350  15.091 -2.8459 -0.7740  1.0701
 1510TIP3    H226022   5.857   2.458  15.195  0.5472  0.3494 -0.7072
 1511TIP3   OH226023   4.400   1.400  13.259  0.4275 -0.4544  0.2279
 1511TIP3    H126024   4.447   1.481  13.275  2.2122 -1.0543 -1.7697
 1511TIP3    H226025   4.452   1.332  13.301  1.3279 -1.0998 -1.8579
 1512TIP3   OH226026   3.973   0.816  12.025 -0.2491  0.6389  0.0012
 1512TIP3    H126027   4.009   0.817  12.113  0.4553 -0.2748 -0.2652
 1512TIP3    H226028   3.910   0.888  12.023  1.0551  1.8154  0.6863
 1513TIP3   OH226029   2.891   3.732  14.200 -0.0667 -0.3667 -0.0229
 1513TIP3    H126030   2.895   3.665  14.132  0.0027 -1.2957  0.8776
 1513TIP3    H226031   2.937   3.693  14.274  0.3470  0.8520  0.3742
 1514TIP3   OH226032   1.822   5.387   0.947 -0.2599  0.3465  0.1387
 1514TIP3    H126033   1.916   5.367   0.944 -0.1400  0.8164  0.4823
 1514TIP3    H226034   1.819   5.483   0.956 -0.7326  0.2007  1.7548
 1515TIP3   OH226035   0.353   3.510  15.225  0.1229 -0.5504 -0.3753
 1515TIP3    H126036   0.337   3.526  15.318  1.3899 -2.4197  0.1823
 1515TIP3    H226037   0.277   3.550  15.181 -0.8867 -0.3334  1.4922
 1516TIP3   OH226038   1.500   3.249  15.618 -0.5434 -0.3717  0.5663
 1516TIP3    H126039   1.416   3.279  15.652 -0.2013  0.8765  0.3465
 1516TIP3    H226040   1.558   3.249  15.694 -0.4271 -0.0169  0.4807
 1517TIP3   OH226041   6.501   1.844  14.705  0.6324  0.1998  0.3205
 1517TIP3    H126042   6.442   1.793  14.651  0.0520 -0.5901  1.6710
 1517TIP3    H226043   6.567   1.781  14.735  1.1262  0.6926  0.2804
 1518TIP3   OH226044   2.010   5.615  16.854  0.2761 -0.1925 -0.6617
 1518TIP3    H126045   1.973   5.530  16.832 -0.6845 -0.2194  1.0109
 1518TIP3    H226046   2.103   5.597  16.870  0.4413 -0.6132 -2.0136
 1519TIP3   OH226047   2.375   6.035   1.781 -0.4717 -0.4180  0.5996
 1519TIP3    H126048   2.368   6.046   1.876 -0.0446 -1.5165  0.7604
 1519TIP3    H226049   2.284   6.026   1.751 -0.6327  0.3907  0.8456
 1520TIP3   OH226050   5.028   1.075   2.897  0.1060  0.2462 -0.4979
 1520TIP3    H126051   5.073   1.158   2.914  1.2225 -0.4850  0.1468
 1520TIP3    H226052   4.948   1.100   2.851  0.2970  1.7046 -0.0451
 1521TIP3   OH226053   1.824   4.126  14.970  0.3389  0.3259  0.2477
 1521TIP3    H126054   1.781   4.062  15.026  2.7205  1.7043  3.8629
 1521TIP3    H226055   1.878   4.074  14.911 -0.5812 -1.1416  0.6788
 1522TIP3   OH226056   5.955   1.342  11.525  0.1695  0.3503 -0.0058
 1522TIP3    H126057   5.898   1.266  11.517  1.1248 -0.2444 -1.4051
 1522TIP3    H226058   5.991   1.355  11.437  1.0613  1.5889  0.5185
 1523TIP3   OH226059   0.420   6.331   5.463  0.2097 -0.7832 -0.0343
 1523TIP3    H126060   0.337   6.374   5.484 -0.0740 -1.3642  0.0535
 1523TIP3    H226061   0.482   6.368   5.526  0.1729  0.1319 -0.5214
 1524TIP3   OH226062   4.683   1.163  13.657  0.0947 -0.6028 -0.1266
 1524TIP3    H126063   4.679   1.074  13.693 -0.0131 -0.7265 -0.4444
 1524TIP3    H226064   4.771   1.194  13.679 -0.4078 -0.1917  1.4057
 1525TIP3   OH226065   1.602   5.212   1.453 -0.0720 -0.3256  0.1593
 1525TIP3    H126066   1.517   5.230   1.495  0.2617 -0.5913  0.9565
 1525TIP3    H226067   1.665   5.218   1.524  0.6748  0.6467 -0.5873
 1526TIP3   OH226068   0.394   0.645  13.373 -0.7217 -0.1374  0.2646
 1526TIP3    H126069   0.347   0.720  13.409 -1.8328 -1.0787  0.8114
 1526TIP3    H226070   0.486   0.673  13.370 -1.3083  1.7549 -0.9029
 1527TIP3   OH226071   1.133   3.916  12.355 -0.1435  0.3259  0.0884
 1527TIP3    H126072   1.195   3.871  12.412  0.8201  0.9365 -0.4810
 1527TIP3    H226073   1.057   3.857  12.351 -0.0921  0.1086  1.7244
 1528TIP3   OH226074   3.716   2.309   1.457  0.0669  0.8333  0.0698
 1528TIP3    H126075   3.730   2.397   1.490 -1.3442  1.3257 -0.6089
 1528TIP3    H226076   3.634   2.314   1.408 -0.6925 -1.1288  1.0516
 1529TIP3   OH226077   1.875   5.692   4.585  0.1846 -0.1777 -0.6573
 1529TIP3    H126078   1.806   5.751   4.615  2.6058  2.8930 -0.8041
 1529TIP3    H226079   1.854   5.675   4.494 -1.1606 -0.4751 -0.3026
 1530TIP3   OH226080   6.328   4.318  15.334  0.4263 -0.1813 -0.2386
 1530TIP3    H126081   6.327   4.270  15.417  0.4148 -0.3592 -0.3408
 1530TIP3    H226082   6.287   4.259  15.272  1.7175 -0.6202 -0.6854
 1531TIP3   OH226083   0.767   5.692   0.869 -0.0027 -0.2127 -0.3087
 1531TIP3    H126084   0.857   5.719   0.890 -0.0174 -0.6274  0.2904
 1531TIP3    H226085   0.713   5.734   0.937 -0.0737 -1.3750  0.3699
 1532TIP3   OH226086   0.154   4.981  14.440 -0.1416  0.1131 -0.4065
 1532TIP3    H126087   0.146   4.908  14.501  1.1353  0.8962  0.7348
 1532TIP3    H226088   0.183   4.941  14.358  0.5431 -0.6668  0.2094
 1533TIP3   OH226089   5.750   3.872   0.058 -0.2849  0.1022  0.0575
 1533TIP3    H126090   5.793   3.951   0.026 -0.0892 -0.5651 -1.3601
 1533TIP3    H226091   5.705   3.900   0.137  2.3457  0.9211  1.3169
 1534TIP3   OH226092   4.489   0.929   3.899  0.2901 -0.0119 -0.4924
 1534TIP3    H126093   4.492   1.024   3.886 -1.5128  0.5004  2.4887
 1534TIP3    H226094   4.491   0.917   3.994  0.7456 -2.9900 -0.8218
 1535TIP3   OH226095   1.787   2.061  16.410  0.2545  0.0385 -0.4780
 1535TIP3    H126096   1.704   2.098  16.438 -0.0035  1.0051 -2.4302
 1535TIP3    H226097   1.850   2.133  16.420  0.8912 -0.6844  0.9919
 1536TIP3   OH226098   1.240   2.100   4.314 -0.1314  0.6653 -0.5551
 1536TIP3    H126099   1.176   2.081   4.246  0.7331  1.0637 -1.4944
 1536TIP3    H226100   1.190   2.098   4.395 -1.1160 -0.1306 -1.1678
 1537TIP3   OH226101   2.920   2.264  12.196  0.0866  0.6843 -0.1937
 1537TIP3    H126102   3.004   2.309  12.207  0.8757 -0.8094  0.0213
 1537TIP3    H226103   2.936   2.175  12.228 -1.9798  0.7761  1.2236
 1538TIP3   OH226104   5.466   0.368   5.825  0.4147  0.3607 -0.2440
 1538TIP3    H126105   5.459   0.432   5.754  0.6615 -0.1138 -0.6981
 1538TIP3    H226106   5.376   0.342   5.842  0.5034 -0.8644 -1.6168
 1539TIP3   OH226107   0.222   4.205   5.863  0.2919  0.1825  0.4162
 1539TIP3    H126108   0.292   4.220   5.798 -0.1393 -0.0191 -0.1015
 1539TIP3    H226109   0.269   4.183   5.943  0.8195 -0.8961 -0.1651
 1540TIP3   OH226110   3.642   0.670   2.160 -0.4162 -0.4205  0.0315
 1540TIP3    H126111   3.634   0.574   2.157 -0.4412 -0.4748  1.6371
 1540TIP3    H226112   3.729   0.688   2.125 -0.2621 -1.0445  0.0870
 1541TIP3   OH226113   5.419   1.495  16.334 -0.5167 -0.3237 -0.0272
 1541TIP3    H126114   5.343   1.547  16.308 -0.9049 -0.4034  0.9372
 1541TIP3    H226115   5.390   1.445  16.410  0.2194 -1.0575 -0.2127
 1542TIP3   OH226116   4.168   6.131  17.182 -0.5638  0.0751 -0.7462
 1542TIP3    H126117   4.193   6.060  17.123  2.3962 -0.0206  0.5440
 1542TIP3    H226118   4.232   6.200  17.165 -1.1458  0.9952  0.6530
 1543TIP3   OH226119   5.429   0.537   5.494  0.0708  0.0993  0.3068
 1543TIP3    H126120   5.502   0.512   5.437  0.5763 -0.3218  1.1407
 1543TIP3    H226121   5.468   0.592   5.561 -0.3675 -0.1798  0.7947
 1544TIP3   OH226122   0.228   5.645   1.418  0.1541  0.5930  0.2606
 1544TIP3    H126123   0.234   5.741   1.418 -2.1578  0.7735  1.9904
 1544TIP3    H226124   0.275   5.619   1.497 -1.1010  0.4693  0.9799
 1545TIP3   OH226125   5.787   4.236   5.639 -0.3421  1.0746 -0.7968
 1545TIP3    H126126   5.693   4.255   5.632 -0.1987  0.9536 -3.8364
 1545TIP3    H226127   5.828   4.321   5.647 -0.6205  1.2107 -0.8152
 1546TIP3   OH226128   4.567   4.408  12.763 -0.4018  0.2848  0.1680
 1546TIP3    H126129   4.535   4.358  12.688 -0.8673 -3.1418  2.5627
 1546TIP3    H226130   4.658   4.430  12.740 -0.7853  0.0221 -1.7149
 1547TIP3   OH226131   3.958   2.182  11.945  0.0206 -0.6231  1.3098
 1547TIP3    H126132   4.037   2.156  11.992  0.2196  0.5944  1.6750
 1547TIP3    H226133   3.886   2.149  11.999  0.2694 -1.2029  1.2909
 1548TIP3   OH226134   5.527   5.899  15.006  0.0239  0.2781  0.0591
 1548TIP3    H126135   5.556   5.857  15.087  1.0817 -2.4139 -1.6478
 1548TIP3    H226136   5.597   5.961  14.985  1.0455 -0.9523 -0.2043
 1549TIP3   OH226137   1.079   6.612   0.454  0.2196 -0.4362  0.2517
 1549TIP3    H126138   1.152   6.587   0.397  1.5932 -0.5530  2.0035
 1549TIP3    H226139   1.029   6.532   0.466  0.2983 -0.5641 -0.2523
 1550TIP3   OH226140   5.722   1.931  15.339 -0.0099  0.0990 -0.6569
 1550TIP3    H126141   5.675   1.984  15.404 -2.8690 -3.4109  0.2947
 1550TIP3    H226142   5.774   1.870  15.391  1.3791  0.3576 -1.7216
 1551TIP3   OH226143   1.270   6.388   5.620 -0.1008 -0.2429 -0.0975
 1551TIP3    H126144   1.287   6.365   5.711  0.0286  0.6575  0.1134
 1551TIP3    H226145   1.292   6.481   5.614 -1.3237  0.0175 -0.7355
 1552TIP3   OH226146   4.187   0.002   3.310 -0.4056  0.1750  0.2577
 1552TIP3    H126147   4.229  -0.061   3.368  1.0112 -0.4059 -1.3712
 1552TIP3    H226148   4.160  -0.049   3.234  0.0620  1.3929 -0.7359
 1553TIP3   OH226149   3.726   4.127   5.300  0.4587 -0.0637 -0.1364
 1553TIP3    H126150   3.728   4.050   5.356 -1.3382  1.2354  1.7772
 1553TIP3    H226151   3.792   4.109   5.232  1.2746 -2.5076  1.2442
 1554TIP3   OH226152   6.184   2.210  11.487  0.3725  0.2054  0.2602
 1554TIP3    H126153   6.104   2.255  11.514  1.6186  1.2732  2.3293
 1554TIP3    H226154   6.188   2.224  11.392 -1.8617  0.1384  0.1215
 1555TIP3   OH226155   5.551   4.716  14.713  0.0634 -0.1039 -0.4133
 1555TIP3    H126156   5.493   4.699  14.788  0.4426 -0.0573 -0.1085
 1555TIP3    H226157   5.579   4.807  14.725 -0.4213  0.1299 -0.9896
 1556TIP3   OH226158   2.249   4.749   4.710  0.0302  0.2738 -0.7373
 1556TIP3    H126159   2.177   4.693   4.681  0.4371 -0.3296 -0.5938
 1556TIP3    H226160   2.207   4.814   4.766 -0.1122 -1.4453  1.2241
 1557TIP3   OH226161   0.376   5.738   6.371 -0.1424  0.2956  0.1209
 1557TIP3    H126162   0.408   5.802   6.307 -2.6044  2.0861  0.6405
 1557TIP3    H226163   0.441   5.667   6.368  1.7685  2.0550 -1.6376
 1558TIP3   OH226164   5.488   3.754  12.314 -0.2621 -0.1764  0.3029
 1558TIP3    H126165   5.423   3.813  12.278  0.3526  0.0298 -0.4756
 1558TIP3    H226166   5.438   3.681  12.350 -1.1042  1.2865  2.2055
 1559TIP3   OH226167   3.836   0.142  15.846 -0.1657 -0.3852 -0.7196
 1559TIP3    H126168   3.780   0.134  15.923 -0.3613 -1.1091 -0.9313
 1559TIP3    H226169   3.908   0.081  15.862  1.2143  1.3935  0.0900
 1560TIP3   OH226170   3.993   1.891   2.304  0.0239  0.8627 -0.0918
 1560TIP3    H126171   3.902   1.884   2.277  0.2586  1.8241 -1.1764
 1560TIP3    H226172   3.993   1.866   2.396 -1.0513 -0.9242 -0.5477
 1561TIP3   OH226173   4.702   1.526   5.778  0.5472 -0.1251  0.3239
 1561TIP3    H126174   4.789   1.564   5.784  0.6661 -0.5352  1.4252
 1561TIP3    H226175   4.644   1.590   5.819  0.4888 -0.3408  0.5791
 1562TIP3   OH226176   3.858   2.262   2.541  0.5734 -0.1893  0.8013
 1562TIP3    H126177   3.897   2.295   2.460  0.7558 -2.2472  0.0409
 1562TIP3    H226178   3.931   2.251   2.601  0.3397  2.1484  1.5651
 1563TIP3   OH226179   0.487   1.556   6.359  0.2063  0.1010  0.6375
 1563TIP3    H126180   0.550   1.572   6.288  0.3889 -0.8238  0.5779
 1563TIP3    H226181   0.406   1.532   6.314  0.1855 -0.0100  0.7341
 1564TIP3   OH226182   6.530   5.812  11.761 -0.1107 -0.7208 -0.1920
 1564TIP3    H126183   6.511   5.726  11.799 -0.7616 -0.2846  0.4921
 1564TIP3    H226184   6.520   5.873  11.834  1.2926 -0.1676 -0.4541
 1565TIP3   OH226185   5.711   4.019  16.338 -0.2651 -0.4131  0.4029
 1565TIP3    H126186   5.713   3.926  16.362 -1.8123 -0.4310  0.5259
 1565TIP3    H226187   5.634   4.054  16.383 -1.4503  0.2463 -2.0492
 1566TIP3   OH226188   0.547   3.740  13.933 -0.3556 -0.4451 -0.3533
 1566TIP3    H126189   0.629   3.700  13.903  0.2127 -0.6659  1.4038
 1566TIP3    H226190   0.528   3.696  14.016 -2.3060 -0.4510 -0.7857
 1567TIP3   OH226191   4.947   2.036   2.766  0.0316 -0.1706 -0.3550
 1567TIP3    H126192   4.868   2.072   2.808  0.3199  1.3253 -1.0548
 1567TIP3    H226193   5.018   2.060   2.825 -0.1080 -2.2550  0.7049
 1568TIP3   OH226194   4.704   1.848  13.260 -0.2791 -0.3668  0.2383
 1568TIP3    H126195   4.685   1.842  13.167 -0.1743  1.1812  0.1064
 1568TIP3    H226196   4.749   1.932  13.270 -0.5019 -0.4077  1.7082
 1569TIP3   OH226197   3.228   3.669   5.517  0.0905  0.2495 -0.0592
 1569TIP3    H126198   3.315   3.688   5.480  0.6060  0.3531  1.1907
 1569TIP3    H226199   3.234   3.699   5.608 -0.6659 -1.4816  0.5630
 1570TIP3   OH226200   2.733   3.816   3.217 -0.1897 -0.3574  0.5743
 1570TIP3    H126201   2.752   3.771   3.299 -0.2592  0.8494  1.2721
 1570TIP3    H226202   2.781   3.768   3.150  0.2337 -1.0731  1.3940
 1571TIP3   OH226203   6.063   6.517   0.260 -0.0606 -0.0452  0.3820
 1571TIP3    H126204   6.144   6.547   0.301  0.5543  0.8455 -1.4296
 1571TIP3    H226205   6.032   6.447   0.317  2.0354 -0.4468  1.0764
 1572TIP3   OH226206   2.906   6.046  11.368  0.3990  0.0351 -0.0455
 1572TIP3    H126207   2.892   6.125  11.421  1.2019  1.0390 -1.3264
 1572TIP3    H226208   2.971   6.071  11.303  2.4826 -2.3988  1.0296
 1573TIP3   OH226209   2.585   0.798  16.219 -0.1614 -0.0984  0.6827
 1573TIP3    H126210   2.672   0.770  16.191 -0.1655 -0.1804  0.7512
 1573TIP3    H226211   2.530   0.719  16.210 -0.3320  0.0742  0.2016
 1574TIP3   OH226212   0.481   4.618   5.096  0.2847  0.4979  0.0646
 1574TIP3    H126213   0.544   4.583   5.033  1.3485  2.2561  0.0998
 1574TIP3    H226214   0.529   4.686   5.142 -0.6927 -0.3198  2.3388
 1575TIP3   OH226215   1.605   2.271   1.044 -0.3645 -0.3040 -0.6339
 1575TIP3    H126216   1.568   2.228   0.968 -1.7614  0.9352 -0.6904
 1575TIP3    H226217   1.700   2.258   1.036 -0.3470  1.1117 -3.4077
 1576TIP3   OH226218   4.655   3.034  13.192  0.0585 -0.2796  0.1928
 1576TIP3    H126219   4.611   3.112  13.224 -1.0533 -0.4533 -0.8752
 1576TIP3    H226220   4.584   2.976  13.164  0.8963 -1.3544  0.2625
 1577TIP3   OH226221   1.920   1.699  13.426  0.7691 -0.3013  0.2909
 1577TIP3    H126222   1.832   1.706  13.463  0.8265 -0.9656  0.5654
 1577TIP3    H226223   1.964   1.635  13.482  1.8331  0.9607  0.9298
 1578TIP3   OH226224   4.839   5.487   2.645 -0.0871 -0.8634  0.4931
 1578TIP3    H126225   4.761   5.539   2.629 -0.5719 -1.2949  1.4418
 1578TIP3    H226226   4.912   5.549   2.638 -0.3750 -0.7068 -1.7495
 1579TIP3   OH226227   3.432   4.399  16.180 -0.0620 -0.2232  0.0650
 1579TIP3    H126228   3.428   4.331  16.113 -0.4699  1.4439 -1.6426
 1579TIP3    H226229   3.453   4.479  16.132 -0.3557  1.0099  1.9252
 1580TIP3   OH226230   3.955   1.792  15.923 -0.4916  0.4743  0.1093
 1580TIP3    H126231   3.890   1.789  15.993  0.1580  0.5113  0.7196
 1580TIP3    H226232   3.904   1.796  15.842 -1.2485  1.4452  0.6228
 1581TIP3   OH226233   5.057   4.895   0.039  0.5551  0.0283 -0.1554
 1581TIP3    H126234   4.970   4.921   0.009  0.1747 -3.2294 -2.1227
 1581TIP3    H226235   5.055   4.908   0.134 -1.7775  0.7689 -0.2886
 1582TIP3   OH226236   3.267   6.330  12.596  0.3515 -0.0623 -0.5539
 1582TIP3    H126237   3.232   6.265  12.658  0.2132 -0.6244 -1.2198
 1582TIP3    H226238   3.278   6.409  12.649  2.6590 -1.2516  0.8510
 1583TIP3   OH226239   2.142   1.508  13.358  0.0282  0.3050  0.0304
 1583TIP3    H126240   2.075   1.528  13.292  0.7027  0.0591 -0.7318
 1583TIP3    H226241   2.097   1.519  13.441 -0.4409  2.0612 -0.4305
 1584TIP3   OH226242   0.278   2.176   5.269 -0.1624 -0.2772  0.5469
 1584TIP3    H126243   0.358   2.186   5.217  0.4469 -1.8737  1.1554
 1584TIP3    H226244   0.274   2.256   5.321  1.7785 -0.7697  1.4958
 1585TIP3   OH226245   6.702   2.989  14.821  0.5876  0.3234  0.3092
 1585TIP3    H126246   6.645   3.004  14.745 -0.6266 -0.4608  1.0484
 1585TIP3    H226247   6.653   3.024  14.895  0.1547 -2.1397  1.2494
 1586TIP3   OH226248   3.684   0.265  17.169  0.3312  0.5693 -0.4196
 1586TIP3    H126249   3.596   0.227  17.177  0.8065 -0.4643  0.0125
 1586TIP3    H226250   3.682   0.343  17.224 -0.8331  1.5199 -1.7592
 1587TIP3   OH226251   4.295   0.881  14.728  0.0407 -0.6029  0.4424
 1587TIP3    H126252   4.262   0.970  14.715  0.8784 -0.0232  2.0445
 1587TIP3    H226253   4.217   0.826  14.722 -0.4049  0.1785 -1.1099
 1588TIP3   OH226254   1.329   0.777  11.334  0.5848 -0.3872  0.5775
 1588TIP3    H126255   1.312   0.810  11.422 -0.4463  0.6317  0.0190
 1588TIP3    H226256   1.407   0.723  11.343  0.1748 -0.7400  2.2231
 1589TIP3   OH226257   2.828   5.102   4.212  0.0589  0.3735  0.1902
 1589TIP3    H126258   2.751   5.084   4.267  0.5936  1.3175  1.2771
 1589TIP3    H226259   2.843   5.021   4.164 -2.1262  0.4365 -0.6661
 1590TIP3   OH226260   2.563   2.899  16.764 -0.4885  0.1525 -0.0779
 1590TIP3    H126261   2.472   2.877  16.743 -0.2962 -0.6835 -0.0818
 1590TIP3    H226262   2.567   2.891  16.860 -0.4525  0.3142 -0.0651
 1591TIP3   OH226263   2.452   4.447   6.737  0.1314  0.3355  0.3017
 1591TIP3    H126264   2.535   4.409   6.768  0.7529  1.2889 -0.1541
 1591TIP3    H226265   2.389   4.426   6.805  0.6904 -0.6508  0.5230
 1592TIP3   OH226266   4.024   0.444   1.054  0.2633  0.0789 -0.1745
 1592TIP3    H126267   3.989   0.384   1.119 -2.0377  1.2041 -0.3399
 1592TIP3    H226268   4.119   0.427   1.054  0.1147 -0.9001  2.4212
 1593TIP3   OH226269   0.501   2.064  12.700  0.1776 -0.0827  0.5844
 1593TIP3    H126270   0.593   2.090  12.694  0.4077 -0.6269  1.7481
 1593TIP3    H226271   0.476   2.086  12.790  0.1331 -3.0465  1.3535
 1594TIP3   OH226272   1.577   4.571   6.670  0.5695  0.8883 -0.6855
 1594TIP3    H126273   1.571   4.516   6.592 -0.6895 -0.3332  0.2505
 1594TIP3    H226274   1.487   4.596   6.689  0.6284 -0.3354  1.4214
 1595TIP3   OH226275   3.415   0.819   3.208  0.1193 -0.1367  0.4598
 1595TIP3    H126276   3.436   0.842   3.118 -0.5920 -0.4011  0.2212
 1595TIP3    H226277   3.407   0.724   3.207 -0.5399 -0.0868  0.6561
 1596TIP3   OH226278   5.952   2.030  15.624 -0.0126  0.2339 -0.1481
 1596TIP3    H126279   5.962   2.060  15.534 -0.5799  1.0674  0.0537
 1596TIP3    H226280   5.881   2.084  15.659 -0.7248 -1.0230  0.3822
 1597TIP3   OH226281   1.396   5.369   4.739  0.0849 -0.5819 -0.2359
 1597TIP3    H126282   1.350   5.451   4.721 -0.5447 -0.8069  0.3137
 1597TIP3    H226283   1.440   5.347   4.657  1.6185  1.1724  0.0798
 1598TIP3   OH226284   4.825   1.460  10.376 -0.0011  0.4266  0.0414
 1598TIP3    H126285   4.915   1.467  10.409 -0.1035 -1.3764  0.7162
 1598TIP3    H226286   4.791   1.379  10.414 -1.7895  0.8901 -0.5274
 1599TIP3   OH226287   5.767   0.994   1.498  0.2659 -0.3792  0.1974
 1599TIP3    H126288   5.689   0.942   1.478  0.3608 -0.4768  0.0848
 1599TIP3    H226289   5.820   0.990   1.419  1.1132 -1.6061  0.7991
 1600TIP3   OH226290   5.771   6.685  11.445 -0.3455 -0.0133 -0.2865
 1600TIP3    H126291   5.835   6.753  11.469 -0.7657  0.2360  0.1426
 1600TIP3    H226292   5.724   6.668  11.526 -2.1192  1.1960 -1.0296
 1601TIP3   OH226293   0.963   2.135   4.205  0.3349  0.7633  0.2131
 1601TIP3    H126294   0.966   2.049   4.246  2.1853  0.5010 -0.4198
 1601TIP3    H226295   0.912   2.189   4.265  0.1671 -0.4792  1.1973
 1602TIP3   OH226296   6.388   5.158   5.379 -0.3598  0.1406 -0.2579
 1602TIP3    H126297   6.420   5.235   5.426  0.6661 -0.9970  0.9641
 1602TIP3    H226298   6.459   5.094   5.389 -1.6142 -1.2866 -0.4089
 1603TIP3   OH226299   3.417   3.237   3.800 -0.3099  0.0969  0.3523
 1603TIP3    H126300   3.474   3.285   3.860  1.1071 -1.7954  0.5528
 1603TIP3    H226301   3.367   3.178   3.856  0.5598 -1.2214 -0.2347
 1604TIP3   OH226302   2.627   0.885   6.009 -0.4052  0.0244  0.2795
 1604TIP3    H126303   2.538   0.887   5.973 -0.4319  1.7741  0.3870
 1604TIP3    H226304   2.615   0.873   6.103 -0.3566 -3.9188 -0.1332
 1605TIP3   OH226305   1.129   5.390   0.255  0.0848 -0.3077  0.3354
 1605TIP3    H126306   1.037   5.375   0.274  0.3675  0.2977  2.3357
 1605TIP3    H226307   1.171   5.393   0.341  1.5217  2.1884 -0.3952
 1606TIP3   OH226308   4.771   0.403  11.389 -0.5601 -0.6107  0.0034
 1606TIP3    H126309   4.701   0.454  11.349  0.6704  0.8351 -0.3393
 1606TIP3    H226310   4.846   0.415  11.331  1.1952  1.3541  2.5650
 1607TIP3   OH226311   0.868   5.279   0.592 -0.0586  0.1643  0.5129
 1607TIP3    H126312   0.930   5.254   0.524  1.0294  1.5477  0.9584
 1607TIP3    H226313   0.792   5.224   0.577  1.1995 -1.4254 -0.1744
 1608TIP3   OH226314   1.203   5.080  17.132 -0.1950  0.6668  1.3950
 1608TIP3    H126315   1.224   5.007  17.190  1.4867  1.6128  1.9682
 1608TIP3    H226316   1.159   5.144  17.188 -2.3533 -0.1698  0.7407
 1609TIP3   OH226317   5.460   3.209   1.344 -0.2301  0.1993 -1.2789
 1609TIP3    H126318   5.408   3.284   1.316 -1.0066  0.0543 -0.2555
 1609TIP3    H226319   5.508   3.242   1.420 -0.9730 -0.4860 -0.5046
 1610TIP3   OH226320   5.941   1.192  13.664  0.0007  0.1450  0.0037
 1610TIP3    H126321   6.016   1.206  13.722 -0.5116  0.6213  0.5636
 1610TIP3    H226322   5.908   1.106  13.688 -1.5635  1.2623  1.9939
 1611TIP3   OH226323   4.552   5.673  11.987  0.4447 -0.2196  0.6215
 1611TIP3    H126324   4.633   5.702  12.029  1.0489  1.5150 -1.6695
 1611TIP3    H226325   4.576   5.655  11.896 -1.7137  0.3035 -0.0937
 1612TIP3   OH226326   5.181   1.405   3.840  0.7751  0.9774 -0.3410
 1612TIP3    H126327   5.208   1.441   3.924  2.2547  0.2681 -0.4943
 1612TIP3    H226328   5.207   1.472   3.776 -1.1446  1.9179 -0.1912
 1613TIP3   OH226329   3.877   3.939  13.489 -0.3163 -0.4296  0.6149
 1613TIP3    H126330   3.783   3.931  13.505 -0.3898 -2.1286 -0.5430
 1613TIP3    H226331   3.900   4.024  13.525 -2.0922 -0.4545  1.8837
 1614TIP3   OH226332   1.925   6.305   6.774 -0.1943 -0.1355 -0.0414
 1614TIP3    H126333   1.898   6.397   6.782  0.7564  0.1296  0.2736
 1614TIP3    H226334   1.847   6.260   6.742 -0.5767  0.8412 -0.5304
 1615TIP3   OH226335   0.163   1.908  15.487  0.0185 -0.4919  0.4089
 1615TIP3    H126336   0.234   1.941  15.432  1.2239 -2.1186  0.9575
 1615TIP3    H226337   0.143   1.981  15.545  1.1798  0.0349  0.1763
 1616TIP3   OH226338   4.679   2.544  15.723 -0.3257  0.3526 -0.3202
 1616TIP3    H126339   4.651   2.481  15.790 -0.9316  0.5758 -0.3587
 1616TIP3    H226340   4.598   2.569  15.678 -0.0506  0.9427 -0.4926
 1617TIP3   OH226341   5.469   0.704   3.021 -0.3553 -0.2557  0.2381
 1617TIP3    H126342   5.432   0.750   2.945  2.3170 -0.1157 -1.0493
 1617TIP3    H226343   5.439   0.614   3.011 -1.0084  0.0158 -0.3381
 1618TIP3   OH226344   2.595   1.451  16.185  0.0105 -0.3123  0.4701
 1618TIP3    H126345   2.570   1.484  16.271 -0.0648  1.4759 -0.2235
 1618TIP3    H226346   2.626   1.528  16.138 -0.6204 -1.1596 -1.3543
 1619TIP3   OH226347   3.863   6.348   2.334  0.3933  0.7927  0.3891
 1619TIP3    H126348   3.932   6.292   2.301 -0.0673  0.8040 -0.5921
 1619TIP3    H226349   3.882   6.435   2.298  0.9639  1.2253  1.6974
 1620TIP3   OH226350   2.440   0.212  10.675 -0.8400  0.3640  0.0868
 1620TIP3    H126351   2.362   0.166  10.646 -0.6502 -0.6701  1.1546
 1620TIP3    H226352   2.414   0.304  10.678 -2.1998 -0.0247  0.9541
 1621TIP3   OH226353   0.642   0.698   0.796  0.1999 -0.5965 -0.0470
 1621TIP3    H126354   0.557   0.681   0.755 -0.2992  2.3979 -0.4035
 1621TIP3    H226355   0.691   0.747   0.729  0.3837  1.9697  1.8880
 1622TIP3   OH226356   6.031   3.497   1.311 -0.5440  0.0396  0.2999
 1622TIP3    H126357   5.990   3.554   1.376 -0.3711  0.4804  0.0278
 1622TIP3    H226358   6.004   3.533   1.226 -0.5371 -0.3592  0.1253
 1623TIP3   OH226359   5.387   3.765   5.458  0.9843 -0.0417 -0.2019
 1623TIP3    H126360   5.447   3.830   5.494  1.7043 -1.1201  0.5815
 1623TIP3    H226361   5.443   3.702   5.414  0.4481 -1.2027  0.7694
 1624TIP3   OH226362   2.168   3.495  13.623 -0.2669 -0.0177  0.4065
 1624TIP3    H126363   2.239   3.483  13.686  0.2646  1.4611  0.1065
 1624TIP3    H226364   2.212   3.496  13.538 -0.4755  2.1998  0.3048
 1625TIP3   OH226365   1.608   1.026  12.664 -0.3063 -0.2991 -0.7479
 1625TIP3    H126366   1.534   1.064  12.616  0.3303  3.1861  0.9234
 1625TIP3    H226367   1.570   0.996  12.747 -0.1454  0.0378 -0.5512
 1626TIP3   OH226368   6.309   2.470   1.913 -0.5324  0.1877 -0.0317
 1626TIP3    H126369   6.403   2.464   1.897 -0.4841  1.0590 -0.0774
 1626TIP3    H226370   6.272   2.501   1.830 -0.9059 -0.5208 -0.1340
 1627TIP3   OH226371   5.182   4.682   1.543 -0.4782 -0.4129 -0.2151
 1627TIP3    H126372   5.177   4.777   1.559  1.8579 -0.4943  1.3626
 1627TIP3    H226373   5.136   4.643   1.616 -1.8430 -0.4942 -1.1130
 1628TIP3   OH226374   1.808   0.721  11.753  0.2232  1.1267  0.1923
 1628TIP3    H126375   1.833   0.640  11.710  1.1895  1.1682  0.6523
 1628TIP3    H226376   1.713   0.718  11.758  0.1591  0.7899 -1.2694
 1629TIP3   OH226377   1.296   2.222  11.882 -0.0393 -0.1973  0.4745
 1629TIP3    H126378   1.253   2.140  11.905 -1.0966  0.8153  2.2963
 1629TIP3    H226379   1.383   2.216  11.922 -0.6286  0.1206  1.8603
 1630TIP3   OH226380   0.275   1.332  12.548 -0.3092 -0.1781 -0.5041
 1630TIP3    H126381   0.191   1.363  12.513 -0.8914  0.9504  1.7885
 1630TIP3    H226382   0.255   1.245  12.583 -1.1310  1.0455  2.1665
 1631TIP3   OH226383   1.481   5.024   1.080 -0.1360 -0.5420  0.6250
 1631TIP3    H126384   1.549   4.962   1.106 -0.0713 -0.7207  0.0498
 1631TIP3    H226385   1.525   5.086   1.023 -0.8417 -1.7851 -1.3255
 1632TIP3   OH226386   4.432   5.028  13.639  0.2648  0.0924 -0.5053
 1632TIP3    H126387   4.433   4.999  13.730  0.2905  1.6428  0.0034
 1632TIP3    H226388   4.342   5.055  13.623 -0.3201 -2.4011 -1.6924
 1633TIP3   OH226389   2.567   4.361  12.197  0.5948 -0.4087  0.0566
 1633TIP3    H126390   2.499   4.306  12.158  0.6283 -1.4438  1.4231
 1633TIP3    H226391   2.613   4.399  12.122  2.1851 -4.1917 -1.0183
 1634TIP3   OH226392   0.963   1.117   4.719 -0.2093 -0.6921  0.3313
 1634TIP3    H126393   1.003   1.038   4.754  0.8470 -0.0206  0.6565
 1634TIP3    H226394   0.981   1.114   4.625  0.5192 -0.4402  0.4629
 1635TIP3   OH226395   4.119   0.490  12.837  0.2210  0.1635  0.0178
 1635TIP3    H126396   4.081   0.509  12.922  1.0393 -0.9381  0.6395
 1635TIP3    H226397   4.075   0.410  12.808  1.1798 -0.4423  0.2019
 1636TIP3   OH226398   4.829   3.344  11.945  0.8039  0.3571  0.0302
 1636TIP3    H126399   4.873   3.288  12.009 -0.8627  0.2618  1.1270
 1636TIP3    H226400   4.829   3.431  11.986  0.5650  0.4950 -0.2639
 1637TIP3   OH226401   6.367   6.759  14.578 -0.4300 -0.0286  0.1708
 1637TIP3    H126402   6.360   6.674  14.621  1.5124  0.2361  1.0895
 1637TIP3    H226403   6.425   6.743  14.504  2.8845  1.1495  2.3652
 1638TIP3   OH226404   0.654   0.074  14.567  0.2651  0.4647 -0.4002
 1638TIP3    H126405   0.660   0.058  14.661  1.5240 -0.1150 -0.5691
 1638TIP3    H226406   0.704   0.154  14.553 -0.8700  1.1835 -0.4290
 1639TIP3   OH226407   6.125   1.445   5.363 -0.5711 -0.5027 -0.0553
 1639TIP3    H126408   6.106   1.379   5.297  1.8185  0.8216 -2.1318
 1639TIP3    H226409   6.211   1.421   5.397  0.3603  1.5295 -0.8821
 1640TIP3   OH226410   6.664   1.921   2.811  0.4030 -0.1273 -0.6259
 1640TIP3    H126411   6.725   1.847   2.822  0.4881 -0.0374 -0.4924
 1640TIP3    H226412   6.684   1.979   2.884 -0.0093 -0.2110 -0.4457
 1641TIP3   OH226413   5.433   0.077  13.928  0.3851  0.2089  0.1943
 1641TIP3    H126414   5.367   0.009  13.930  1.0120 -0.3473  3.1225
 1641TIP3    H226415   5.510   0.035  13.888  0.1168 -0.1741  0.0804
 1642TIP3   OH226416   1.439   4.112  13.984 -0.8712 -0.0261  0.0189
 1642TIP3    H126417   1.522   4.127  14.030 -0.9962 -1.4600  0.7466
 1642TIP3    H226418   1.451   4.154  13.899  0.0922  0.9708  0.6347
 1643TIP3   OH226419   0.530   1.258  11.362 -0.1509  0.2545 -0.1800
 1643TIP3    H126420   0.618   1.223  11.346 -0.5685 -0.9909  0.1756
 1643TIP3    H226421   0.471   1.195  11.319 -1.0083 -0.3604  1.8279
 1644TIP3   OH226422   3.422   5.829  14.981  0.4795 -0.1813 -0.4739
 1644TIP3    H126423   3.418   5.740  14.948 -0.8859 -0.4433  0.3236
 1644TIP3    H226424   3.435   5.820  15.075 -0.9196  0.3996 -0.1980
 1645TIP3   OH226425   4.957   2.620  14.086 -0.2132 -0.0164 -0.1807
 1645TIP3    H126426   5.029   2.678  14.111 -0.7145  0.6243 -0.2097
 1645TIP3    H226427   4.919   2.592  14.169 -0.8604  0.8237 -0.1927
 1646TIP3   OH226428   4.837   2.932  16.654 -0.7376 -0.0876  0.1173
 1646TIP3    H126429   4.859   2.839  16.648  0.9208  0.0559  2.9425
 1646TIP3    H226430   4.915   2.977  16.621 -1.5450  0.3179 -1.2647
 1647TIP3   OH226431   4.921   6.395  13.949 -0.3736 -0.1113 -0.5919
 1647TIP3    H126432   5.010   6.428  13.946 -0.2153 -0.6824 -2.5183
 1647TIP3    H226433   4.930   6.300  13.947 -0.9910 -0.2006  0.3631
 1648TIP3   OH226434   4.375   4.855  16.181 -0.3647 -0.6051 -0.1010
 1648TIP3    H126435   4.365   4.884  16.090 -0.2894  0.1346  0.1224
 1648TIP3    H226436   4.300   4.798  16.197 -0.5202 -0.5234 -0.5475
 1649TIP3   OH226437   4.308   5.263   4.658  0.3509 -0.2122 -0.0766
 1649TIP3    H126438   4.360   5.340   4.636  0.1532  0.2850  1.1415
 1649TIP3    H226439   4.243   5.256   4.588  1.2805 -0.1190 -0.9525
 1650TIP3   OH226440   3.762   2.830  13.057 -0.3898 -0.0259 -0.4985
 1650TIP3    H126441   3.778   2.741  13.027 -0.2134 -0.3869  0.6258
 1650TIP3    H226442   3.754   2.882  12.977  0.0790 -0.9490 -1.1494
 1651TIP3   OH226443   5.434   6.223   4.856  0.3282  0.4480  0.2462
 1651TIP3    H126444   5.411   6.241   4.765 -0.5789  1.2754  0.6298
 1651TIP3    H226445   5.527   6.247   4.863 -0.0371  1.9744 -0.0462
 1652TIP3   OH226446   0.326   5.966   4.351  0.0522 -0.4612  0.4000
 1652TIP3    H126447   0.251   5.940   4.298 -0.0259  1.2325 -0.3648
 1652TIP3    H226448   0.303   5.942   4.441 -1.6680  0.6001  0.2609
 1653TIP3   OH226449   0.431   3.972  16.320  0.2010 -0.3506  0.3660
 1653TIP3    H126450   0.454   4.014  16.237 -0.1191  1.3466  1.0975
 1653TIP3    H226451   0.500   3.907  16.334  1.2755  0.6086 -0.3374
 1654TIP3   OH226452   6.691   0.207  10.982 -0.0889  0.4465  0.1261
 1654TIP3    H126453   6.702   0.237  10.892  3.6357 -1.2088 -0.0961
 1654TIP3    H226454   6.686   0.111  10.975  0.2120  0.2953  1.6454
 1655TIP3   OH226455   6.577   3.324   3.905  0.3828  0.0373 -0.3009
 1655TIP3    H126456   6.573   3.401   3.849  3.1062 -0.9850 -2.0113
 1655TIP3    H226457   6.569   3.250   3.844 -0.8638 -1.0633  1.1613
 1656TIP3   OH226458   5.128   2.309  16.048 -0.0347  0.0165  0.0006
 1656TIP3    H126459   5.204   2.279  15.998 -0.7196 -0.9679 -0.4817
 1656TIP3    H226460   5.160   2.321  16.137  0.5908 -0.8206 -0.1045
 1657TIP3   OH226461   4.605   1.309   2.006  0.7466  0.5200 -0.2860
 1657TIP3    H126462   4.559   1.259   2.074  0.6048 -0.0180 -0.7771
 1657TIP3    H226463   4.599   1.255   1.928  0.1727  1.5272 -0.9532
 1658TIP3   OH226464   5.276   1.381  13.278 -0.2332 -0.0712  0.1396
 1658TIP3    H126465   5.220   1.313  13.243 -0.0848 -0.1901  0.1338
 1658TIP3    H226466   5.351   1.335  13.316  0.5569  0.1459 -1.1138
 1659TIP3   OH226467   1.003   6.474  10.490  0.1056  0.0161  0.5775
 1659TIP3    H126468   0.963   6.558  10.514  0.5537  0.1370  0.9174
 1659TIP3    H226469   1.035   6.438  10.573 -3.0438 -2.0846  0.9556
 1660TIP3   OH226470   5.362   1.299   3.223 -0.1613 -0.4161  0.3599
 1660TIP3    H126471   5.338   1.211   3.196  0.7017 -0.9263  1.2415
 1660TIP3    H226472   5.379   1.292   3.318  2.5302  0.0955 -0.0287
 1661TIP3   OH226473   6.611   3.920  16.161  0.1717 -0.1969  0.1064
 1661TIP3    H126474   6.593   3.826  16.160  1.2212 -0.4012  0.5751
 1661TIP3    H226475   6.583   3.949  16.247 -0.6614  0.0261 -0.2371
 1662TIP3   OH226476   5.569   5.878  14.580  0.6893 -0.2358 -0.3488
 1662TIP3    H126477   5.480   5.882  14.616  0.0571 -2.0090 -1.6457
 1662TIP3    H226478   5.604   5.966  14.594 -0.6243 -0.0122  1.7901
 1663TIP3   OH226479   2.226   1.998  11.414  0.4946  0.6359  0.1354
 1663TIP3    H126480   2.170   1.976  11.340 -0.0976 -0.3477  0.8636
 1663TIP3    H226481   2.228   2.094  11.415 -0.0187  0.6566 -0.7541
 1664TIP3   OH226482   6.441   2.474   5.332 -0.2019  0.2778  0.2119
 1664TIP3    H126483   6.447   2.460   5.237 -0.1019  1.2336  0.0702
 1664TIP3    H226484   6.517   2.427   5.368  0.7017  1.2853 -0.3450
 1665TIP3   OH226485   3.341   3.506  14.819  0.2429 -0.0815 -0.2052
 1665TIP3    H126486   3.398   3.501  14.743  2.9663  0.2139  1.7243
 1665TIP3    H226487   3.316   3.415  14.836  0.1968 -0.2248 -1.0268
 1666TIP3   OH226488   0.591   0.028   4.502 -0.1596  0.3022  0.5696
 1666TIP3    H126489   0.542  -0.043   4.544 -1.9129  1.5033  0.6118
 1666TIP3    H226490   0.526   0.097   4.488  0.4593  0.1905 -3.5510
 1667TIP3   OH226491   4.866   0.279   0.054 -0.4697 -0.3748  0.1348
 1667TIP3    H126492   4.940   0.221   0.071 -0.2919 -0.3516 -0.5299
 1667TIP3    H226493   4.791   0.220   0.044 -0.0895 -0.5759 -1.6329
 1668TIP3   OH226494   2.122   2.866   5.831 -0.3170 -0.2696 -0.0684
 1668TIP3    H126495   2.198   2.869   5.889  0.2653  1.7125 -0.8668
 1668TIP3    H226496   2.110   2.774   5.811  0.5215 -0.8166  1.8254
 1669TIP3   OH226497   2.424   5.272   1.977 -0.5560 -0.2278 -0.6301
 1669TIP3    H126498   2.518   5.291   1.970 -0.3212 -0.8693  0.6655
 1669TIP3    H226499   2.402   5.232   1.893  0.6927 -1.5465 -0.3577
 1670TIP3   OH226500   6.025   5.787   4.156  0.2630  0.1963 -0.3726
 1670TIP3    H126501   6.039   5.790   4.250 -1.1738 -0.7938 -0.1061
 1670TIP3    H226502   6.044   5.876   4.125  1.5223  0.3124  0.7271
 1671TIP3   OH226503   3.935   4.351  13.075 -0.1856  0.4283  0.0546
 1671TIP3    H126504   3.900   4.431  13.115 -0.6406 -0.2417  0.9926
 1671TIP3    H226505   3.911   4.281  13.135  0.5747 -0.3724 -0.5662
 1672TIP3   OH226506   2.801   4.916  15.056 -0.3982  0.0886 -0.0584
 1672TIP3    H126507   2.884   4.887  15.093 -1.0315  0.4208  1.6597
 1672TIP3    H226508   2.750   4.945  15.131 -1.7703  0.6563 -1.1833
 1673TIP3   OH226509   0.434   5.286   0.293 -0.3130 -0.0809 -0.4509
 1673TIP3    H126510   0.520   5.316   0.323 -0.2072  2.2391 -2.9261
 1673TIP3    H226511   0.372   5.343   0.339 -0.3973  0.1933 -0.9116
 1674TIP3   OH226512   0.011   2.047   1.688 -0.0648  0.4458  0.1969
 1674TIP3    H126513  -0.029   2.002   1.614 -1.5531  2.3802 -0.2323
 1674TIP3    H226514   0.086   2.093   1.651  0.6358 -0.5429  0.3724
 1675TIP3   OH226515   5.655   4.830   5.372 -0.0877 -0.5103  0.4571
 1675TIP3    H126516   5.724   4.873   5.422 -0.7551  1.4114 -0.2326
 1675TIP3    H226517   5.657   4.872   5.286 -2.8186  0.3978  0.7688
 1676TIP3   OH226518   2.756   0.879  12.410 -0.2909  0.4630 -0.0897
 1676TIP3    H126519   2.737   0.971  12.431  0.1131  0.1547  1.7193
 1676TIP3    H226520   2.680   0.831  12.442 -0.2250  0.0989 -0.4801
 1677TIP3   OH226521   2.699   1.176  11.509  0.1586 -0.3051  0.2055
 1677TIP3    H126522   2.615   1.148  11.472  0.7210 -0.8901 -0.6639
 1677TIP3    H226523   2.764   1.144  11.446  1.1327 -1.1993  1.6376
 1678TIP3   OH226524   0.659   5.914   2.104  0.4804  0.0609 -0.0524
 1678TIP3    H126525   0.623   6.002   2.113  0.9558  0.4327 -1.6864
 1678TIP3    H226526   0.732   5.911   2.166 -0.2528  0.4267  0.8357
 1679TIP3   OH226527   0.840   1.736   1.127  0.1929  0.6492  0.1474
 1679TIP3    H126528   0.835   1.779   1.212  0.1444 -0.5820  0.7805
 1679TIP3    H226529   0.925   1.763   1.091  0.7757  0.1584  1.1459
 1680TIP3   OH226530   1.412   1.691  13.558 -0.0741  0.0512  0.3545
 1680TIP3    H126531   1.366   1.611  13.533  0.9191 -0.3047 -0.3978
 1680TIP3    H226532   1.379   1.712  13.645 -2.0655  0.1358 -0.4033
 1681TIP3   OH226533   4.462   2.778  12.500 -0.4260 -0.1614 -0.2315
 1681TIP3    H126534   4.455   2.740  12.412 -0.6204  0.2585 -0.3981
 1681TIP3    H226535   4.551   2.757  12.528 -0.4593 -0.5487 -0.4115
 1682TIP3   OH226536   5.896   1.904   1.533 -0.3062  0.8211  0.1427
 1682TIP3    H126537   5.889   1.932   1.624  1.2413  0.1675  0.4651
 1682TIP3    H226538   5.938   1.818   1.537 -1.0836  0.3647 -1.1298
 1683TIP3   OH226539   2.488   2.026  11.432  0.2421 -0.1425  0.5774
 1683TIP3    H126540   2.505   2.095  11.368  0.2185 -1.5968 -1.0510
 1683TIP3    H226541   2.392   2.024  11.439  0.2026 -0.6059 -0.0588
 1684TIP3   OH226542   6.170   2.199  10.426 -0.1258 -0.3280 -0.2419
 1684TIP3    H126543   6.182   2.127  10.365 -2.0395  0.0264 -1.0844
 1684TIP3    H226544   6.077   2.221  10.419  0.1831  1.4442  0.8680
 1685TIP3   OH226545   1.876   1.792   2.969 -0.3448  0.1816  0.1261
 1685TIP3    H126546   1.957   1.761   2.928  0.4636  2.8402 -0.4297
 1685TIP3    H226547   1.808   1.777   2.903  0.2323  0.5883 -0.5693
 1686TIP3   OH226548   0.022   1.159  11.477 -0.3832  0.0713  0.5686
 1686TIP3    H126549   0.091   1.184  11.538 -1.9780  1.5462  1.8177
 1686TIP3    H226550   0.032   1.065  11.466  2.8124  0.4581 -0.5404
 1687TIP3   OH226551   4.022   2.085  13.159 -0.2690 -0.8444 -0.2495
 1687TIP3    H126552   4.037   2.078  13.065  2.6519  0.9466  0.0104
 1687TIP3    H226553   4.014   1.994  13.189  1.6953 -1.5854 -1.8262
 1688TIP3   OH226554   0.065   1.206  16.934 -0.1646  0.1858 -0.6854
 1688TIP3    H126555   0.139   1.183  16.878  1.3803  0.8475  1.0244
 1688TIP3    H226556   0.100   1.271  16.995 -2.0858  0.3190  0.3262
 1689TIP3   OH226557   5.190   2.296  10.747 -0.3928 -0.2498  0.4624
 1689TIP3    H126558   5.202   2.291  10.652  1.2097 -0.0796  0.6448
 1689TIP3    H226559   5.176   2.389  10.764 -1.0791 -0.3294  0.3563
 1690TIP3   OH226560   0.534   5.135   3.981 -0.3978  0.0967 -0.1498
 1690TIP3    H126561   0.475   5.198   4.021 -0.5416 -0.6312  0.8011
 1690TIP3    H226562   0.620   5.155   4.018 -0.4197 -0.1683  0.0492
 1691TIP3   OH226563   4.440   5.035   5.131 -0.2968  0.2710 -0.0648
 1691TIP3    H126564   4.351   5.003   5.118 -0.1089  0.6975 -2.9203
 1691TIP3    H226565   4.433   5.102   5.199 -2.2132  0.5050 -0.4834
 1692TIP3   OH226566   6.542   4.401   1.222  0.3169  0.2447 -0.1260
 1692TIP3    H126567   6.528   4.493   1.244  2.1751  0.2815  0.9976
 1692TIP3    H226568   6.622   4.401   1.169 -0.5035 -0.5776 -1.4008
 1693TIP3   OH226569   2.400   4.762  12.643  0.0699 -0.1496 -0.0881
 1693TIP3    H126570   2.316   4.797  12.610 -0.1751 -0.2131  0.4641
 1693TIP3    H226571   2.459   4.837  12.641 -0.3886  0.2444  0.8631
 1694TIP3   OH226572   1.225   0.171   3.700 -0.1473 -0.6141  0.2327
 1694TIP3    H126573   1.274   0.238   3.652 -0.9786 -0.0319  0.1914
 1694TIP3    H226574   1.292   0.112   3.733  0.5737  0.0601 -0.0062
 1695TIP3   OH226575   6.062   5.605   0.215  0.3252 -0.2630 -0.2659
 1695TIP3    H126576   6.148   5.594   0.174  1.3814  2.0862  1.2087
 1695TIP3    H226577   6.076   5.670   0.283 -2.5996 -0.0026  0.1574
 1696TIP3   OH226578   0.797   4.945  17.052  0.0063  0.0704 -0.3952
 1696TIP3    H126579   0.703   4.951  17.067 -0.0390  2.0124 -1.3055
 1696TIP3    H226580   0.836   4.975  17.135 -0.1899  0.6184 -0.4997
 1697TIP3   OH226581   0.258   3.422   0.540  0.2969  0.1153  0.0633
 1697TIP3    H126582   0.249   3.434   0.445 -0.4790  0.2459  0.1515
 1697TIP3    H226583   0.239   3.509   0.576  3.3894  0.7880  0.1706
 1698TIP3   OH226584   3.345   5.210  16.926  0.0857 -0.4168  0.3305
 1698TIP3    H126585   3.350   5.299  16.893 -1.6479 -0.4495 -0.0629
 1698TIP3    H226586   3.277   5.212  16.993  0.7998 -1.2216  1.1124
 1699TIP3   OH226587   0.553   3.853  15.127  0.2918 -0.1274 -0.4909
 1699TIP3    H126588   0.511   3.847  15.213  2.6264  0.8155  0.7397
 1699TIP3    H226589   0.497   3.914  15.078 -1.0717 -0.6865  0.3200
 1700TIP3   OH226590   0.059   3.081  11.354  0.2945 -0.1561 -0.4198
 1700TIP3    H126591   0.031   3.076  11.445  0.1782  1.5880 -0.3345
 1700TIP3    H226592   0.109   3.163  11.349 -1.4229  0.8314 -2.3768
 1701TIP3   OH226593   0.326   5.759   2.700  0.2151  0.0678 -0.6480
 1701TIP3    H126594   0.259   5.818   2.736  0.2619 -0.5343  0.4403
 1701TIP3    H226595   0.290   5.672   2.713  1.7722 -0.3400  1.1656
 1702TIP3   OH226596   5.715   4.237  12.167  0.3131 -0.6626  0.2330
 1702TIP3    H126597   5.695   4.148  12.140  0.8882  0.1375 -2.9520
 1702TIP3    H226598   5.691   4.291  12.092 -0.4101  1.9269  2.2532
 1703TIP3   OH226599   0.211   1.119  14.304  0.6893  0.2591  0.1307
 1703TIP3    H126600   0.204   1.037  14.352  0.3285  1.6089  2.5067
 1703TIP3    H226601   0.260   1.097  14.225  2.0911 -1.9035  1.5407
 1704TIP3   OH226602   5.575   1.668  14.980  0.1637 -0.0506  1.0477
 1704TIP3    H126603   5.493   1.625  14.957  0.6068 -1.3963  1.9483
 1704TIP3    H226604   5.567   1.756  14.943 -0.7865 -0.8664 -0.7211
 1705TIP3   OH226605   0.759   6.174  11.994  0.0490  0.3339 -0.5280
 1705TIP3    H126606   0.812   6.253  12.009 -3.2006  2.8519 -1.8001
 1705TIP3    H226607   0.706   6.165  12.073 -0.7205  0.3143 -1.0487
 1706TIP3   OH226608   2.763   4.722   4.876 -0.5187 -0.1224  0.5685
 1706TIP3    H126609   2.756   4.670   4.956  1.3910  1.9336  2.1793
 1706TIP3    H226610   2.776   4.659   4.806  0.4586 -1.8627  2.2815
 1707TIP3   OH226611   1.957   2.161  15.122  0.0465 -0.2182 -0.3857
 1707TIP3    H126612   1.939   2.125  15.208 -0.2402  1.3345  0.2282
 1707TIP3    H226613   2.001   2.091  15.075 -0.3019 -1.2697  0.8335
 1708TIP3   OH226614   1.245   5.847  14.344  0.3716  1.0601 -0.2707
 1708TIP3    H126615   1.175   5.857  14.408  1.5437  2.8599  0.8084
 1708TIP3    H226616   1.274   5.756  14.352  2.3345  1.9166  3.8083
 1709TIP3   OH226617   2.322   5.740   1.200  0.1230  0.2709 -0.8196
 1709TIP3    H126618   2.275   5.772   1.277  0.7564  0.5806 -0.5524
 1709TIP3    H226619   2.258   5.744   1.129 -0.2323  0.7447 -0.4753
 1710TIP3   OH226620   4.393   5.608   5.692  0.0092 -0.0332 -0.2718
 1710TIP3    H126621   4.478   5.600   5.734  0.7007 -1.0060 -1.7817
 1710TIP3    H226622   4.329   5.589   5.761  1.0684 -0.5860  0.5595
 1711TIP3   OH226623   2.066   2.764  11.728 -0.3740 -0.2406 -0.0762
 1711TIP3    H126624   2.089   2.767  11.635  1.1563 -0.3177  0.2715
 1711TIP3    H226625   2.069   2.671  11.750 -0.7027 -0.2198  0.0447
 1712TIP3   OH226626   5.609   1.866   0.645  0.1311  0.2235 -0.7338
 1712TIP3    H126627   5.608   1.804   0.717  1.0606  1.6827  0.5702
 1712TIP3    H226628   5.527   1.915   0.653 -0.3200 -0.4064 -1.3995
 1713TIP3   OH226629   3.938   5.015  11.453  0.6498  0.1712 -0.4648
 1713TIP3    H126630   3.954   5.108  11.437 -2.2549  0.8815  0.3299
 1713TIP3    H226631   3.950   4.973  11.368 -0.2004  1.6268 -1.3185
 1714TIP3   OH226632   6.301   6.773  11.446 -0.0798  0.1394 -0.9187
 1714TIP3    H126633   6.245   6.850  11.451  0.9252  0.7877  0.7674
 1714TIP3    H226634   6.308   6.743  11.536  1.0390 -0.8427 -1.3274
 1715TIP3   OH226635   1.613   0.616  12.013  0.8296  0.3088  0.4000
 1715TIP3    H126636   1.597   0.653  12.100 -0.7080  1.2139 -0.2604
 1715TIP3    H226637   1.551   0.660  11.955  1.4018 -0.7388 -1.0584
 1716TIP3   OH226638   3.688   3.219  16.859  0.2563  0.0622 -0.1815
 1716TIP3    H126639   3.595   3.230  16.836  0.0468 -0.5417  0.3527
 1716TIP3    H226640   3.707   3.127  16.837 -0.1618 -0.7696  2.7515
 1717TIP3   OH226641   2.897   2.409  16.381  0.1997  0.1905  0.0438
 1717TIP3    H126642   2.918   2.488  16.331  1.2638 -0.7456 -1.0186
 1717TIP3    H226643   2.969   2.349  16.363 -0.0068 -0.6078  1.7796
 1718TIP3   OH226644   6.273   0.306   4.528  0.3134 -0.6552  0.1485
 1718TIP3    H126645   6.313   0.336   4.446  0.3459  1.7174  0.9907
 1718TIP3    H226646   6.197   0.363   4.540 -0.0967 -1.4412  1.4190
 1719TIP3   OH226647   2.987   5.210   6.283  0.5045 -0.6248  0.0270
 1719TIP3    H126648   3.058   5.211   6.219 -0.4574 -0.1217 -1.0500
 1719TIP3    H226649   3.007   5.283   6.342  1.3726 -1.0672  0.2875
 1720TIP3   OH226650   6.011   0.822   1.236  0.2456  0.3669  0.6531
 1720TIP3    H126651   6.013   0.915   1.255  2.9401  0.4879  0.0414
 1720TIP3    H226652   6.018   0.816   1.140  1.7078 -0.4604  0.7934
 1721TIP3   OH226653   3.611   1.228   4.724 -0.0130 -0.1517 -0.4811
 1721TIP3    H126654   3.688   1.177   4.746  0.6551  0.9276 -0.2584
 1721TIP3    H226655   3.605   1.293   4.794  0.2644  1.2818 -1.7654
 1722TIP3   OH226656   3.329   1.943  16.556 -0.4191 -0.2474 -0.2472
 1722TIP3    H126657   3.238   1.932  16.585 -0.2673 -1.7109 -0.2923
 1722TIP3    H226658   3.375   1.975  16.634 -0.7180 -0.7872  0.1597
 1723TIP3   OH226659   3.989   2.255  14.191 -0.0634 -0.5449  0.3792
 1723TIP3    H126660   4.077   2.268  14.227  0.5626 -3.3445 -0.0179
 1723TIP3    H226661   3.968   2.339  14.150  2.8738 -0.1681 -0.4817
 1724TIP3   OH226662   2.407   3.999  16.058  0.9906 -0.2837 -0.2245
 1724TIP3    H126663   2.324   4.032  16.023  1.1930 -0.5759 -0.9790
 1724TIP3    H226664   2.473   4.025  15.994  1.8713  2.2172  1.6320
 1725TIP3   OH226665   1.972   1.468   1.277 -1.1174 -0.1635 -0.2795
 1725TIP3    H126666   1.997   1.464   1.185 -0.4869  0.9936 -0.1592
 1725TIP3    H226667   1.934   1.555   1.289 -1.0346 -0.2389  0.5994
 1726TIP3   OH226668   6.555   3.047   0.830 -0.5872 -0.2510  0.1135
 1726TIP3    H126669   6.538   2.970   0.776 -2.1657  0.9496 -1.1744
 1726TIP3    H226670   6.582   3.114   0.767  0.3851  0.3544  1.1642
 1727TIP3   OH226671   1.976   2.677  12.937  0.2410 -0.0143  0.0002
 1727TIP3    H126672   1.932   2.759  12.962 -1.5483 -0.7686 -0.5720
 1727TIP3    H226673   1.910   2.609  12.952  1.6566 -1.3465  0.3199
 1728TIP3   OH226674   4.351   4.063  13.795  0.0844 -0.0812 -0.4152
 1728TIP3    H126675   4.272   4.011  13.812  0.4321 -0.5181 -0.1245
 1728TIP3    H226676   4.387   4.079  13.882 -1.1192  2.3907 -0.3257
 1729TIP3   OH226677   1.256   0.202   3.108 -0.4536 -0.0616 -0.3075
 1729TIP3    H126678   1.250   0.107   3.099 -0.9000  0.1450 -2.4345
 1729TIP3    H226679   1.209   0.236   3.032  2.6335  1.8343 -1.4498
 1730TIP3   OH226680   6.318   4.311   3.219  0.0917 -0.7620  0.0276
 1730TIP3    H126681   6.304   4.359   3.301  0.6833 -0.5655  0.0166
 1730TIP3    H226682   6.259   4.235   3.226  0.3875 -0.9286  0.7900
 1731TIP3   OH226683   0.136   2.449  15.122  0.1903  0.0768 -0.1088
 1731TIP3    H126684   0.104   2.440  15.212  1.0324  0.4865  0.2378
 1731TIP3    H226685   0.213   2.505  15.129  0.3830 -0.0543 -1.0653
 1732TIP3   OH226686   3.643   6.000   1.644  0.3802 -0.6594  0.3202
 1732TIP3    H126687   3.672   6.086   1.612 -0.0308 -0.1513  1.2706
 1732TIP3    H226688   3.549   5.998   1.625  0.5589 -1.2644 -0.4961
 1733TIP3   OH226689   4.729   0.016  15.265  0.1908 -0.5012  0.1914
 1733TIP3    H126690   4.677  -0.061  15.240 -1.0327  0.2498  0.3538
 1733TIP3    H226691   4.820  -0.012  15.255 -0.2350 -2.0047  0.3611
 1734TIP3   OH226692   2.994   3.992  11.158 -0.1808 -0.2385  0.6926
 1734TIP3    H126693   3.029   3.928  11.096 -1.6082  0.4333 -0.8497
 1734TIP3    H226694   2.900   3.979  11.155 -0.4225  1.3021  1.0605
 1735TIP3   OH226695   2.603   5.242   3.887  0.2631  0.4509  0.2395
 1735TIP3    H126696   2.592   5.318   3.944  0.6683  0.1852  0.6736
 1735TIP3    H226697   2.575   5.167   3.940 -0.4356  0.3268 -0.2933
 1736TIP3   OH226698   4.737   3.099   3.986  0.6427  0.0904 -0.4736
 1736TIP3    H126699   4.686   3.029   3.945 -0.1749 -0.7131  1.8283
 1736TIP3    H226700   4.700   3.180   3.951  1.1147 -0.5965 -2.6098
 1737TIP3   OH226701   1.352   4.618   6.086  0.1668 -0.0709  0.3581
 1737TIP3    H126702   1.428   4.563   6.067 -1.2192 -2.3400  1.1512
 1737TIP3    H226703   1.313   4.578   6.164 -2.2524  0.6221 -0.4664
 1738TIP3   OH226704   2.739   2.414   4.122  0.4183  0.1087 -0.0679
 1738TIP3    H126705   2.816   2.360   4.140 -0.9952 -1.8258  0.3332
 1738TIP3    H226706   2.774   2.497   4.092  2.6522 -1.1752 -1.1109
 1739TIP3   OH226707   5.615   4.934  17.048 -0.1754  0.4589 -0.7157
 1739TIP3    H126708   5.586   4.930  16.957  0.3126  0.5124 -0.8789
 1739TIP3    H226709   5.693   4.878  17.051  0.5332  1.4185 -0.6147
 1740TIP3   OH226710   0.251   3.800  14.067  0.1019 -0.2056 -0.4863
 1740TIP3    H126711   0.239   3.725  14.125 -0.3039 -1.1224 -1.7348
 1740TIP3    H226712   0.346   3.814  14.065  0.1717 -0.6312 -0.1981
 1741TIP3   OH226713   4.921   2.567  11.787 -0.4524 -0.0657 -0.1878
 1741TIP3    H126714   4.882   2.500  11.843 -2.0555 -0.5763 -1.8974
 1741TIP3    H226715   4.892   2.650  11.825 -0.5759 -0.3770  0.4016
 1742TIP3   OH226716   4.639   2.200  12.343  0.1927  0.6257  0.4163
 1742TIP3    H126717   4.606   2.243  12.421 -0.7205  0.7236 -0.0214
 1742TIP3    H226718   4.634   2.107  12.362 -0.3204  0.6427  0.3537
 1743TIP3   OH226719   2.104   0.667   0.924  0.2372 -0.3374 -0.0302
 1743TIP3    H126720   2.072   0.702   0.841 -0.0458  0.8928  0.5914
 1743TIP3    H226721   2.198   0.685   0.923  0.1124  0.3419  0.2348
 1744TIP3   OH226722   4.371   4.003  10.632  0.2728  0.2834  0.7002
 1744TIP3    H126723   4.344   3.911  10.631 -1.2883  0.7444 -0.1691
 1744TIP3    H226724   4.374   4.029  10.540 -0.8952  1.5696  1.0202
 1745TIP3   OH226725   2.592   6.610  17.141  0.2527  0.4594 -0.5990
 1745TIP3    H126726   2.622   6.660  17.217 -0.4094 -0.4104  0.2468
 1745TIP3    H226727   2.643   6.529  17.144 -0.8861 -0.2541 -0.1750
 1746TIP3   OH226728   2.409   4.190  14.911  0.6221 -0.2763  0.2434
 1746TIP3    H126729   2.469   4.254  14.871  0.3011 -0.6136 -0.7954
 1746TIP3    H226730   2.348   4.243  14.961  0.2546  0.2565 -0.7536
 1747TIP3   OH226731   4.108   1.141   4.526  0.5539  0.5704  0.0579
 1747TIP3    H126732   4.146   1.147   4.613 -0.7618 -1.2889  0.7926
 1747TIP3    H226733   4.166   1.081   4.479  1.9149  2.4641 -0.7353
 1748TIP3   OH226734   4.914   6.780   2.391  0.5432 -0.0016  0.5812
 1748TIP3    H126735   4.870   6.847   2.340 -1.8666 -2.7639 -1.1206
 1748TIP3    H226736   4.846   6.746   2.449  1.9500 -0.4149  2.0272
 1749TIP3   OH226737   6.278   5.340  17.259  0.0024  0.4740  0.1337
 1749TIP3    H126738   6.370   5.349  17.285 -0.0684  1.1545  0.1505
 1749TIP3    H226739   6.252   5.428  17.232 -0.6729  0.2978  0.2055
 1750TIP3   OH226740   2.768   6.013  14.399 -0.0886 -0.8696 -0.3721
 1750TIP3    H126741   2.694   5.998  14.458 -1.5523 -2.6589 -2.5830
 1750TIP3    H226742   2.821   5.934  14.405  1.0686 -0.0611  0.3379
 1751TIP3   OH226743   3.277   6.504   0.074 -0.0700  0.1515  0.0432
 1751TIP3    H126744   3.338   6.563   0.118  0.1106  0.5388 -0.7092
 1751TIP3    H226745   3.235   6.456   0.144  1.9143 -0.9320  0.5293
 1752TIP3   OH226746   1.890   2.762  16.472  1.0436  0.2454  0.1756
 1752TIP3    H126747   1.810   2.742  16.424  1.6278  0.5452 -0.9490
 1752TIP3    H226748   1.960   2.729  16.415  1.6757 -1.0927  1.6845
 1753TIP3   OH226749   3.615   0.014   4.293  0.3741  0.0947 -0.5567
 1753TIP3    H126750   3.577  -0.025   4.371  0.9658 -0.0310 -0.3308
 1753TIP3    H226751   3.659  -0.059   4.249  1.5141  0.5033 -0.1179
 1754TIP3   OH226752   2.410   1.313   4.858  0.1762 -0.3467 -0.1179
 1754TIP3    H126753   2.369   1.289   4.775 -1.1320  0.7414  0.2089
 1754TIP3    H226754   2.491   1.261   4.860 -0.3154 -1.2032 -1.5593
 1755TIP3   OH226755   3.449   6.443   4.218 -0.7522  0.0355 -0.3772
 1755TIP3    H126756   3.477   6.426   4.128 -0.9345 -3.7263  0.2041
 1755TIP3    H226757   3.484   6.370   4.269 -3.2046  0.4821  2.1046
 1756TIP3   OH226758   3.105   4.741   2.378 -0.2375  0.3853 -0.6869
 1756TIP3    H126759   3.020   4.700   2.393  1.0027 -2.2573 -0.4695
 1756TIP3    H226760   3.112   4.745   2.282 -1.1706  1.8842 -0.7005
 1757TIP3   OH226761   1.819   3.540  16.958 -0.4508  0.5253 -0.3785
 1757TIP3    H126762   1.737   3.588  16.973 -0.2479  0.5161  0.8392
 1757TIP3    H226763   1.881   3.607  16.929 -0.3578  0.8975  0.6403
 1758TIP3   OH226764   5.154   3.153  13.556  0.1224  0.1805 -0.3333
 1758TIP3    H126765   5.248   3.138  13.570 -0.3768 -1.1396  1.7722
 1758TIP3    H226766   5.123   3.187  13.640 -1.7727 -1.8097 -0.1971
 1759TIP3   OH226767   2.207   0.536  14.355  0.6137  0.0881  0.0530
 1759TIP3    H126768   2.150   0.533  14.279 -0.8816  0.8682  1.1036
 1759TIP3    H226769   2.265   0.610  14.338 -0.8346  1.3424  0.3999
 1760TIP3   OH226770   0.766   0.224   4.460 -0.1456 -0.0190 -0.3982
 1760TIP3    H126771   0.687   0.277   4.450  0.2136  1.1349  2.3603
 1760TIP3    H226772   0.737   0.144   4.503  0.1624  0.4408  0.6949
 1761TIP3   OH226773   5.274   5.905  14.255  0.1185  0.5425  0.6720
 1761TIP3    H126774   5.185   5.886  14.226  1.1461 -2.5502 -0.6983
 1761TIP3    H226775   5.286   5.852  14.334  0.6348  1.2188  1.0574
 1762TIP3   OH226776   6.305   1.926   3.208  0.0072 -0.4046  0.5169
 1762TIP3    H126777   6.330   1.995   3.268 -0.3567 -0.4478  0.7202
 1762TIP3    H226778   6.387   1.889   3.177  0.2317  1.1575 -0.7910
 1763TIP3   OH226779   1.263   5.528  16.509 -0.2669 -0.1648  0.5277
 1763TIP3    H126780   1.185   5.536  16.564  0.3445 -0.7361  1.4988
 1763TIP3    H226781   1.266   5.610  16.460 -0.7106  0.4338  1.4923
 1764TIP3   OH226782   5.227   1.750  17.055  0.1618  0.2313  0.2894
 1764TIP3    H126783   5.146   1.796  17.080  0.1341  0.3845 -0.0701
 1764TIP3    H226784   5.278   1.817  17.010 -0.0500 -0.1879 -0.5965
 1765TIP3   OH226785   0.984   0.327   0.369 -0.6880  0.0691 -0.1458
 1765TIP3    H126786   0.993   0.232   0.375  1.1256  0.3019  1.3030
 1765TIP3    H226787   0.929   0.351   0.443 -1.5232  0.1078 -0.7757
 1766TIP3   OH226788   0.122   2.828   4.126 -0.0874  0.5728  0.3521
 1766TIP3    H126789   0.209   2.859   4.102 -0.4586  1.4124  0.0767
 1766TIP3    H226790   0.131   2.732   4.132  0.8654  0.6658  0.4100
 1767TIP3   OH226791   4.331   5.550   6.760  0.0658 -0.5747  0.3754
 1767TIP3    H126792   4.255   5.578   6.708 -1.3619 -2.4656  1.3685
 1767TIP3    H226793   4.393   5.517   6.695 -2.1686 -4.0169 -0.1707
 1768TIP3   OH226794   6.745   0.470   5.648  0.7419  0.8643  0.1005
 1768TIP3    H126795   6.715   0.383   5.623  1.4915  0.9598 -1.1856
 1768TIP3    H226796   6.828   0.455   5.694  0.7697  0.8887  0.0586
 1769TIP3   OH226797   4.784   2.210  10.164  0.1248 -0.1032 -1.2662
 1769TIP3    H126798   4.690   2.197  10.160  0.0647  0.2284 -1.0060
 1769TIP3    H226799   4.821   2.122  10.173 -0.2436 -0.1263  0.1479
 1770TIP3   OH226800   3.209   3.651  12.890  0.1693  0.4976  0.2602
 1770TIP3    H126801   3.153   3.710  12.841 -0.3626  2.1232  2.7391
 1770TIP3    H226802   3.170   3.564  12.878 -0.5305  1.0224 -1.2919
 1771TIP3   OH226803   2.324   6.531   0.387 -0.1245 -0.3966  0.1233
 1771TIP3    H126804   2.365   6.604   0.432  0.8455 -1.7763  1.5564
 1771TIP3    H226805   2.384   6.508   0.316  1.3778 -2.0769  1.8920
 1772TIP3   OH226806   0.526   6.620  11.973 -0.1537  0.0370  0.0699
 1772TIP3    H126807   0.494   6.577  11.893 -0.1724 -0.0996  0.1510
 1772TIP3    H226808   0.602   6.670  11.944 -1.0906  1.2486 -0.3481
 1773TIP3   OH226809   6.072   6.088  15.531  0.5327 -0.3487  0.0921
 1773TIP3    H126810   6.014   6.136  15.471 -1.9319 -0.8780  1.9719
 1773TIP3    H226811   6.131   6.040  15.473 -1.2806 -0.2247 -1.9296
 1774TIP3   OH226812   0.410   4.898   4.283  0.2330 -0.7115 -0.1709
 1774TIP3    H126813   0.397   4.930   4.372  0.3564  1.4979 -0.9196
 1774TIP3    H226814   0.328   4.853   4.262 -1.7130  2.8269 -0.6000
 1775TIP3   OH226815   6.435   6.318  15.081 -0.0786  0.2802  0.6300
 1775TIP3    H126816   6.344   6.346  15.070  1.1890  4.7667  0.4252
 1775TIP3    H226817   6.431   6.242  15.138 -4.0293 -0.4057 -0.4629
 1776TIP3   OH226818   5.793   4.378  14.543  0.3196 -0.2586  0.2001
 1776TIP3    H126819   5.707   4.385  14.584  0.3693 -0.2929  0.3116
 1776TIP3    H226820   5.776   4.336  14.459  0.1614  0.2356 -0.0112
 1777TIP3   OH226821   5.625   5.192   5.515 -0.0981 -0.5906  0.2091
 1777TIP3    H126822   5.588   5.146   5.591 -0.7661  0.4853  0.5509
 1777TIP3    H226823   5.718   5.201   5.537 -0.5184  0.8712  1.5311
 1778TIP3   OH226824   3.203   3.324   1.903 -0.4631 -0.7393 -0.2920
 1778TIP3    H126825   3.266   3.262   1.867  1.2760  0.3761  0.7526
 1778TIP3    H226826   3.162   3.364   1.826  0.4860 -1.0919 -0.9981
 1779TIP3   OH226827   4.132   4.408  11.700 -0.0935  0.6432  0.1862
 1779TIP3    H126828   4.150   4.323  11.741 -1.8746  0.1860  0.0689
 1779TIP3    H226829   4.094   4.461  11.770  1.3625  1.4844  0.3544
 1780TIP3   OH226830   1.811   5.696  13.955  0.0089  0.5102  0.1210
 1780TIP3    H126831   1.719   5.670  13.955 -0.2666  1.1864  3.9604
 1780TIP3    H226832   1.859   5.614  13.963 -0.3054  0.2785 -0.3171
 1781TIP3   OH226833   1.847   4.051   2.198 -0.6324  0.0203 -0.0204
 1781TIP3    H126834   1.791   4.070   2.123  0.1887  1.6574 -0.2371
 1781TIP3    H226835   1.919   4.113   2.191 -0.1176 -0.3525  1.6813
 1782TIP3   OH226836   1.319   2.332   1.391  0.2092  0.4694 -0.0143
 1782TIP3    H126837   1.231   2.341   1.428 -0.5692  1.0092 -1.9198
 1782TIP3    H226838   1.354   2.421   1.391  0.9017  0.1994  1.0817
 1783TIP3   OH226839   2.436   0.860   0.479 -0.2573  0.1186 -0.3210
 1783TIP3    H126840   2.404   0.917   0.549 -0.1949 -1.1989  0.8027
 1783TIP3    H226841   2.509   0.908   0.440 -1.5782  1.7639 -0.8454
 1784TIP3   OH226842   2.610   6.184  16.209 -0.1024  0.1436 -0.0896
 1784TIP3    H126843   2.574   6.099  16.183 -1.3372  0.6202  0.0146
 1784TIP3    H226844   2.535   6.231  16.245  1.3800 -0.1764  3.6320
 1785TIP3   OH226845   2.500   0.074  15.421 -0.3957 -0.1616 -0.0496
 1785TIP3    H126846   2.475  -0.002  15.474 -0.7861 -0.6776 -0.9649
 1785TIP3    H226847   2.596   0.074  15.423 -0.3966 -0.6144  0.0396
 1786TIP3   OH226848   0.980   1.011   5.494  0.0120  0.5640 -0.3664
 1786TIP3    H126849   1.066   0.970   5.500 -1.1272 -1.8263  0.0663
 1786TIP3    H226850   0.994   1.101   5.523  2.6811  0.6935 -1.9234
 1787TIP3   OH226851   5.797   5.506   3.027  0.0857  0.0414  0.1006
 1787TIP3    H126852   5.822   5.420   3.061 -0.4339 -0.2696 -0.2825
 1787TIP3    H226853   5.792   5.493   2.932  0.3509  0.5897  0.0068
 1788TIP3   OH226854   6.012   2.696  14.713  0.3812  0.1831  0.2070
 1788TIP3    H126855   6.104   2.712  14.733  0.3306  1.7266 -0.6629
 1788TIP3    H226856   5.967   2.777  14.739 -0.5875 -0.2117 -0.1980
 1789TIP3   OH226857   6.080   2.832   3.300  0.2640 -0.0118  0.1507
 1789TIP3    H126858   6.087   2.913   3.351  1.8329 -0.2060  0.2641
 1789TIP3    H226859   6.096   2.859   3.210 -0.4582 -0.0021  0.0216
 1790TIP3   OH226860   4.597   1.928   4.768 -0.3219 -0.3213 -0.6372
 1790TIP3    H126861   4.629   1.868   4.700  1.1145  0.6804 -0.8699
 1790TIP3    H226862   4.652   1.908   4.845 -0.4386  0.0832 -0.4476
 1791TIP3   OH226863   2.295   3.063  15.140  0.0072  0.0010 -0.4833
 1791TIP3    H126864   2.307   3.011  15.219 -0.3921  0.2068 -0.2875
 1791TIP3    H226865   2.207   3.100  15.148  0.8663  2.0011  0.1519
 1792TIP3   OH226866   4.847   5.491  15.445 -0.7405  0.3062  0.1743
 1792TIP3    H126867   4.881   5.432  15.512 -0.3602 -0.3737 -0.5968
 1792TIP3    H226868   4.827   5.434  15.371 -1.8868  0.9498 -0.0158
 1793TIP3   OH226869   2.542   5.984  11.576  0.3080  0.2876  0.0796
 1793TIP3    H126870   2.593   5.976  11.496 -0.3701 -2.6830 -0.1339
 1793TIP3    H226871   2.454   6.006  11.546  0.5042  1.1853  0.1555
 1794TIP3   OH226872   6.261   4.427   5.280 -0.2273  0.5005  0.2674
 1794TIP3    H126873   6.240   4.370   5.354 -0.0692 -1.2311 -0.9924
 1794TIP3    H226874   6.202   4.501   5.289 -2.3339 -1.1564  0.4473
 1795TIP3   OH226875   4.037   3.450   6.165  0.0032  0.0200 -0.0616
 1795TIP3    H126876   3.979   3.377   6.185  0.4397  0.0675  1.4000
 1795TIP3    H226877   4.071   3.479   6.250  0.2510  1.5817 -0.6692
 1796TIP3   OH226878   6.449   4.243   2.108  0.4776 -0.1662  0.4507
 1796TIP3    H126879   6.465   4.158   2.150  2.5320 -0.2601 -0.4490
 1796TIP3    H226880   6.382   4.284   2.162  1.4518 -1.2120  2.5270
 1797TIP3   OH226881   3.127   2.415   2.433 -0.2149 -0.1044 -0.4780
 1797TIP3    H126882   3.129   2.324   2.463 -1.8139 -0.2427 -0.7297
 1797TIP3    H226883   3.056   2.418   2.369 -1.5980  1.7648  1.0547
 1798TIP3   OH226884   6.492   5.180   1.686 -0.2259  0.1384  0.1687
 1798TIP3    H126885   6.530   5.201   1.601 -1.5109  0.8294 -0.2475
 1798TIP3    H226886   6.521   5.091   1.704 -0.5182 -0.2630 -1.3119
 1799TIP3   OH226887   5.565   0.422   3.094 -0.1394  0.1280 -0.4889
 1799TIP3    H126888   5.586   0.339   3.050 -2.8279 -1.1320  0.4823
 1799TIP3    H226889   5.618   0.487   3.048  0.7671 -1.8697 -2.3899
 1800TIP3   OH226890   3.706   3.097   3.643 -0.2125 -0.2960  0.0852
 1800TIP3    H126891   3.684   3.103   3.736 -2.9342 -0.0438 -0.5494
 1800TIP3    H226892   3.696   3.005   3.622  0.1770 -0.3152 -0.0150
 1801TIP3   OH226893   1.086   0.334   2.627 -0.1685  0.4693 -0.1263
 1801TIP3    H126894   1.161   0.313   2.570  0.3384  2.4588 -0.2311
 1801TIP3    H226895   1.012   0.292   2.584  0.5569  0.1426 -1.0979
 1802TIP3   OH226896   1.784   3.738  16.156  0.5234 -0.1480  0.0923
 1802TIP3    H126897   1.737   3.714  16.076 -0.7231  0.0339  0.7592
 1802TIP3    H226898   1.855   3.794  16.126  0.1334 -0.1796 -0.9111
 1803TIP3   OH226899   6.549   5.454   4.823  0.2474 -0.2676  0.4589
 1803TIP3    H126900   6.584   5.516   4.886 -0.2163 -0.7585  1.2127
 1803TIP3    H226901   6.525   5.377   4.875  0.2724 -0.8528 -0.3750
 1804TIP3   OH226902   5.917   1.805  11.312 -0.0741  0.8023  0.0686
 1804TIP3    H126903   5.967   1.737  11.357 -1.3725 -0.3681 -0.2089
 1804TIP3    H226904   5.858   1.840  11.379 -0.3140  0.7484 -0.1130
 1805TIP3   OH226905   3.505   3.529  16.552  0.5162  0.5226 -0.1765
 1805TIP3    H126906   3.532   3.516  16.461  1.2216  0.8361 -0.0150
 1805TIP3    H226907   3.425   3.580  16.546  0.0715 -0.2164 -0.6590
 1806TIP3   OH226908   5.452   2.649   0.896 -0.2412  0.3372  0.4642
 1806TIP3    H126909   5.456   2.695   0.812  3.2418 -1.9230 -0.7510
 1806TIP3    H226910   5.369   2.601   0.893 -1.9278  3.1691 -0.0240
 1807TIP3   OH226911   0.730   5.475  16.114 -0.2800 -0.0766  0.5931
 1807TIP3    H126912   0.686   5.411  16.169  0.5188 -1.7430 -0.6795
 1807TIP3    H226913   0.682   5.473  16.031  0.1312  0.5172  0.3352
 1808TIP3   OH226914   3.392   4.754   2.933 -0.3272 -0.3791 -0.5338
 1808TIP3    H126915   3.392   4.669   2.889 -0.6409 -0.6471 -0.0221
 1808TIP3    H226916   3.352   4.814   2.870  1.8674 -0.1427 -1.7619
 1809TIP3   OH226917   3.995   6.804   3.043 -0.0852 -0.1307  0.5739
 1809TIP3    H126918   3.929   6.858   3.087  0.1288 -0.8327  1.7407
 1809TIP3    H226919   4.011   6.850   2.960  1.9852  3.0656  2.6283
 1810TIP3   OH226920   3.101   2.148   2.514  0.0612 -0.4094 -0.2245
 1810TIP3    H126921   3.089   2.090   2.439 -0.5847 -0.7636  0.1595
 1810TIP3    H226922   3.188   2.126   2.548 -0.3390 -1.4067  0.1512
 1811TIP3   OH226923   4.624   3.161   3.211  0.0954  0.3106  0.1807
 1811TIP3    H126924   4.659   3.146   3.123 -3.0566  0.5500 -1.1800
 1811TIP3    H226925   4.622   3.074   3.251 -0.0135 -0.0545 -0.6074
 1812TIP3   OH226926   6.343   3.765  14.676  0.3086 -0.0734 -0.9047
 1812TIP3    H126927   6.266   3.819  14.698  2.4390  2.9434 -0.5188
 1812TIP3    H226928   6.327   3.682  14.720 -2.4644  0.6926 -0.3588
 1813TIP3   OH226929   1.229   6.361   2.471 -0.8278 -0.5860  0.5300
 1813TIP3    H126930   1.217   6.315   2.555 -0.6154  0.8689  1.3716
 1813TIP3    H226931   1.302   6.421   2.487 -1.7191  0.7238 -0.2658
 1814TIP3   OH226932   4.976   0.939   2.449 -0.3056 -0.1919  0.2764
 1814TIP3    H126933   5.062   0.975   2.427  0.4169 -2.3206 -0.4864
 1814TIP3    H226934   4.914   1.001   2.410  0.9209 -0.3414 -2.0321
 1815TIP3   OH226935   2.123   3.978   1.385  0.0256  0.0746  0.0672
 1815TIP3    H126936   2.134   4.062   1.340 -0.1497 -0.1966 -0.4886
 1815TIP3    H226937   2.083   3.921   1.319 -0.5418 -0.2306  0.6750
 1816TIP3   OH226938   5.282   4.436  13.475  0.0141  0.0876  0.1143
 1816TIP3    H126939   5.193   4.462  13.498  0.0105  0.4583 -0.3032
 1816TIP3    H226940   5.296   4.354  13.522 -0.4812  0.1209  0.3286
 1817TIP3   OH226941   5.003   5.317  14.571  0.0017 -0.1836  0.0274
 1817TIP3    H126942   4.953   5.399  14.578  1.2570  0.6508 -0.6261
 1817TIP3    H226943   4.945   5.258  14.523 -0.7788  0.4365  0.1887
 1818TIP3   OH226944   2.347   2.963  12.977 -0.5396  0.3719 -0.2106
 1818TIP3    H126945   2.338   3.017  13.055  0.1815 -1.3443  1.0868
 1818TIP3    H226946   2.400   3.015  12.917 -0.3789  1.3464  0.7714
 1819TIP3   OH226947   6.039   3.943   5.809  0.1004  0.1425  0.2511
 1819TIP3    H126948   6.021   4.020   5.863  1.6652  0.4390  0.3938
 1819TIP3    H226949   5.974   3.879   5.836 -1.1899  1.3860  0.1740
 1820TIP3   OH226950   2.308   1.789  13.505  0.1858 -0.0528  0.2865
 1820TIP3    H126951   2.398   1.816  13.525  0.6678 -1.4735  0.0486
 1820TIP3    H226952   2.314   1.741  13.422 -1.0727  1.4346 -0.6997
 1821TIP3   OH226953   5.781   4.654  10.694  0.0463  0.8712 -0.5824
 1821TIP3    H126954   5.746   4.565  10.697 -0.7891  1.2552  1.4855
 1821TIP3    H226955   5.871   4.643  10.662  0.3227 -0.8336  0.7108
 1822TIP3   OH226956   1.614   4.043   0.918 -0.5408  0.1958 -0.0821
 1822TIP3    H126957   1.672   4.051   0.842 -0.3235  0.2650  0.0921
 1822TIP3    H226958   1.526   4.042   0.880 -0.3340 -2.8913 -0.6155
 1823TIP3   OH226959   3.052   1.677  14.231 -0.1810 -0.4412 -0.4303
 1823TIP3    H126960   3.019   1.766  14.242 -1.6577 -0.7661 -1.9767
 1823TIP3    H226961   3.131   1.686  14.179  0.2790  0.0625  0.3591
 1824TIP3   OH226962   6.325   2.174  15.166  0.8780  0.7254  0.4154
 1824TIP3    H126963   6.277   2.238  15.114  0.5533  0.8085  0.8172
 1824TIP3    H226964   6.338   2.100  15.107 -1.1011  0.0602  0.7801
 1825TIP3   OH226965   1.066   2.395  12.724  0.2099  0.1906  0.1685
 1825TIP3    H126966   1.021   2.375  12.643 -0.8613 -0.5108  0.9341
 1825TIP3    H226967   1.154   2.358  12.713  0.6578  1.6499 -1.3584
 1826TIP3   OH226968   3.256   4.657   0.893  0.6175 -0.2397  0.1850
 1826TIP3    H126969   3.238   4.593   0.823 -1.7816 -1.4664  1.8582
 1826TIP3    H226970   3.229   4.741   0.856 -1.6959 -1.0292 -0.0235
 1827TIP3   OH226971   5.180   3.874   1.896 -0.2034 -0.9394 -0.1172
 1827TIP3    H126972   5.109   3.936   1.911 -0.2832 -0.5402 -1.9809
 1827TIP3    H226973   5.171   3.849   1.804  2.1693 -0.7288 -0.4401
 1828TIP3   OH226974   1.770   4.094   2.734  0.2011  0.5589 -0.2430
 1828TIP3    H126975   1.803   4.029   2.797  2.2475  0.2476 -1.5586
 1828TIP3    H226976   1.748   4.042   2.656 -2.3544  0.9281  0.1827
 1829TIP3   OH226977   1.942   4.361  14.119 -0.5709  0.1419  0.8863
 1829TIP3    H126978   1.998   4.337  14.045 -1.8751 -0.6635  0.1466
 1829TIP3    H226979   1.996   4.346  14.196  0.8046  0.9808  0.1111
 1830TIP3   OH226980   4.365   4.052  14.426 -0.4441  0.3830 -0.0390
 1830TIP3    H126981   4.317   3.974  14.454 -0.0980  0.1799 -0.0113
 1830TIP3    H226982   4.419   4.022  14.354 -0.6407  0.7000 -0.3199
 1831TIP3   OH226983   1.461   0.256   6.498 -0.2433  0.5614 -0.2516
 1831TIP3    H126984   1.546   0.298   6.505 -1.3713  2.7842  0.8962
 1831TIP3    H226985   1.446   0.217   6.585  0.1139 -0.8565 -0.8203
 1832TIP3   OH226986   5.137   2.670   5.677 -0.2257  0.2927  0.1383
 1832TIP3    H126987   5.202   2.713   5.622  1.0619 -0.3727  1.1079
 1832TIP3    H226988   5.109   2.595   5.626 -1.0959  1.2124 -0.7672
 1833TIP3   OH226989   6.150   3.064   0.135  0.5333 -0.3353 -0.1712
 1833TIP3    H126990   6.112   2.985   0.172 -1.7205  1.3379  1.1930
 1833TIP3    H226991   6.118   3.066   0.044  0.0903 -0.6817 -0.0237
 1834TIP3   OH226992   4.788   5.709   1.359 -0.0067  0.4437  0.6961
 1834TIP3    H126993   4.823   5.742   1.441 -0.9360  0.0119  1.2703
 1834TIP3    H226994   4.706   5.666   1.383  0.3777 -0.8603 -0.2610
 1835TIP3   OH226995   0.597   1.797  17.196 -0.4091  0.0098 -0.1546
 1835TIP3    H126996   0.644   1.752  17.125  0.5868  1.9817 -0.7815
 1835TIP3    H226997   0.608   1.890  17.177 -2.0459  0.5431  1.3708
 1836TIP3   OH226998   4.431   6.360   1.055  0.0850 -0.7638 -0.7528
 1836TIP3    H126999   4.493   6.297   1.020  0.4565 -0.6879 -0.2416
 1836TIP3    H227000   4.345   6.324   1.034  0.2956 -0.2420 -2.5891
 1837TIP3   OH227001   3.159   5.052  12.681 -0.1813  0.0275  0.2698
 1837TIP3    H127002   3.087   5.037  12.619  0.3701  1.0787 -0.6493
 1837TIP3    H227003   3.236   5.059  12.625  0.1831  2.0113  0.9767
 1838TIP3   OH227004   2.638   1.424   0.699 -0.1257 -0.9856 -0.0147
 1838TIP3    H127005   2.733   1.436   0.694 -0.0089 -1.4140  1.0187
 1838TIP3    H227006   2.619   1.357   0.634 -0.1967  1.4944 -2.6472
 1839TIP3   OH227007   6.625   5.933  10.580 -0.6107  0.1499 -0.3173
 1839TIP3    H127008   6.536   5.898  10.586 -0.4746 -0.5018 -2.0022
 1839TIP3    H227009   6.651   5.919  10.489  0.1860  2.8400 -0.5643
 1840TIP3   OH227010   0.881   1.160  11.013 -0.7503 -0.1565  0.5107
 1840TIP3    H127011   0.959   1.107  10.999  0.0711  1.0990  0.2883
 1840TIP3    H227012   0.911   1.250  11.004 -2.6110  0.3136 -1.5923
 1841TIP3   OH227013   5.791   3.073  11.038  0.3249 -0.0178  0.0250
 1841TIP3    H127014   5.750   3.117  10.963 -0.1680 -0.8407 -0.1829
 1841TIP3    H227015   5.870   3.034  11.001  0.7823  0.7013  0.2195
 1842TIP3   OH227016   3.836   4.469   1.934  0.0500 -0.1231  0.3754
 1842TIP3    H127017   3.837   4.378   1.963 -0.8549 -0.3347 -0.2236
 1842TIP3    H227018   3.918   4.482   1.888  0.4295 -0.4737  0.9552
 1843TIP3   OH227019   6.498   0.884  11.464 -0.2487 -0.3261  0.2575
 1843TIP3    H127020   6.535   0.811  11.414  0.8672 -0.5677  1.3889
 1843TIP3    H227021   6.407   0.859  11.478 -0.9401  0.3538 -2.7305
 1844TIP3   OH227022   4.312   5.485  12.994 -0.2956 -0.1633  0.3794
 1844TIP3    H127023   4.242   5.528  13.043 -1.1470  0.2482 -1.1744
 1844TIP3    H227024   4.380   5.551  12.985 -1.7106  0.9972 -2.2331
 1845TIP3   OH227025   4.469   1.580   4.509 -0.2386  0.2028 -0.0109
 1845TIP3    H127026   4.422   1.565   4.591  1.7456 -0.5089  1.0348
 1845TIP3    H227027   4.490   1.492   4.477  0.0390  0.5005 -0.6621
 1846TIP3   OH227028   0.887   4.684  14.038  0.2852 -0.2598  0.2967
 1846TIP3    H127029   0.932   4.748  14.094 -1.0389  1.8300 -0.9252
 1846TIP3    H227030   0.938   4.604  14.047  1.8670  0.8951  2.0896
 1847TIP3   OH227031   0.418   5.390  13.987  0.0903 -0.3317 -0.0399
 1847TIP3    H127032   0.447   5.301  13.967  0.3578 -0.1893 -0.2854
 1847TIP3    H227033   0.481   5.446  13.943 -0.7157 -0.0150 -0.8143
 1848TIP3   OH227034   0.875   5.069   6.160  0.4694  0.2708  0.2928
 1848TIP3    H127035   0.791   5.070   6.206  0.3012  0.0525 -0.0074
 1848TIP3    H227036   0.933   5.123   6.214 -0.0380  0.9455  0.1586
 1849TIP3   OH227037   6.605   1.435  11.711  0.4148 -0.2260 -0.3575
 1849TIP3    H127038   6.583   1.371  11.643 -1.0000 -1.8264  1.5396
 1849TIP3    H227039   6.652   1.384  11.777  1.9946  1.3674 -0.2211
 1850TIP3   OH227040   5.611   2.067  12.977  0.9425  0.4254 -0.5370
 1850TIP3    H127041   5.615   2.159  12.952 -0.6164  1.2752  2.1244
 1850TIP3    H227042   5.633   2.066  13.070  1.4464 -1.9566 -0.6556
 1851TIP3   OH227043   4.395   0.555  17.166  0.1709  0.1315  0.0475
 1851TIP3    H127044   4.306   0.530  17.139 -0.0586  0.4289  0.5145
 1851TIP3    H227045   4.439   0.472  17.184 -0.2361  0.0124  0.4987
 1852TIP3   OH227046   0.855   3.189  13.021 -0.0812 -0.1406  0.5581
 1852TIP3    H127047   0.854   3.094  13.031 -0.1246  0.0153  2.0356
 1852TIP3    H227048   0.780   3.220  13.071 -0.2101  0.6683 -0.1154
 1853TIP3   OH227049   6.208   1.508  15.229 -0.6498 -0.5340 -0.2866
 1853TIP3    H127050   6.261   1.502  15.308 -1.4055 -0.5470  0.2234
 1853TIP3    H227051   6.220   1.424  15.185 -0.2237 -0.5234 -0.1951
 1854TIP3   OH227052   2.481   0.268  16.432 -0.6821  0.1629 -0.2782
 1854TIP3    H127053   2.544   0.203  16.464 -0.8799 -1.2055 -2.5592
 1854TIP3    H227054   2.534   0.333  16.386 -0.9116 -1.2429 -2.6185
 1855TIP3   OH227055   6.313   0.750   5.997  0.1971  0.6579 -0.2708
 1855TIP3    H127056   6.245   0.746   6.064 -1.1638  2.5271 -1.5092
 1855TIP3    H227057   6.363   0.829   6.018  1.5711 -0.3108  0.2036
 1856TIP3   OH227058   4.784   1.199   3.082  0.3872  0.0409  0.1020
 1856TIP3    H127059   4.818   1.202   2.993  1.3076 -1.0446  0.4013
 1856TIP3    H227060   4.701   1.152   3.075 -0.3275  1.3313 -0.3960
 1857TIP3   OH227061   2.286   5.751  15.387 -0.5138 -0.1008 -0.2320
 1857TIP3    H127062   2.192   5.770  15.385 -0.8209 -1.4376  0.8577
 1857TIP3    H227063   2.327   5.835  15.408 -1.3976  0.6612 -1.4926
 1858TIP3   OH227064   5.294   0.170   4.537 -0.6429 -0.0871 -0.2528
 1858TIP3    H127065   5.374   0.211   4.505  0.0668 -1.2720 -0.0249
 1858TIP3    H227066   5.225   0.202   4.478 -0.2598  2.0367  0.3832
 1859TIP3   OH227067   1.942   6.725   3.326 -0.7774 -0.2979 -0.0439
 1859TIP3    H127068   1.996   6.759   3.398 -0.0933  1.0239 -1.1473
 1859TIP3    H227069   1.999   6.730   3.249 -0.9951 -3.1456 -0.4170
 1860TIP3   OH227070   0.409   0.618   0.695  0.1148  0.2178  0.3250
 1860TIP3    H127071   0.374   0.593   0.780 -0.3030  1.6401  0.5973
 1860TIP3    H227072   0.332   0.645   0.645  0.5701  1.3740  0.2196
 1861TIP3   OH227073   2.464   3.102   6.104 -0.4768 -0.2131  0.2162
 1861TIP3    H127074   2.469   3.198   6.110 -0.2073 -0.2079 -0.0852
 1861TIP3    H227075   2.536   3.071   6.160 -0.3190 -0.2323  0.0028
 1862TIP3   OH227076   4.120   5.328   0.916 -0.1904  0.1648 -0.0750
 1862TIP3    H127077   4.187   5.272   0.877  0.6913  1.2222 -0.1028
 1862TIP3    H227078   4.150   5.417   0.898 -1.7734  0.6551 -0.3792
 1863TIP3   OH227079   1.478   5.837   0.293 -0.2252  0.3973  0.2606
 1863TIP3    H127080   1.445   5.787   0.218  1.9991 -1.0985  0.2291
 1863TIP3    H227081   1.454   5.784   0.369  1.4972 -0.3993  0.2736
 1864TIP3   OH227082   3.883   5.653  10.597 -0.6676  0.5082 -0.5134
 1864TIP3    H127083   3.900   5.563  10.627  0.7743  0.4060 -1.5755
 1864TIP3    H227084   3.829   5.691  10.666 -0.4257 -0.8504  0.4574
 1865TIP3   OH227085   2.400   1.279  14.303  0.2017  0.3557 -0.4024
 1865TIP3    H127086   2.356   1.207  14.349  0.1167  0.3031 -0.5654
 1865TIP3    H227087   2.348   1.292  14.224 -0.3327  1.2430  0.0962
 1866TIP3   OH227088   0.030   1.716  15.028 -0.5498 -0.3281  0.7783
 1866TIP3    H127089   0.115   1.675  15.008 -0.8340 -0.2090 -0.7044
 1866TIP3    H227090   0.038   1.744  15.119  1.5503  0.9948  0.2312
 1867TIP3   OH227091   3.757   0.475   1.896  0.4552 -0.3344  0.9151
 1867TIP3    H127092   3.801   0.417   1.833  0.1871 -0.0269  0.4429
 1867TIP3    H227093   3.807   0.464   1.977  0.4753 -1.1403  0.7990
 1868TIP3   OH227094   1.964   3.970   0.709  0.2607  0.0575 -0.7032
 1868TIP3    H127095   1.920   3.918   0.641  0.2880 -0.1854 -0.5358
 1868TIP3    H227096   2.003   4.043   0.661 -2.1669  1.4810 -0.5888
 1869TIP3   OH227097   1.576   0.974  15.764  0.0348  0.4475 -0.3580
 1869TIP3    H127098   1.626   0.915  15.708 -1.2577  0.9458 -2.0455
 1869TIP3    H227099   1.505   0.919  15.799  1.6351 -0.2297  1.9445
 1870TIP3   OH227100   2.414   6.221  12.171  0.3363  0.0813 -0.2356
 1870TIP3    H127101   2.374   6.183  12.093  1.2113  1.0464 -1.1637
 1870TIP3    H227102   2.436   6.146  12.225 -0.8848 -0.5635 -0.6098
 1871TIP3   OH227103   5.475   3.580  13.494  0.0632 -0.5108  0.4611
 1871TIP3    H127104   5.556   3.596  13.542  0.3773  0.5094 -0.3937
 1871TIP3    H227105   5.483   3.490  13.462  0.9538 -0.3415  0.1963
 1872TIP3   OH227106   1.030   1.644   4.939 -0.1548  0.2936  0.3960
 1872TIP3    H127107   1.027   1.558   4.980 -2.5328  0.8967  1.5720
 1872TIP3    H227108   1.110   1.685   4.973  0.6480 -1.1922  0.3239
 1873TIP3   OH227109   1.048   1.868  16.350 -0.8505 -0.1745 -0.3835
 1873TIP3    H127110   1.027   1.924  16.425  0.9961  0.1740 -0.1182
 1873TIP3    H227111   1.033   1.925  16.274 -1.3382 -0.0844 -0.2228
 1874TIP3   OH227112   1.214   5.012  11.886  0.8315  0.0095 -0.4675
 1874TIP3    H127113   1.275   4.996  11.813  0.3834 -0.0568 -0.8251
 1874TIP3    H227114   1.228   5.104  11.909  2.1278 -0.3958  0.4190
 1875TIP3   OH227115   3.072   2.291  11.785  0.1105 -0.0486 -0.2906
 1875TIP3    H127116   3.166   2.286  11.806 -0.3826 -1.1715  1.8263
 1875TIP3    H227117   3.063   2.246  11.702  1.6519  1.3274 -1.2409
 1876TIP3   OH227118   4.026   6.325  13.753 -0.0171 -0.1716  0.1802
 1876TIP3    H127119   4.000   6.314  13.844 -0.6274  0.6067  0.1122
 1876TIP3    H227120   4.121   6.314  13.753  0.1315  1.0511  1.1123
 1877TIP3   OH227121   5.526   2.016   1.476 -0.7145  0.5184 -0.3039
 1877TIP3    H127122   5.431   2.011   1.465 -1.0384  1.4845  1.8482
 1877TIP3    H227123   5.547   1.947   1.538 -0.0305  0.4564 -0.5998
 1878TIP3   OH227124   3.353   1.634  11.998 -0.1611  0.7782 -0.1597
 1878TIP3    H127125   3.436   1.656  12.042  0.2213 -1.7408  0.4357
 1878TIP3    H227126   3.286   1.656  12.062  0.4430 -3.9178  2.3000
 1879TIP3   OH227127   1.620   0.945  11.481 -0.7950  0.1654 -0.2250
 1879TIP3    H127128   1.681   1.019  11.480 -1.4558  0.7170 -1.9677
 1879TIP3    H227129   1.543   0.979  11.527 -1.4048  0.8463 -1.7052
 1880TIP3   OH227130   5.985   1.391   5.931 -0.0453 -0.8281 -0.2301
 1880TIP3    H127131   6.005   1.306   5.970  2.1897  0.0838  0.7295
 1880TIP3    H227132   5.964   1.447   6.006  0.5439 -0.0148 -0.6591
 1881TIP3   OH227133   2.300   6.768  13.470 -0.0583  0.0968 -0.8759
 1881TIP3    H127134   2.301   6.864  13.465 -2.9941  0.1663 -0.9891
 1881TIP3    H227135   2.332   6.748  13.558  2.1016  1.0817 -1.4013
 1882TIP3   OH227136   2.030   2.177  15.930  0.5151 -0.2211  0.4505
 1882TIP3    H127137   2.077   2.212  16.006 -0.0145 -1.1050  1.1834
 1882TIP3    H227138   2.074   2.095  15.910 -0.6156 -0.9740  1.0395
 1883TIP3   OH227139   0.159   1.461  15.003 -0.3642  0.0083  0.1060
 1883TIP3    H127140   0.147   1.425  15.091 -2.7743 -0.7759 -0.4859
 1883TIP3    H227141   0.111   1.401  14.947  1.1818  0.4795 -1.7713
 1884TIP3   OH227142   5.010   2.807  13.739 -0.1729 -0.4588  0.4246
 1884TIP3    H127143   4.989   2.733  13.681 -0.1705  0.2333 -0.4689
 1884TIP3    H227144   5.102   2.794  13.761  0.0892 -0.1952 -0.5083
 1885TIP3   OH227145   5.626   6.302  17.241  0.2507 -0.0593 -0.0395
 1885TIP3    H127146   5.652   6.302  17.333  1.4420 -0.4179 -0.3586
 1885TIP3    H227147   5.709   6.290  17.193 -0.6810 -3.2015 -1.0322
 1886TIP3   OH227148   4.592   1.360   5.535 -0.2215  0.2751 -0.3661
 1886TIP3    H127149   4.609   1.437   5.590 -0.5725 -0.0242  0.1644
 1886TIP3    H227150   4.566   1.292   5.597 -3.1080  0.6303 -1.1031
 1887TIP3   OH227151   4.271   5.375   4.909  0.1470  0.7180  0.1038
 1887TIP3    H127152   4.271   5.349   4.817  1.3931 -1.0265  0.5705
 1887TIP3    H227153   4.198   5.326   4.948 -1.8990  3.2718 -0.4118
 1888TIP3   OH227154   0.486   4.495   5.400  0.8132 -0.5382  0.6843
 1888TIP3    H127155   0.552   4.446   5.351  1.2291  0.8183 -0.1190
 1888TIP3    H227156   0.412   4.503   5.340  1.2298  0.9158  0.3520
 1889TIP3   OH227157   0.430   3.303   4.059  0.0992 -0.0967 -0.7502
 1889TIP3    H127158   0.388   3.253   3.989 -1.5000 -1.9752  1.5092
 1889TIP3    H227159   0.508   3.252   4.082 -1.2452 -1.3543  1.1846
 1890TIP3   OH227160   4.230   1.494  11.893 -0.3037 -0.2789  0.4392
 1890TIP3    H127161   4.289   1.568  11.910 -0.3472 -0.5051  1.6544
 1890TIP3    H227162   4.257   1.461  11.808  0.9501 -0.0058  0.7216
 1891TIP3   OH227163   5.710   1.938   4.959 -0.3609  0.0610  0.1567
 1891TIP3    H127164   5.754   1.947   4.874  1.4244  1.4340  1.1848
 1891TIP3    H227165   5.776   1.965   5.023 -1.5679 -1.2701  2.0175
 1892TIP3   OH227166   4.167   4.851   3.325 -0.2695  0.0607 -0.0286
 1892TIP3    H127167   4.200   4.768   3.291 -1.5075 -0.4554 -0.0281
 1892TIP3    H227168   4.109   4.826   3.397  0.1198  0.9906  0.6227
 1893TIP3   OH227169   5.542   5.149  13.696 -0.3178 -0.0784 -0.2674
 1893TIP3    H127170   5.481   5.123  13.766 -0.9336  1.6946 -0.1276
 1893TIP3    H227171   5.597   5.072  13.683 -1.9956 -1.4029  0.2515
 1894TIP3   OH227172   1.961   6.012   1.691  0.3291  0.5224 -0.2198
 1894TIP3    H127173   1.972   6.106   1.685  0.2365  0.5350 -0.1895
 1894TIP3    H227174   1.869   6.000   1.712  0.2044  0.4036 -0.8333
 1895TIP3   OH227175   6.711   6.189   3.323 -0.4055  0.3877  0.5462
 1895TIP3    H127176   6.721   6.126   3.394 -0.8386 -0.1116  0.1679
 1895TIP3    H227177   6.619   6.181   3.296  0.1468 -0.5806 -1.1408
 1896TIP3   OH227178   3.542   0.177   1.151  0.5297 -0.7286  0.6206
 1896TIP3    H127179   3.588   0.145   1.074 -1.3563 -1.1663 -0.3380
 1896TIP3    H227180   3.482   0.106   1.174 -1.5935  0.9298  0.2367
 1897TIP3   OH227181   3.969   5.511  16.938  0.0872 -0.4831  0.0968
 1897TIP3    H127182   3.950   5.604  16.931  0.0718 -0.4606  0.4280
 1897TIP3    H227183   3.896   5.475  16.988  0.4689 -0.5437  0.6200
 1898TIP3   OH227184   2.689   5.875   1.265  0.4212 -0.6545 -0.0589
 1898TIP3    H127185   2.639   5.794   1.253 -1.3392  0.2850  0.7414
 1898TIP3    H227186   2.671   5.927   1.186  0.2688 -0.3992  0.1410
 1899TIP3   OH227187   2.562   4.450   0.969  0.1460  0.1424  0.0856
 1899TIP3    H127188   2.580   4.405   1.052  0.2336 -0.4534 -0.2515
 1899TIP3    H227189   2.522   4.383   0.914 -0.6503  0.7536 -0.0814
 1900TIP3   OH227190   5.015   4.492   2.827  0.3654  0.0932 -0.4559
 1900TIP3    H127191   4.979   4.438   2.898 -0.4037  0.2398 -0.7345
 1900TIP3    H227192   4.994   4.444   2.747 -0.9238  1.1463 -0.7512
 1901TIP3   OH227193   6.247   5.823   6.759  0.4923  0.1357  0.0776
 1901TIP3    H127194   6.171   5.765   6.759  0.0498  0.6346  2.7779
 1901TIP3    H227195   6.301   5.792   6.686 -2.1502 -0.3858 -1.7289
 1902TIP3   OH227196   2.354   3.467  16.408  0.0276  0.5890 -1.2429
 1902TIP3    H127197   2.432   3.513  16.377 -0.5286  1.1937 -1.7611
 1902TIP3    H227198   2.374   3.446  16.499  1.6753 -1.1865 -1.9726
 1903TIP3   OH227199   5.954   6.193   5.637  0.8760  0.2590  0.7445
 1903TIP3    H127200   5.897   6.269   5.626 -0.4338 -0.7612  0.3102
 1903TIP3    H227201   5.924   6.132   5.569  2.4154 -0.3382  0.5912
 1904TIP3   OH227202   0.294   1.889  14.615  0.1114  0.4508  0.5267
 1904TIP3    H127203   0.232   1.819  14.634 -0.6422  1.5037  2.0806
 1904TIP3    H227204   0.279   1.910  14.523 -1.4793  0.3174  0.7313
 1905TIP3   OH227205   1.139   4.500   1.634 -0.1226  0.0043  0.2551
 1905TIP3    H127206   1.204   4.453   1.582 -0.4486 -1.1329  0.8549
 1905TIP3    H227207   1.160   4.479   1.725 -0.6467  0.5129  0.4965
 1906TIP3   OH227208   1.587   1.748  13.867  0.1140 -0.2055 -0.1826
 1906TIP3    H127209   1.592   1.837  13.831 -0.5428  0.0184  0.2602
 1906TIP3    H227210   1.493   1.729  13.869  0.2688 -1.0093 -0.5155
 1907TIP3   OH227211   0.976   5.288   0.905  0.6552 -0.1928 -0.1524
 1907TIP3    H127212   0.882   5.299   0.888  0.4278 -1.4211  0.2644
 1907TIP3    H227213   1.002   5.216   0.847  1.1873 -0.3289  0.2615
 1908TIP3   OH227214   4.259   5.885   4.429 -0.0488 -0.4501 -0.3188
 1908TIP3    H127215   4.183   5.909   4.376 -0.1533  1.4665  0.6687
 1908TIP3    H227216   4.325   5.951   4.409  0.5384 -0.7381  0.6102
 1909TIP3   OH227217   6.048   3.719  14.641 -0.4549  0.3085 -0.6886
 1909TIP3    H127218   5.997   3.774  14.580  0.4049  1.1474 -0.6651
 1909TIP3    H227219   6.083   3.781  14.705 -0.3379 -0.4158 -0.0454
 1910TIP3   OH227220   3.976   2.064  12.404  0.1341 -0.1548 -0.1460
 1910TIP3    H127221   4.054   2.101  12.445  0.1961 -0.4475  0.0015
 1910TIP3    H227222   3.926   2.028  12.476  0.5172 -1.1758 -0.3803
 1911TIP3   OH227223   3.243   4.655   4.756  0.0083  0.1336 -0.3710
 1911TIP3    H127224   3.163   4.686   4.797  0.7426  0.9313  0.4755
 1911TIP3    H227225   3.277   4.731   4.709  0.6602  0.0142 -0.1033
 1912TIP3   OH227226   3.713   6.018  16.833  0.5763  0.7516 -0.2078
 1912TIP3    H127227   3.735   6.112  16.834 -0.5303  1.0237 -0.8643
 1912TIP3    H227228   3.630   6.012  16.879 -0.5117  0.3994 -2.1672
 1913TIP3   OH227229   6.237   4.558  15.551 -0.1944 -0.6575 -0.1828
 1913TIP3    H127230   6.149   4.524  15.567  0.1664 -1.7036 -0.3447
 1913TIP3    H227231   6.264   4.517  15.468  0.9097 -1.3277  0.4863
 1914TIP3   OH227232   0.570   2.808  17.013 -0.0340  0.1379  0.4066
 1914TIP3    H127233   0.507   2.742  16.983 -0.6473  0.9532 -0.1315
 1914TIP3    H227234   0.632   2.818  16.941  2.2676 -2.5216  1.9129
 1915TIP3   OH227235   2.135   2.420   2.403  0.3774  0.0715  0.0897
 1915TIP3    H127236   2.206   2.467   2.446 -1.1967  0.1562  2.6777
 1915TIP3    H227237   2.117   2.471   2.324  0.4445  2.3597  1.4995
 1916TIP3   OH227238   0.480   6.746   3.339 -0.4395 -0.1797 -0.2487
 1916TIP3    H127239   0.523   6.660   3.343 -2.3553 -1.0821  1.9938
 1916TIP3    H227240   0.539   6.804   3.387  0.1426 -0.5477 -0.4984
 1917TIP3   OH227241   3.216   1.035   0.922 -0.0671 -0.7599 -0.5398
 1917TIP3    H127242   3.306   1.022   0.951  0.1754  0.4327 -0.7342
 1917TIP3    H227243   3.193   0.953   0.879  0.9725 -1.0294 -0.6072
 1918TIP3   OH227244   1.220   0.773   0.912 -0.2104  0.6016  0.5485
 1918TIP3    H127245   1.207   0.696   0.968 -2.1581  0.0791 -0.5542
 1918TIP3    H227246   1.165   0.840   0.951 -0.5057  0.6514  0.0511
 1919TIP3   OH227247   3.435   4.079   2.005  0.0695  0.0651  0.6094
 1919TIP3    H127248   3.349   4.092   2.045 -2.1519 -0.8850 -3.4806
 1919TIP3    H227249   3.469   4.167   1.991 -2.3983  0.7252 -1.8266
 1920TIP3   OH227250   2.981   5.321   1.595 -0.8443  0.1544 -0.0672
 1920TIP3    H127251   3.049   5.384   1.616 -2.4613  1.2101  2.1852
 1920TIP3    H227252   3.016   5.237   1.625  0.5979  0.2362 -1.4828
 1921TIP3   OH227253   4.595   5.935   3.571  0.4853  0.5325 -0.0438
 1921TIP3    H127254   4.659   5.879   3.615 -0.6212 -0.6267  0.1544
 1921TIP3    H227255   4.526   5.948   3.636 -1.2450 -1.3226 -1.4186
 1922TIP3   OH227256   5.180   3.883   5.619  0.3805  0.9683 -0.2988
 1922TIP3    H127257   5.229   3.961   5.594  0.1964  0.7483 -1.3556
 1922TIP3    H227258   5.218   3.813   5.566  0.4725  0.3562  0.5665
 1923TIP3   OH227259   6.682   5.316  11.876 -0.0685  0.0515  0.1388
 1923TIP3    H127260   6.774   5.309  11.901  0.3168  1.4136 -0.7924
 1923TIP3    H227261   6.634   5.291  11.955  1.0662 -2.9099 -0.0508
 1924TIP3   OH227262   3.499   3.716   2.190 -0.6642  0.7147 -0.2306
 1924TIP3    H127263   3.503   3.646   2.125 -0.0368  1.0252 -0.5452
 1924TIP3    H227264   3.406   3.727   2.209 -0.6590 -1.3022  1.0439
 1925TIP3   OH227265   5.262   4.091   3.098  0.4175 -0.6758 -0.3631
 1925TIP3    H127266   5.200   4.020   3.115  1.1880 -1.1313  0.6095
 1925TIP3    H227267   5.251   4.111   3.005 -1.4633 -0.4796 -0.1209
 1926TIP3   OH227268   1.015   4.059   3.232 -0.0948 -0.0738 -0.1067
 1926TIP3    H127269   0.947   4.049   3.165  0.9137  4.1672 -1.9749
 1926TIP3    H227270   1.098   4.052   3.183  0.7300 -0.8736  1.3750
 1927TIP3   OH227271   1.117   0.176   2.353 -0.5110 -0.6158 -0.1717
 1927TIP3    H127272   1.030   0.186   2.392  0.1010  0.4821  0.9655
 1927TIP3    H227273   1.113   0.094   2.304 -2.3800 -0.2510 -0.6513
 1928TIP3   OH227274   2.900   0.195   1.716  0.0844  0.2326 -0.2301
 1928TIP3    H127275   2.831   0.246   1.760 -1.4139 -1.3240 -0.7259
 1928TIP3    H227276   2.928   0.250   1.643 -1.7064  0.2714 -0.9218
 1929TIP3   OH227277   2.901   5.050   4.890 -0.1345  0.3389 -0.2720
 1929TIP3    H127278   2.806   5.040   4.902 -0.1775 -1.5839 -1.9036
 1929TIP3    H227279   2.910   5.100   4.809  0.2675  1.5828  0.5185
 1930TIP3   OH227280   2.874   6.593  12.825 -0.1315 -0.6872 -0.2766
 1930TIP3    H127281   2.885   6.499  12.811 -0.7620 -0.9987  1.2694
 1930TIP3    H227282   2.803   6.600  12.888 -0.9486  0.8909 -1.3660
 1931TIP3   OH227283   2.720   0.571   3.524 -0.0609 -0.1395  0.1707
 1931TIP3    H127284   2.814   0.557   3.539 -0.1817 -2.5479 -0.9767
 1931TIP3    H227285   2.681   0.486   3.544 -1.6476  0.0317 -2.0399
 1932TIP3   OH227286   6.224   5.301   2.498  0.1846  0.5796 -0.0335
 1932TIP3    H127287   6.286   5.258   2.440  0.8638  1.0607  0.3249
 1932TIP3    H227288   6.262   5.388   2.513 -2.2620  2.1699 -2.5458
 1933TIP3   OH227289   3.605   5.655   3.129  0.0555 -0.2573 -0.0813
 1933TIP3    H127290   3.576   5.676   3.218 -0.3238 -0.0624 -0.2524
 1933TIP3    H227291   3.675   5.591   3.141 -0.7643 -1.0837  0.3058
 1934TIP3   OH227292   4.438   4.261   5.314  0.2687 -0.4394 -0.0629
 1934TIP3    H127293   4.419   4.188   5.255 -2.5925  0.1157  0.1362
 1934TIP3    H227294   4.467   4.219   5.395  0.3132 -1.2942 -0.5110
 1935TIP3   OH227295   5.451   1.365  16.062 -0.7139 -0.2103 -0.2317
 1935TIP3    H127296   5.441   1.410  16.146  1.3287 -0.0126 -0.0709
 1935TIP3    H227297   5.362   1.336  16.039 -1.3764  0.2227  1.7117
 1936TIP3   OH227298   6.206   3.316  13.313 -0.2566 -0.0325 -0.0621
 1936TIP3    H127299   6.285   3.308  13.260 -0.2146  1.5590 -0.2728
 1936TIP3    H227300   6.224   3.390  13.371 -0.5770 -1.3030  1.7123
 1937TIP3   OH227301   2.028   2.800   2.390  0.1959 -0.2317 -0.6763
 1937TIP3    H127302   2.004   2.836   2.476 -0.6382 -3.1216  0.3568
 1937TIP3    H227303   1.982   2.856   2.327 -0.1614  1.1794  0.7984
 1938TIP3   OH227304   2.126   4.748   0.505  0.0062 -0.2552 -0.1537
 1938TIP3    H127305   2.219   4.759   0.483  0.0798 -1.3060 -0.3876
 1938TIP3    H227306   2.080   4.750   0.421  0.0185 -1.6093 -0.2069
 1939TIP3   OH227307   2.736   2.807  10.454  0.1088 -0.0690 -0.2863
 1939TIP3    H127308   2.772   2.891  10.482  0.3008 -0.5126  0.8133
 1939TIP3    H227309   2.702   2.824  10.366  0.7187  0.9950 -0.3275
 1940TIP3   OH227310   2.249   0.246   3.261  0.2215  0.3595 -0.1049
 1940TIP3    H127311   2.180   0.180   3.252  0.3747  0.1961 -0.0735
 1940TIP3    H227312   2.220   0.301   3.334 -0.0314  0.4813 -0.2920
 1941TIP3   OH227313   1.928   0.632  10.982 -0.3954  0.1037 -1.1588
 1941TIP3    H127314   2.013   0.631  10.939 -1.0789 -0.9506 -2.5296
 1941TIP3    H227315   1.871   0.680  10.922 -0.9507  0.1477 -0.6070
 1942TIP3   OH227316   0.979   1.693   5.730  0.1360 -0.1600 -0.7176
 1942TIP3    H127317   1.062   1.725   5.696  1.3770 -0.7126  1.6480
 1942TIP3    H227318   0.922   1.770   5.733  0.8577  0.4053 -1.4738
 1943TIP3   OH227319   3.540   3.668   5.787 -0.0625  0.3929  0.1166
 1943TIP3    H127320   3.512   3.593   5.734  3.2091  0.6009 -2.0368
 1943TIP3    H227321   3.476   3.736   5.767 -2.4278 -1.4121  1.2366
 1944TIP3   OH227322   0.227   1.485  14.704  0.4596  0.1095  0.2864
 1944TIP3    H127323   0.264   1.527  14.781  1.0895 -0.3408  0.2332
 1944TIP3    H227324   0.220   1.393  14.729  0.1510  0.0562  0.0009
 1945TIP3   OH227325   0.232   3.978  10.644  0.0440 -0.0491 -0.0577
 1945TIP3    H127326   0.247   3.891  10.680  0.2790 -0.3935 -0.9877
 1945TIP3    H227327   0.304   3.992  10.582  0.5535  1.1850  0.7763
 1946TIP3   OH227328   5.266   0.684   2.311 -0.3688  0.1226 -0.7071
 1946TIP3    H127329   5.339   0.692   2.250  1.5531  0.7747  1.6306
 1946TIP3    H227330   5.284   0.748   2.380 -1.3734 -2.0510  1.6517
 1947TIP3   OH227331   6.490   3.204  14.468  0.4352  0.0683  0.7909
 1947TIP3    H127332   6.416   3.234  14.414  0.1893 -2.4963 -0.4153
 1947TIP3    H227333   6.562   3.196  14.406  0.8192 -0.6113  1.3250
 1948TIP3   OH227334   1.855   3.339   6.728 -0.6520 -0.2447  0.6435
 1948TIP3    H127335   1.801   3.277   6.776 -1.9467 -1.2462 -2.0084
 1948TIP3    H227336   1.792   3.400   6.688  0.2020 -0.7983 -1.6163
 1949TIP3   OH227337   1.945   0.257   1.953  0.2015  0.0777  0.4337
 1949TIP3    H127338   1.968   0.171   1.916 -0.7734 -0.3180  0.7266
 1949TIP3    H227339   1.868   0.239   2.007 -1.0128  1.4308 -0.8091
 1950TIP3   OH227340   5.839   4.912   3.840 -0.0937 -0.0253  0.1842
 1950TIP3    H127341   5.928   4.946   3.848 -0.2338  0.1993  0.7779
 1950TIP3    H227342   5.802   4.960   3.765  1.3358 -2.4291 -2.1547
 1951TIP3   OH227343   5.896   5.517   5.065 -0.4474  0.3894 -0.4607
 1951TIP3    H127344   5.812   5.477   5.043 -0.7921  0.7728  0.1773
 1951TIP3    H227345   5.928   5.551   4.981 -0.4228 -0.6961 -0.9036
 1952TIP3   OH227346   1.382   3.216   3.538  0.6474  0.0709  0.0246
 1952TIP3    H127347   1.411   3.125   3.542  5.1589  1.3496 -0.7310
 1952TIP3    H227348   1.318   3.217   3.467  1.0257 -2.3877 -0.4048
 1953TIP3   OH227349   6.739   2.837   2.825  0.0452 -0.1619  0.4182
 1953TIP3    H127350   6.663   2.888   2.796 -0.0914 -1.1512 -1.0599
 1953TIP3    H227351   6.771   2.795   2.745  1.9320 -0.0568  1.0848
 1954TIP3   OH227352   5.738   3.609  14.567  0.2799 -0.1896 -0.5341
 1954TIP3    H127353   5.761   3.601  14.659 -0.9697  0.3152 -0.1755
 1954TIP3    H227354   5.649   3.645  14.567  0.4156  0.1713 -1.9353
 1955TIP3   OH227355   2.360   6.733   1.487  0.0653 -0.2045 -0.2719
 1955TIP3    H127356   2.443   6.766   1.522 -0.7060  1.9147 -0.3865
 1955TIP3    H227357   2.368   6.745   1.392  0.1260 -1.1993 -0.3978
 1956TIP3   OH227358   0.052   5.477   5.078  0.4999 -0.8529  0.5157
 1956TIP3    H127359  -0.011   5.538   5.040  1.4077  0.3453  0.9140
 1956TIP3    H227360   0.031   5.393   5.038 -1.2250 -0.4333  0.4914
 1957TIP3   OH227361   1.783   4.239  15.698 -0.5687 -0.4567 -0.3515
 1957TIP3    H127362   1.717   4.173  15.675  0.2265 -1.0134 -1.0746
 1957TIP3    H227363   1.775   4.306  15.630  1.0265 -1.5580 -1.6588
 1958TIP3   OH227364   0.090   5.400  12.418 -0.3769 -0.1202  0.2889
 1958TIP3    H127365   0.161   5.461  12.398 -1.1069  1.0209  1.1462
 1958TIP3    H227366   0.036   5.400  12.339 -0.8212  0.9680  0.5909
 1959TIP3   OH227367   4.626   3.982  11.185 -0.0033  0.3215  0.2571
 1959TIP3    H127368   4.705   3.944  11.148 -0.7476 -1.1970  0.1817
 1959TIP3    H227369   4.653   4.017  11.270  0.4836 -1.3532  0.8111
 1960TIP3   OH227370   2.912   3.064   0.816  0.4504 -0.1772  0.0638
 1960TIP3    H127371   2.997   3.056   0.860 -0.2270 -1.7497  1.1181
 1960TIP3    H227372   2.903   2.983   0.766 -0.5230 -0.1204  0.1380
 1961TIP3   OH227373   4.320   3.485  15.410  0.8338  0.1138  0.6256
 1961TIP3    H127374   4.276   3.569  15.423  1.4744  0.5576 -0.0286
 1961TIP3    H227375   4.388   3.503  15.346 -0.2009 -1.3191 -0.9089
 1962TIP3   OH227376   4.060   4.952  12.813 -0.0937 -0.2136 -0.0650
 1962TIP3    H127377   4.016   4.924  12.894 -0.1815 -0.0005 -0.0372
 1962TIP3    H227378   4.153   4.934  12.829 -0.1767 -0.7151 -0.1448
 1963TIP3   OH227379   2.608   6.182   1.767 -0.0826 -0.2133  0.3710
 1963TIP3    H127380   2.530   6.125   1.766 -0.9280  0.8875  1.2617
 1963TIP3    H227381   2.633   6.191   1.676 -1.7892  0.4446 -0.0494
 1964TIP3   OH227382   6.720   0.113   4.259  0.1532  0.3237 -0.2429
 1964TIP3    H127383   6.670   0.036   4.234 -2.4998  0.8664  3.1254
 1964TIP3    H227384   6.745   0.153   4.176 -1.6505 -2.0831 -2.0102
 1965TIP3   OH227385   2.417   3.315  12.316  0.6401 -0.3198  0.3958
 1965TIP3    H127386   2.425   3.410  12.316  2.7078 -0.4089 -3.7142
 1965TIP3    H227387   2.325   3.299  12.295  0.4731  0.7735  0.2475
 1966TIP3   OH227388   3.587   0.521   4.220 -0.3292  0.4207 -0.4035
 1966TIP3    H127389   3.578   0.518   4.125 -1.9976 -1.3121 -0.2306
 1966TIP3    H227390   3.506   0.562   4.250  0.6615  1.9517  0.2322
 1967TIP3   OH227391   6.675   0.029   3.860  0.2963 -0.5526 -0.0319
 1967TIP3    H127392   6.753   0.027   3.915  0.5197 -1.4690 -0.3701
 1967TIP3    H227393   6.703   0.073   3.780  0.3988 -0.6446 -0.0473
 1968TIP3   OH227394   1.157   4.992   0.943  0.2215  0.4919  0.1797
 1968TIP3    H127395   1.100   5.004   0.867 -0.2671 -1.5525  0.1899
 1968TIP3    H227396   1.108   4.932   1.001  0.9748  1.3008  1.6953
 1969TIP3   OH227397   2.360   0.400   0.330  0.0595  0.1672 -0.2002
 1969TIP3    H127398   2.338   0.491   0.349  0.0452  0.1737 -0.2475
 1969TIP3    H227399   2.343   0.390   0.236  1.9837  0.6673 -0.6159
 1970TIP3   OH227400   0.525   2.951  14.202 -0.6931  0.2837 -0.0937
 1970TIP3    H127401   0.594   2.938  14.138 -0.3225 -0.3043  0.4262
 1970TIP3    H227402   0.488   3.037  14.180 -0.2639  0.2887 -0.8018
 1971TIP3   OH227403   2.747   2.123   0.446 -0.4622 -0.1402  0.1906
 1971TIP3    H127404   2.792   2.144   0.528  0.1463  1.8892 -0.6195
 1971TIP3    H227405   2.656   2.148   0.463 -0.4013 -0.0310  0.3699
 1972TIP3   OH227406   5.015   1.446  16.260 -0.1045  0.4458 -0.1861
 1972TIP3    H127407   4.945   1.432  16.196  1.4518  2.7188 -2.4755
 1972TIP3    H227408   5.059   1.362  16.268 -1.2482 -0.2303 -0.9581
 1973TIP3   OH227409   4.583   3.937  13.426 -0.0011  0.5311  0.3873
 1973TIP3    H127410   4.510   3.890  13.387  0.7518 -0.5995  0.3251
 1973TIP3    H227411   4.575   3.922  13.520 -1.1372  2.2810  0.5865
 1974TIP3   OH227412   1.035   1.824   3.064 -0.3243 -0.0072  0.2989
 1974TIP3    H127413   0.999   1.767   2.995  0.1370 -0.5977  0.5364
 1974TIP3    H227414   1.020   1.776   3.145  0.1146  0.1883  0.4982
 1975TIP3   OH227415   0.648   2.044   2.095  0.3592 -0.2179 -0.1448
 1975TIP3    H127416   0.584   2.085   2.154  1.0816 -1.3298  1.4309
 1975TIP3    H227417   0.710   2.114   2.074 -1.1271  0.7658 -1.3701
 1976TIP3   OH227418   6.531   4.770  12.292 -0.0580  1.1656 -0.7884
 1976TIP3    H127419   6.454   4.727  12.254 -0.1679  1.2447 -0.6545
 1976TIP3    H227420   6.600   4.704  12.286 -0.7024  0.2799  1.1649
 1977TIP3   OH227421   5.212   2.089  10.923 -0.4150 -0.1783  0.3934
 1977TIP3    H127422   5.190   2.180  10.901  0.2939 -0.2838 -0.8103
 1977TIP3    H227423   5.220   2.045  10.838 -0.7044 -1.3601  0.9619
 1978TIP3   OH227424   5.258   1.525   4.088  0.3961 -0.1325  0.2497
 1978TIP3    H127425   5.266   1.609   4.133 -0.2494 -0.9787  2.0006
 1978TIP3    H227426   5.291   1.460   4.151 -0.1134 -1.2885 -0.6474
 1979TIP3   OH227427   5.534   4.125   0.009 -0.4608 -0.4407 -0.2697
 1979TIP3    H127428   5.590   4.154   0.080  0.1711 -0.3945 -0.7858
 1979TIP3    H227429   5.590   4.127  -0.068 -0.6288 -2.2449 -0.4594
 1980TIP3   OH227430   5.430   6.596  11.795  0.2466  0.0526  0.0186
 1980TIP3    H127431   5.410   6.647  11.873  1.5423 -0.1834  0.5213
 1980TIP3    H227432   5.369   6.629  11.728 -0.2487  0.8809  0.8741
 1981TIP3   OH227433   1.605   2.388  17.041 -0.1566 -0.5026 -0.2108
 1981TIP3    H127434   1.598   2.453  17.111  0.6122  0.5228 -1.0594
 1981TIP3    H227435   1.584   2.437  16.961 -1.2365 -1.7022 -0.6840
 1982TIP3   OH227436   3.166   2.866  13.934 -0.2859  0.1695 -0.2555
 1982TIP3    H127437   3.212   2.915  13.866 -0.8854 -0.4616 -1.1279
 1982TIP3    H227438   3.206   2.779  13.932 -1.2130 -0.2571 -0.7347
 1983TIP3   OH227439   0.042   1.211  16.000 -0.0115 -0.5214 -0.9460
 1983TIP3    H127440   0.061   1.151  15.929 -1.4962  0.4842 -2.2417
 1983TIP3    H227441  -0.036   1.174  16.042  0.8113 -1.0677  0.1131
 1984TIP3   OH227442   4.722   3.897   4.738 -0.3801  0.1080  0.5323
 1984TIP3    H127443   4.774   3.977   4.746 -0.6952  0.4176 -0.3994
 1984TIP3    H227444   4.757   3.853   4.660  0.1164 -0.9092  1.3213
 1985TIP3   OH227445   2.005   2.493   2.780 -0.3694  0.5189  0.5315
 1985TIP3    H127446   2.002   2.457   2.869 -1.0150  1.2103  0.7922
 1985TIP3    H227447   2.031   2.419   2.725 -0.5884 -0.0687  1.2126
 1986TIP3   OH227448   6.383   4.002   3.854 -0.8740 -0.0833 -0.3392
 1986TIP3    H127449   6.332   3.929   3.890  0.9312 -1.4109 -0.4158
 1986TIP3    H227450   6.317   4.065   3.825 -2.5108 -2.1440 -1.2360
 1987TIP3   OH227451   5.945   5.846   1.004  0.1107 -0.2754  0.1025
 1987TIP3    H127452   5.931   5.876   1.093 -1.0116  0.1404 -0.2126
 1987TIP3    H227453   5.898   5.909   0.949  0.9076 -0.4431 -0.7936
 1988TIP3   OH227454   0.614   3.000   2.976 -0.5428  0.3808 -0.7126
 1988TIP3    H127455   0.560   3.078   2.968 -0.4360  0.5741  0.3600
 1988TIP3    H227456   0.639   2.978   2.886  2.1923  3.5111 -0.7913
 1989TIP3   OH227457   2.857   5.990  11.704  0.0588 -0.4792 -0.0041
 1989TIP3    H127458   2.772   6.000  11.660 -0.2016 -1.1771  0.3244
 1989TIP3    H227459   2.867   6.069  11.756 -1.1043 -1.0532  1.1364
 1990TIP3   OH227460   6.425   2.063  11.318 -0.6671 -0.3872  0.2792
 1990TIP3    H127461   6.422   2.124  11.244 -0.8383  0.8862  1.3413
 1990TIP3    H227462   6.393   1.980  11.281 -0.4770  0.1593 -1.1519
 1991TIP3   OH227463   1.082   1.835   5.211 -0.5012 -0.1831 -0.1179
 1991TIP3    H127464   1.051   1.792   5.291 -0.7147  0.0331 -0.0858
 1991TIP3    H227465   1.039   1.920   5.211 -1.4014 -0.6338 -1.0474
 1992TIP3   OH227466   2.686   0.952   3.069 -0.2659 -0.6081 -1.0704
 1992TIP3    H127467   2.591   0.959   3.053 -0.5786  1.4558  1.4884
 1992TIP3    H227468   2.693   0.892   3.142  0.1738  1.5356  0.6954
 1993TIP3   OH227469   6.175   3.139   6.195 -0.1224 -0.8853  0.6907
 1993TIP3    H127470   6.097   3.130   6.139  0.0978  1.5132 -0.0441
 1993TIP3    H227471   6.234   3.071   6.164 -0.2342  0.0446 -1.6518
 1994TIP3   OH227472   6.504   2.228  14.143 -0.1298  0.2688  0.0470
 1994TIP3    H127473   6.416   2.192  14.155  0.0183  0.0505  0.4910
 1994TIP3    H227474   6.546   2.168  14.080 -0.1294  0.0838  0.2220
 1995TIP3   OH227475   3.450   4.008  13.805  0.0550 -0.5268  0.0500
 1995TIP3    H127476   3.391   3.945  13.763  0.9336 -0.7984 -0.8004
 1995TIP3    H227477   3.405   4.033  13.886 -0.8230 -1.3851 -0.1635
 1996TIP3   OH227478   2.825   1.161   0.290  0.2203 -0.2950 -0.0868
 1996TIP3    H127479   2.799   1.221   0.220 -0.7215 -1.1338 -0.4847
 1996TIP3    H227480   2.913   1.189   0.315  0.2290  0.5512 -1.0241
 1997TIP3   OH227481   5.768   3.932  16.790  0.3112  0.9992  0.1952
 1997TIP3    H127482   5.679   3.927  16.754  0.5558  0.1949 -0.3183
 1997TIP3    H227483   5.780   3.847  16.833  0.9139  1.0132  0.0592
 1998TIP3   OH227484   4.675   5.805   4.308 -0.6151  0.2530 -0.8188
 1998TIP3    H127485   4.596   5.768   4.349  3.2163 -1.0928  6.0818
 1998TIP3    H227486   4.723   5.728   4.278  1.7469  0.2808  2.5954
 1999TIP3   OH227487   5.560   0.551  12.376  0.1114  0.1275 -0.7457
 1999TIP3    H127488   5.589   0.620  12.436 -1.4103 -0.6228  0.8874
 1999TIP3    H227489   5.616   0.476  12.397  0.3047  0.1862 -1.0385
 2000TIP3   OH227490   4.029   6.388  13.240 -0.4702  0.0699 -0.1390
 2000TIP3    H127491   4.097   6.407  13.304  2.2578 -0.1405 -2.8746
 2000TIP3    H227492   3.970   6.327  13.285  1.2121  0.1093  2.2016
 2001TIP3   OH227493   1.568   1.701   4.211 -0.0879 -0.4811  0.2905
 2001TIP3    H127494   1.489   1.690   4.264 -0.4550 -3.4185 -0.7493
 2001TIP3    H227495   1.539   1.751   4.135 -0.6815 -0.5242  0.4833
 2002TIP3   OH227496   4.310   0.353   3.421 -0.1759  0.3243 -0.5973
 2002TIP3    H127497   4.394   0.348   3.468 -1.4842  0.5515  1.8614
 2002TIP3    H227498   4.281   0.443   3.435 -1.2089  0.0127 -0.7372
 2003TIP3   OH227499   0.790   2.132   3.793  0.0908  0.7130 -0.3499
 2003TIP3    H127500   0.771   2.130   3.887  0.8316  1.9809 -0.1736
 2003TIP3    H227501   0.707   2.155   3.752  0.3130  2.4987  0.1636
 2004TIP3   OH227502   6.818   1.720  16.963  0.0077  0.2280 -0.3626
 2004TIP3    H127503   6.809   1.815  16.972 -0.0555  0.0874  1.1798
 2004TIP3    H227504   6.908   1.708  16.933  0.2805  0.7332  0.2340
 2005TIP3   OH227505   1.106   3.635   1.096  0.0462  0.2731 -0.8158
 2005TIP3    H127506   1.139   3.725   1.099 -0.3057  0.4129 -1.1528
 2005TIP3    H227507   1.032   3.635   1.157  1.3477 -0.3221  0.8013
 2006TIP3   OH227508   0.007   2.391   0.217 -0.5243 -0.0434 -0.5214
 2006TIP3    H127509   0.069   2.320   0.231 -0.4862 -0.7778 -4.0745
 2006TIP3    H227510   0.050   2.468   0.254  2.4428 -0.5646 -2.7521
 2007TIP3   OH227511   6.064   4.804   5.963  0.0160 -0.0303 -0.7868
 2007TIP3    H127512   6.146   4.852   5.978  0.1912 -0.6761  0.3197
 2007TIP3    H227513   6.003   4.841   6.026 -0.2186 -0.3757 -0.8136
 2008TIP3   OH227514   0.767   4.285  16.231 -0.1604 -0.4321  0.3298
 2008TIP3    H127515   0.782   4.195  16.202 -1.3167 -0.9232  1.2106
 2008TIP3    H227516   0.800   4.288  16.321 -0.9896 -0.2320  0.6292
 2009TIP3   OH227517   1.939   1.981  14.160 -0.0286  0.4557  0.3066
 2009TIP3    H127518   1.954   1.887  14.170 -1.0421  0.5896  3.6296
 2009TIP3    H227519   2.016   2.012  14.112  0.9016 -1.8676  0.2243
 2010TIP3   OH227520   0.841   0.693   2.271 -0.1804  0.5152  0.1199
 2010TIP3    H127521   0.906   0.672   2.338 -0.7234 -0.9451  0.2050
 2010TIP3    H227522   0.757   0.689   2.316 -0.4223  1.3665 -0.2366
 2011TIP3   OH227523   1.898   5.841   4.108 -0.0970  1.1231 -0.2263
 2011TIP3    H127524   1.963   5.858   4.177 -0.4072 -3.0732  1.2203
 2011TIP3    H227525   1.949   5.816   4.032  0.0696  0.5573  0.0721
 2012TIP3   OH227526   3.066   1.637   5.599 -0.5841 -0.1824  0.3184
 2012TIP3    H127527   3.055   1.728   5.571  0.4575 -0.3591 -0.7110
 2012TIP3    H227528   3.117   1.643   5.680 -0.8766  0.1645  0.4810
 2013TIP3   OH227529   2.594   4.836   1.518  0.0228 -0.1103  0.3688
 2013TIP3    H127530   2.640   4.909   1.561 -0.0608 -0.0689  0.3874
 2013TIP3    H227531   2.657   4.803   1.454 -0.0803  0.2222  0.0950
 2014TIP3   OH227532   2.848   5.203  13.632 -0.2468 -0.3146 -0.3784
 2014TIP3    H127533   2.938   5.226  13.652 -0.4544  0.4160 -0.2928
 2014TIP3    H227534   2.856   5.126  13.575  0.4160 -0.4516 -0.1082
 2015TIP3   OH227535   3.376   3.891  15.696 -0.8448  0.1893 -0.3278
 2015TIP3    H127536   3.439   3.934  15.754 -0.5453  0.0308 -0.5353
 2015TIP3    H227537   3.305   3.954  15.687 -0.5427  0.5205 -0.3931
 2016TIP3   OH227538   3.478   1.773   4.537 -0.3940 -0.1101 -0.3834
 2016TIP3    H127539   3.451   1.691   4.495 -0.9142  0.4164 -1.0678
 2016TIP3    H227540   3.407   1.791   4.599  1.3783 -2.0274  2.3327
 2017TIP3   OH227541   1.537   5.937  11.730 -0.3145 -0.0556  0.7403
 2017TIP3    H127542   1.569   6.027  11.729 -1.8365  0.5128  1.2075
 2017TIP3    H227543   1.591   5.893  11.796  0.1959  0.6228  0.7741
 2018TIP3   OH227544   2.194   4.579   1.212 -0.5689  0.3440 -0.2335
 2018TIP3    H127545   2.282   4.608   1.238 -0.5101 -0.4479  0.4663
 2018TIP3    H227546   2.201   4.563   1.118 -0.4318  1.9660 -0.5252
 2019TIP3   OH227547   1.282   3.201  11.768 -0.2375 -0.0384  0.3392
 2019TIP3    H127548   1.316   3.286  11.739 -1.5920  0.8858  1.4107
 2019TIP3    H227549   1.296   3.143  11.694  1.7807  0.8323  0.0041
 2020TIP3   OH227550   5.386   4.171   0.808  0.0052  0.5222 -0.6207
 2020TIP3    H127551   5.328   4.196   0.880 -0.9878 -0.0312 -1.2189
 2020TIP3    H227552   5.334   4.111   0.755  1.7272 -1.3677 -0.2133
 2021TIP3   OH227553   0.347   2.452  12.793  0.1861 -0.1221 -0.5520
 2021TIP3    H127554   0.431   2.498  12.793 -0.7230  1.6165 -1.7711
 2021TIP3    H227555   0.332   2.428  12.884  0.8450  1.7263  0.0499
 2022TIP3   OH227556   4.952   3.540  11.059 -0.0930 -0.0157 -0.0557
 2022TIP3    H127557   4.930   3.612  10.999 -0.9225  0.6075  0.9756
 2022TIP3    H227558   4.875   3.484  11.058 -0.6484  0.7043  1.4483
 2023TIP3   OH227559   3.049   4.173   1.269 -0.2073  0.0573 -0.4203
 2023TIP3    H127560   2.975   4.194   1.326  0.7136  0.9904  0.4587
 2023TIP3    H227561   3.057   4.077   1.274 -0.1679  0.1296  0.9805
 2024TIP3   OH227562   6.339   6.420  15.862  0.5660 -0.4778  0.0639
 2024TIP3    H127563   6.357   6.333  15.897  0.9640 -0.4633 -0.0973
 2024TIP3    H227564   6.324   6.475  15.939  1.6305 -0.4046  0.2285
 2025TIP3   OH227565   6.177   0.754  14.005 -0.7238 -0.0890 -0.0118
 2025TIP3    H127566   6.169   0.733  14.098  1.2323 -0.4380  0.1005
 2025TIP3    H227567   6.251   0.701  13.975 -0.1486  1.4467 -1.3390
 2026TIP3   OH227568   0.783   5.210  14.506 -0.2436  0.4994 -0.1751
 2026TIP3    H127569   0.703   5.165  14.531 -0.5008  1.9370  1.6994
 2026TIP3    H227570   0.758   5.267  14.433 -1.3786  2.2856  1.5642
 2027TIP3   OH227571   3.690   4.511   5.917  0.0216 -0.4331  0.1986
 2027TIP3    H127572   3.613   4.488   5.969  0.3848  1.2679  1.5590
 2027TIP3    H227573   3.654   4.555   5.840 -0.4283 -0.8111  0.1891
 2028TIP3   OH227574   4.943   4.172  11.412  0.2786 -0.4536 -0.0260
 2028TIP3    H127575   4.962   4.078  11.411  0.0665 -0.5375  1.8355
 2028TIP3    H227576   4.848   4.177  11.403  0.3407 -0.3732 -0.7144
 2029TIP3   OH227577   4.227   1.706   3.665 -0.1923  0.1194  0.0779
 2029TIP3    H127578   4.216   1.735   3.575  1.0370  0.7948  0.1340
 2029TIP3    H227579   4.172   1.767   3.716  1.0433  1.3190  0.0199
 2030TIP3   OH227580   1.863   0.538   4.157  0.0726 -0.3459  0.2125
 2030TIP3    H127581   1.914   0.550   4.237  0.5098 -3.2082  0.4186
 2030TIP3    H227582   1.923   0.558   4.086  0.0111  1.1118  0.5671
 2031TIP3   OH227583   1.058   6.587  14.937 -0.2581  0.3003  0.0208
 2031TIP3    H127584   1.061   6.554  15.027 -1.7393 -1.4205 -0.5371
 2031TIP3    H227585   0.971   6.564  14.905  0.0937  1.2627 -1.7243
 2032TIP3   OH227586   6.640   2.377   0.904  0.3086 -0.5117  0.1820
 2032TIP3    H127587   6.674   2.438   0.969  1.6495 -0.0813 -0.9194
 2032TIP3    H227588   6.713   2.316   0.888 -0.2729 -1.0742 -0.3506
 2033TIP3   OH227589   3.948   5.113  16.462 -0.1697  0.3156  1.0427
 2033TIP3    H127590   3.912   5.118  16.373  2.6049  0.8303 -0.1166
 2033TIP3    H227591   3.905   5.185  16.508  0.1034  1.5496 -0.5694
 2034TIP3   OH227592   5.230   0.034  13.105  0.2130  0.4974 -0.3948
 2034TIP3    H127593   5.285   0.065  13.176  0.2088 -0.6099  0.1115
 2034TIP3    H227594   5.235   0.102  13.038  0.6687  1.2846  0.4315
 2035TIP3   OH227595   5.440   0.140  17.090 -0.2576 -0.3610  0.7753
 2035TIP3    H127596   5.356   0.111  17.126 -0.2185  0.0082  1.1695
 2035TIP3    H227597   5.429   0.234  17.076 -0.3471 -0.5259 -0.3854
 2036TIP3   OH227598   5.011   3.161   4.356 -0.0659 -0.3345  0.0622
 2036TIP3    H127599   5.072   3.112   4.300  0.2244  2.2476 -2.0488
 2036TIP3    H227600   4.926   3.153   4.312  0.1360  1.5853 -0.7632
 2037TIP3   OH227601   6.694   0.777  15.038 -0.3814 -0.0612 -0.0233
 2037TIP3    H127602   6.749   0.722  15.094 -0.9721 -0.6284 -0.0032
 2037TIP3    H227603   6.645   0.715  14.984 -1.5888  0.4346  0.5051
 2038TIP3   OH227604   3.201   2.843  16.776  0.1481  0.2860  0.7227
 2038TIP3    H127605   3.162   2.928  16.796 -0.7436  0.2453 -0.7270
 2038TIP3    H227606   3.161   2.783  16.838 -0.0842  0.7290  1.0042
 2039TIP3   OH227607   0.282   2.106   4.659  0.6633  0.1249 -0.1863
 2039TIP3    H127608   0.243   2.165   4.723 -0.3953 -0.8052  0.0317
 2039TIP3    H227609   0.345   2.161   4.611  1.0373  0.9685  1.2388
 2040TIP3   OH227610   6.191   3.371   3.660  0.0864  1.0908  0.0241
 2040TIP3    H127611   6.176   3.389   3.753  1.7971 -2.1438  0.9970
 2040TIP3    H227612   6.121   3.312   3.634  0.5270  0.6981 -0.2912
 2041TIP3   OH227613   2.084   2.736   5.070  0.1096 -0.0062  0.5176
 2041TIP3    H127614   2.179   2.726   5.063  0.3181  0.9135  1.9003
 2041TIP3    H227615   2.060   2.790   4.995  0.5515 -0.9138 -0.2991
 2042TIP3   OH227616   2.326   3.197   2.311 -0.4189 -0.8398 -0.9765
 2042TIP3    H127617   2.321   3.224   2.403 -1.7448 -0.3025 -1.1938
 2042TIP3    H227618   2.417   3.171   2.299 -0.3145 -1.2479  0.5824
 2043TIP3   OH227619   2.246   4.630  14.463 -0.4851  0.1087  0.0785
 2043TIP3    H127620   2.297   4.626  14.544 -0.2076  0.9957 -0.0458
 2043TIP3    H227621   2.162   4.588  14.485  0.3578 -1.5215  0.2261
 2044TIP3   OH227622   1.402   3.803   1.735  0.1189  0.3709 -0.0492
 2044TIP3    H127623   1.477   3.860   1.751  0.7304  0.1271 -1.9976
 2044TIP3    H227624   1.361   3.838   1.656  0.3532 -1.7370 -1.1217
 2045TIP3   OH227625   2.850   5.441   0.411 -0.3774  0.3120  0.2890
 2045TIP3    H127626   2.805   5.521   0.385  0.6277  0.3142 -1.5174
 2045TIP3    H227627   2.935   5.446   0.367 -0.1894 -1.6007  0.3986
 2046TIP3   OH227628   2.777   1.476   3.432 -0.0168 -0.2979 -0.2028
 2046TIP3    H127629   2.763   1.561   3.475 -0.6552 -0.4221 -0.1573
 2046TIP3    H227630   2.688   1.445   3.413  0.2387 -0.7012 -0.7139
 2047TIP3   OH227631   0.980   3.686  12.552 -0.4618  0.5941 -0.1399
 2047TIP3    H127632   0.917   3.701  12.622 -0.4042  1.7433 -0.3245
 2047TIP3    H227633   1.048   3.631  12.592 -1.2586 -0.1281  0.2291
 2048TIP3   OH227634   5.108   0.108  13.787  0.5014 -0.1229 -0.7839
 2048TIP3    H127635   5.152   0.032  13.826  1.4961  0.9161  0.1353
 2048TIP3    H227636   5.017   0.101  13.817  1.0111  0.0560  0.8364
 2049TIP3   OH227637   2.602   5.278  15.871 -0.3240  0.2950  0.1664
 2049TIP3    H127638   2.509   5.294  15.859  0.2257  2.3867 -1.4132
 2049TIP3    H227639   2.629   5.341  15.938 -0.0762 -0.5136  0.8499
 2050TIP3   OH227640   3.116   5.253   3.122 -0.1325  0.2134  0.3634
 2050TIP3    H127641   3.124   5.300   3.039 -0.2487  0.2184  0.3539
 2050TIP3    H227642   3.099   5.162   3.096  2.4589 -0.3091  0.3587
 2051TIP3   OH227643   2.792   3.599   0.590 -0.7732 -0.5393  0.7911
 2051TIP3    H127644   2.840   3.622   0.511 -2.0445 -1.4009 -0.2714
 2051TIP3    H227645   2.859   3.589   0.658  0.2929  0.5918 -0.0780
 2052TIP3   OH227646   6.371   1.361   5.014  0.1005 -0.1546  0.5427
 2052TIP3    H127647   6.349   1.447   4.977  0.3880 -0.5973 -0.6970
 2052TIP3    H227648   6.453   1.375   5.061  0.3630  0.1523 -0.0042
 2053TIP3   OH227649   1.424   2.849  12.277  0.0677  0.0709  0.1210
 2053TIP3    H127650   1.400   2.904  12.352 -0.9760  0.7718 -0.7217
 2053TIP3    H227651   1.443   2.911  12.207  1.2453 -0.5780 -0.1461
 2054TIP3   OH227652   5.770   3.846  12.030  0.4696  0.0171  0.4596
 2054TIP3    H127653   5.834   3.808  12.091 -0.1593 -1.2060  0.3484
 2054TIP3    H227654   5.707   3.890  12.087 -0.2939 -1.3946  0.7204
 2055TIP3   OH227655   5.328   6.057   1.597 -0.2469  0.6212 -0.0212
 2055TIP3    H127656   5.283   6.107   1.528 -0.1090  0.5285 -0.1780
 2055TIP3    H227657   5.389   6.001   1.550  0.5233  1.2359  0.2274
 2056TIP3   OH227658   6.040   1.202  10.878  0.2323 -0.0953 -0.2707
 2056TIP3    H127659   6.046   1.287  10.834  0.9478 -0.4903 -0.9672
 2056TIP3    H227660   6.043   1.138  10.806  1.1576 -0.7491  0.3410
 2057TIP3   OH227661   2.311   4.388   2.688  0.0711  0.8506 -0.0249
 2057TIP3    H127662   2.382   4.436   2.732 -0.3232  1.1774  0.2521
 2057TIP3    H227663   2.264   4.345   2.759 -1.5850  2.7253  0.0484
 2058TIP3   OH227664   1.922   3.616  12.116 -0.5662 -0.4912 -0.1239
 2058TIP3    H127665   1.984   3.544  12.100  1.1151  1.2743 -1.7388
 2058TIP3    H227666   1.902   3.609  12.210  2.3998 -0.8575  0.5347
 2059TIP3   OH227667   6.750   5.141   5.580  0.0024  0.2403  0.6276
 2059TIP3    H127668   6.828   5.087   5.567 -0.2036  0.4400 -1.7578
 2059TIP3    H227669   6.681   5.093   5.534 -0.7178  1.3120  0.5908
 2060TIP3   OH227670   0.345   5.003  12.337  0.3748  0.2682  0.1221
 2060TIP3    H127671   0.356   5.055  12.258 -2.1772  1.2665  0.3760
 2060TIP3    H227672   0.377   5.059  12.408 -0.5592  0.7444  0.1735
 2061TIP3   OH227673   1.818   3.222  13.869 -0.5011  0.3393  0.2246
 2061TIP3    H127674   1.905   3.258  13.885 -0.3733 -0.4299  1.3259
 2061TIP3    H227675   1.793   3.181  13.952 -1.7032  0.1205 -0.2304
 2062TIP3   OH227676   5.046   1.624  11.278 -0.0016 -0.0223  0.1818
 2062TIP3    H127677   4.980   1.672  11.328 -2.0246 -2.8994  0.4462
 2062TIP3    H227678   5.064   1.547  11.333  2.0039 -0.3270 -0.8909
 2063TIP3   OH227679   6.545   3.227  11.592 -0.1155 -0.2456 -0.1774
 2063TIP3    H127680   6.482   3.176  11.643  2.7703 -1.3877  2.4402
 2063TIP3    H227681   6.574   3.168  11.523 -0.5634 -0.3570 -0.2702
 2064TIP3   OH227682   2.863   2.877  16.799  0.2271 -0.0291 -0.1872
 2064TIP3    H127683   2.879   2.916  16.884  0.2810  1.1874 -0.7373
 2064TIP3    H227684   2.769   2.858  16.799 -0.2949  2.3491 -0.7922
 2065TIP3   OH227685   6.531   6.039   0.386  0.3528  0.2872 -0.1945
 2065TIP3    H127686   6.469   5.987   0.438  1.6331 -1.3374 -0.2769
 2065TIP3    H227687   6.475   6.095   0.332 -1.0306  0.9477  1.8296
 2066TIP3   OH227688   4.371   3.099   5.949 -0.4348 -0.4045 -0.0274
 2066TIP3    H127689   4.326   3.182   5.934  2.1169  0.9101 -0.8985
 2066TIP3    H227690   4.404   3.106   6.039  3.6490  1.5883 -1.5453
 2067TIP3   OH227691   4.127   0.216   2.325 -0.3890  0.0519 -0.3471
 2067TIP3    H127692   4.061   0.217   2.256  1.6984 -0.7206 -2.4201
 2067TIP3    H227693   4.121   0.128   2.363 -0.5417 -0.0188 -0.5341
 2068TIP3   OH227694   2.299   0.958  11.208 -0.4165  0.1726  0.1703
 2068TIP3    H127695   2.336   1.003  11.132 -1.4116 -0.0348 -0.4445
 2068TIP3    H227696   2.231   0.902  11.172 -1.2361  0.4389  1.2623
 2069TIP3   OH227697   1.332   6.455   3.938 -0.1953  0.6740  0.2440
 2069TIP3    H127698   1.384   6.475   4.016 -1.8691  0.6882  1.3786
 2069TIP3    H227699   1.308   6.363   3.948 -0.0559  0.5605 -0.4656
 2070TIP3   OH227700   5.234   0.874   2.764 -0.0581 -0.2544 -0.3327
 2070TIP3    H127701   5.215   0.785   2.794 -1.6289 -0.8813 -2.9722
 2070TIP3    H227702   5.159   0.925   2.793  0.4873  0.0560  0.5349
 2071TIP3   OH227703   5.742   4.586   1.702 -0.7267  1.0435 -0.0534
 2071TIP3    H127704   5.837   4.590   1.716 -0.7366  0.5908  0.1622
 2071TIP3    H227705   5.732   4.564   1.609 -0.6111  0.6538  0.0235
 2072TIP3   OH227706   2.796   5.041  11.546 -0.1912 -0.0743 -0.4535
 2072TIP3    H127707   2.880   5.002  11.522 -0.8830 -1.1976 -1.0655
 2072TIP3    H227708   2.737   4.967  11.556 -1.1223  0.7167 -0.0502
 2073TIP3   OH227709   1.889   2.949   6.014  0.4072 -0.2259  0.5933
 2073TIP3    H127710   1.970   2.991   6.043  1.1331 -0.1534 -1.4737
 2073TIP3    H227711   1.913   2.902   5.935 -0.9652 -2.5432  1.4985
 2074TIP3   OH227712   0.107   0.631  12.930  0.0061 -0.6413  0.0507
 2074TIP3    H127713   0.088   0.700  12.993  0.8619 -0.8721  0.5700
 2074TIP3    H227714   0.095   0.550  12.979  0.2699 -0.8327 -0.2008
 2075TIP3   OH227715   4.453   2.180   1.452  0.2835  0.2781  0.3215
 2075TIP3    H127716   4.363   2.209   1.462  0.0176 -0.3975 -0.1012
 2075TIP3    H227717   4.484   2.167   1.542 -0.8829 -2.0383  0.4210
 2076TIP3   OH227718   2.323   5.150  15.226  0.3612 -0.2328 -0.1225
 2076TIP3    H127719   2.354   5.089  15.294 -0.5738 -2.1271 -1.3506
 2076TIP3    H227720   2.235   5.119  15.205 -0.0585  1.4584 -0.9088
 2077TIP3   OH227721   5.828   0.019  13.098  0.0919 -0.1283 -0.5990
 2077TIP3    H127722   5.815  -0.044  13.168 -1.8546  1.9357  0.9807
 2077TIP3    H227723   5.898   0.076  13.130  0.5642 -0.3695 -1.1991
 2078TIP3   OH227724   0.589   3.862  14.406 -0.4615 -0.1392 -0.0334
 2078TIP3    H127725   0.542   3.940  14.434  0.3099 -0.7057  3.0344
 2078TIP3    H227726   0.617   3.821  14.488  0.7656 -2.6215 -1.6565
 2079TIP3   OH227727   0.416   0.699  12.907  0.3054 -0.1589 -0.2864
 2079TIP3    H127728   0.492   0.697  12.965  0.4344 -1.7399 -0.4840
 2079TIP3    H227729   0.408   0.791  12.881  0.5707  0.4669  1.7952
 2080TIP3   OH227730   0.162   3.335  13.168  0.4114  0.0901  0.4268
 2080TIP3    H127731   0.172   3.297  13.255  0.5359  1.4084  1.0156
 2080TIP3    H227732   0.150   3.429  13.185 -1.6400  0.0754 -0.8727
 2081TIP3   OH227733   2.044   6.301  11.266 -0.0939 -0.1316 -0.2705
 2081TIP3    H127734   1.994   6.366  11.216 -0.6626 -1.7784 -1.9030
 2081TIP3    H227735   2.126   6.293  11.218  0.3446  0.0295  0.4504
 2082TIP3   OH227736   4.349   6.269   5.463  0.3403 -0.0914  0.5599
 2082TIP3    H127737   4.275   6.247   5.520  1.3818  0.9898  2.3713
 2082TIP3    H227738   4.315   6.339   5.406 -0.2211 -0.0402  0.9512
 2083TIP3   OH227739   5.589   0.845  11.329  0.1647 -0.4759  0.0047
 2083TIP3    H127740   5.603   0.912  11.262 -0.3315 -2.1630 -1.8567
 2083TIP3    H227741   5.672   0.839  11.375  0.2738  1.2635  0.0560
 2084TIP3   OH227742   6.707   2.158   5.807  0.1281  0.1604  0.2941
 2084TIP3    H127743   6.778   2.172   5.744 -1.6850 -2.4995 -2.4608
 2084TIP3    H227744   6.734   2.079   5.855  0.0645  0.4047  0.7283
 2085TIP3   OH227745   6.002   4.423   4.342  0.4477  0.5303  0.0480
 2085TIP3    H127746   6.047   4.490   4.290  0.7092  1.8734  1.9833
 2085TIP3    H227747   6.070   4.385   4.397 -0.4710  1.4959  1.8818
 2086TIP3   OH227748   1.409   2.260  12.631  0.8901 -0.1148  0.6886
 2086TIP3    H127749   1.433   2.183  12.683 -0.4905  0.5387  2.3757
 2086TIP3    H227750   1.428   2.335  12.688  0.0638  0.6630 -0.0335
 2087TIP3   OH227751   2.852   0.007   2.434  0.2248 -0.0122 -0.1520
 2087TIP3    H127752   2.933   0.048   2.402  0.2599  1.0640  1.2611
 2087TIP3    H227753   2.787   0.026   2.366 -0.0355  3.3932  0.9406
 2088TIP3   OH227754   1.056   6.616   4.399  0.0107 -0.3030 -0.1045
 2088TIP3    H127755   1.068   6.599   4.306 -0.8033 -0.6967 -0.1425
 2088TIP3    H227756   0.977   6.671   4.404 -1.6033 -2.5988  0.5326
 2089TIP3   OH227757   1.974   5.272   2.122 -0.2859 -0.1760  0.4850
 2089TIP3    H127758   2.016   5.300   2.041  3.0905 -1.3611  1.7476
 2089TIP3    H227759   1.928   5.350   2.153  2.2604  1.6461 -0.2029
 2090TIP3   OH227760   0.426   1.369  15.250  0.4252  0.1436  0.0838
 2090TIP3    H127761   0.332   1.387  15.245  0.4473  0.1573 -0.3258
 2090TIP3    H227762   0.431   1.275  15.267  0.3263  0.3268  1.1419
 2091TIP3   OH227763   0.454   2.300   5.637 -0.1935 -0.4443  0.5336
 2091TIP3    H127764   0.376   2.260   5.676 -0.6471 -0.1313 -0.0297
 2091TIP3    H227765   0.528   2.255   5.677 -0.6553 -0.1360  1.7256
 2092TIP3   OH227766   0.511   4.333  16.387 -0.1172 -0.4333 -0.0169
 2092TIP3    H127767   0.588   4.323  16.332  0.3869  0.6521  0.4879
 2092TIP3    H227768   0.521   4.266  16.454  0.8654  0.3342  0.6050
 2093TIP3   OH227769   2.252   1.928  16.451 -0.3319 -0.2665  0.1708
 2093TIP3    H127770   2.200   1.851  16.476  0.2762 -0.8259 -0.2499
 2093TIP3    H227771   2.208   1.961  16.372 -1.9668  1.2168  1.6624
 2094TIP3   OH227772   2.073   2.665   0.723 -0.4022  0.1538 -0.0497
 2094TIP3    H127773   2.044   2.699   0.808 -0.1818 -0.4266  0.2671
 2094TIP3    H227774   2.084   2.742   0.668  1.7648  0.7727  1.1648
 2095TIP3   OH227775   0.449   4.984   2.645 -0.2080 -0.0161 -0.1585
 2095TIP3    H127776   0.439   4.968   2.551  0.3399  2.4153 -0.6773
 2095TIP3    H227777   0.365   5.023   2.671  0.4257  1.3751 -0.1385
 2096TIP3   OH227778   6.232   1.238   4.460 -0.0340  0.0668 -0.1139
 2096TIP3    H127779   6.319   1.278   4.452  0.9029 -1.7846  0.5854
 2096TIP3    H227780   6.210   1.248   4.552  0.1401 -0.8805  0.0332
 2097TIP3   OH227781   5.824   1.470  12.438 -0.4356 -0.8498 -0.1624
 2097TIP3    H127782   5.850   1.413  12.366 -0.1874 -0.1131 -0.6673
 2097TIP3    H227783   5.728   1.463  12.442 -0.5630  0.0445 -1.3704
 2098TIP3   OH227784   6.086   4.152   5.327 -0.2738  0.3920  0.1560
 2098TIP3    H127785   6.021   4.187   5.266 -0.2757 -0.0708 -0.1163
 2098TIP3    H227786   6.035   4.123   5.402 -0.7463 -2.5722 -1.2197
 2099TIP3   OH227787   3.272   1.555   0.655  0.4508  0.3221  0.4835
 2099TIP3    H127788   3.344   1.555   0.718  1.5431 -0.5519 -0.7511
 2099TIP3    H227789   3.307   1.598   0.578 -0.1776 -0.5465 -0.3027
 2100TIP3   OH227790   6.204   1.945   4.705 -0.3390 -0.1363 -0.4023
 2100TIP3    H127791   6.172   1.873   4.651  0.4137 -0.1640 -0.8209
 2100TIP3    H227792   6.297   1.924   4.720 -0.4761 -0.0141  0.7100
 2101TIP3   OH227793   0.119   2.276   6.821  0.3864 -0.0044 -0.1875
 2101TIP3    H127794   0.138   2.186   6.793 -2.2653 -0.6845  0.0720
 2101TIP3    H227795   0.026   2.288   6.802  0.8342  2.9347 -0.8091
 2102TIP3   OH227796   1.616   4.294  15.999 -0.0529 -0.7414 -0.3733
 2102TIP3    H127797   1.686   4.257  16.053 -0.1931 -0.7125 -0.1702
 2102TIP3    H227798   1.653   4.299  15.911  0.1467 -0.8672 -0.2944
 2103TIP3   OH227799   2.809   4.237  10.848 -0.1007 -0.5345  0.3770
 2103TIP3    H127800   2.888   4.257  10.797  1.1878 -0.6814  2.2551
 2103TIP3    H227801   2.807   4.141  10.852  0.2826 -0.5134  1.2857
 2104TIP3   OH227802   1.035   0.885   2.489 -0.5258 -0.5772  0.0355
 2104TIP3    H127803   1.071   0.830   2.420  0.4098 -0.7277  0.6277
 2104TIP3    H227804   0.997   0.823   2.552 -2.4550 -0.3955 -0.9090
 2105TIP3   OH227805   0.685   5.881   3.136  0.1551  0.4052 -0.2031
 2105TIP3    H127806   0.646   5.905   3.220 -0.0340  0.6744 -0.3666
 2105TIP3    H227807   0.611   5.852   3.083  0.2690  0.2798 -0.2951
 2106TIP3   OH227808   5.741   5.212  11.019 -0.5323  0.0260 -0.2276
 2106TIP3    H127809   5.805   5.195  11.088 -0.1214  0.9516 -0.3609
 2106TIP3    H227810   5.779   5.285  10.969 -1.5450  0.3870 -0.4887
 2107TIP3   OH227811   2.208   6.766  14.920 -0.1086  0.1775 -0.0129
 2107TIP3    H127812   2.198   6.834  14.986 -1.2173 -0.8213  0.8562
 2107TIP3    H227813   2.146   6.791  14.851  0.5990  0.8754 -0.4112
 2108TIP3   OH227814   5.624   0.142   1.843  0.0356  0.0515  0.0043
 2108TIP3    H127815   5.704   0.150   1.895 -0.4864  0.9772  0.6794
 2108TIP3    H227816   5.599   0.050   1.854  1.5348 -0.4936 -1.0258
 2109TIP3   OH227817   1.810   0.572  11.236 -0.1465 -0.5761  0.8583
 2109TIP3    H127818   1.863   0.606  11.164 -0.5371 -0.0333  0.8263
 2109TIP3    H227819   1.813   0.477  11.225 -1.2893 -0.4445 -0.6569
 2110TIP3   OH227820   2.979   2.929   2.097 -0.0870 -0.3962  0.0530
 2110TIP3    H127821   2.995   2.946   2.004  0.0282 -0.2199  0.1047
 2110TIP3    H227822   3.052   2.972   2.142 -0.3794 -0.1053  0.2515
 2111TIP3   OH227823   0.053   5.568  13.576 -0.9858  0.4501  0.1121
 2111TIP3    H127824   0.145   5.548  13.593 -1.3206 -0.7227  0.5916
 2111TIP3    H227825   0.031   5.635  13.641 -1.2355 -1.3295  1.9265
 2112TIP3   OH227826   5.837   4.680   0.744  0.2529  0.8842 -0.4859
 2112TIP3    H127827   5.900   4.618   0.708 -0.6678  1.0365 -2.4165
 2112TIP3    H227828   5.808   4.640   0.826  0.5130 -0.7017 -1.1500
 2113TIP3   OH227829   2.411   2.894   0.953  0.6908 -0.5947  0.9677
 2113TIP3    H127830   2.495   2.938   0.962  1.1195 -1.5100  1.5249
 2113TIP3    H227831   2.349   2.964   0.932  2.0443 -0.2662 -2.0917
 2114TIP3   OH227832   5.822   4.127   0.490 -0.1080 -0.1018 -0.0870
 2114TIP3    H127833   5.826   4.148   0.583 -0.2727  0.5311 -0.2179
 2114TIP3    H227834   5.839   4.033   0.485  0.8086  0.0341  0.4991
 2115TIP3   OH227835   1.358   3.355   3.269  0.1648  0.4534  0.0629
 2115TIP3    H127836   1.396   3.441   3.250 -1.0921  0.9240 -0.3917
 2115TIP3    H227837   1.278   3.375   3.318  1.0905 -0.5737  2.0088
 2116TIP3   OH227838   1.995   5.151  16.843 -0.0972 -0.3013  0.9848
 2116TIP3    H127839   2.084   5.184  16.829 -0.0205 -0.9687 -0.1718
 2116TIP3    H227840   1.938   5.217  16.805 -0.0785 -0.1616  1.1929
 2117TIP3   OH227841   1.336   5.810   2.724 -0.1274  0.1362 -0.4289
 2117TIP3    H127842   1.426   5.839   2.712 -0.3492  1.8665  1.7565
 2117TIP3    H227843   1.342   5.716   2.735  1.5284  0.3724  0.7700
 2118TIP3   OH227844   0.786   0.543   3.554  0.0539 -0.3441 -0.2214
 2118TIP3    H127845   0.696   0.575   3.553  0.7678  1.7518 -0.6416
 2118TIP3    H227846   0.778   0.448   3.551 -2.1924 -0.3207  3.0519
 2119TIP3   OH227847   4.024   3.852  16.182  0.5453  0.1272  0.2530
 2119TIP3    H127848   3.988   3.776  16.229  0.7417 -0.5820 -0.7207
 2119TIP3    H227849   4.106   3.820  16.144  0.6706  0.8547 -0.0899
 2120TIP3   OH227850   6.582   0.115   3.243  0.5623  0.5119  0.1279
 2120TIP3    H127851   6.624   0.201   3.234 -1.4920  1.5222 -0.0678
 2120TIP3    H227852   6.528   0.106   3.165 -0.2067 -0.4222  0.7623
 2121TIP3   OH227853   3.816   4.451   0.883  0.2489  0.0306 -0.2030
 2121TIP3    H127854   3.836   4.517   0.949 -0.7160 -0.2870  0.4107
 2121TIP3    H227855   3.740   4.486   0.836 -0.5001 -0.8106  0.3690
 2122TIP3   OH227856   2.151   1.146   1.162 -0.4469  0.0922 -0.1367
 2122TIP3    H127857   2.237   1.189   1.161  0.5627 -1.8538  0.8742
 2122TIP3    H227858   2.142   1.114   1.252 -1.4945 -1.1652 -0.6814
 2123TIP3   OH227859   3.000   3.828  16.756  0.1810 -0.0661  0.1078
 2123TIP3    H127860   2.964   3.834  16.668  2.9646  0.2889 -1.0583
 2123TIP3    H227861   2.928   3.794  16.809 -2.2734  1.9359 -1.8000
 2124TIP3   OH227862   1.130   5.858  14.931  0.3637 -0.0559  0.3802
 2124TIP3    H127863   1.176   5.787  14.886  0.4097 -0.2667  0.7533
 2124TIP3    H227864   1.090   5.910  14.861  0.9035 -0.0560  0.0710
 2125TIP3   OH227865   0.906   5.928   4.789 -0.4835 -0.0615  0.0082
 2125TIP3    H127866   0.957   5.933   4.870  1.6039  1.7624 -1.3324
 2125TIP3    H227867   0.836   5.992   4.801  0.3040  0.8024  0.0735
 2126TIP3   OH227868   3.144   3.651  11.133  0.2944 -0.0421 -0.0627
 2126TIP3    H127869   3.145   3.725  11.193  0.2325 -0.2957  0.2536
 2126TIP3    H227870   3.136   3.574  11.190 -0.7967 -0.2234 -0.4404
 2127TIP3   OH227871   0.875   5.202   3.378 -0.2200 -0.0749 -0.2356
 2127TIP3    H127872   0.854   5.108   3.378 -0.4934 -0.0332  1.0700
 2127TIP3    H227873   0.792   5.245   3.396  0.1684  0.3320  0.6064
 2128TIP3   OH227874   3.089   2.987   1.840  0.7883 -0.3331  0.0773
 2128TIP3    H127875   3.032   3.029   1.775 -0.6113 -1.5575  0.4858
 2128TIP3    H227876   3.172   3.033   1.832  0.4701 -0.0794 -2.1919
 2129TIP3   OH227877   3.556   5.716   2.603 -0.0251  0.5115 -0.4771
 2129TIP3    H127878   3.491   5.706   2.534  0.5743  0.5655 -1.0578
 2129TIP3    H227879   3.619   5.646   2.586  0.2816  0.7100 -0.1640
 2130TIP3   OH227880   3.176   0.008   2.158  0.5222  0.1834 -0.6113
 2130TIP3    H127881   3.160   0.046   2.244  0.5943  1.0392 -0.9753
 2130TIP3    H227882   3.100   0.034   2.106 -0.0390 -1.2103 -0.5272
 2131TIP3   OH227883   4.470   0.957   6.661 -0.3683 -0.0842  0.2673
 2131TIP3    H127884   4.457   0.908   6.580 -2.4516 -0.3065  0.6960
 2131TIP3    H227885   4.460   0.891   6.730 -1.4769  0.6137  0.7901
 2132TIP3   OH227886   5.829   4.104  17.230  0.5653  0.1640 -0.2303
 2132TIP3    H127887   5.887   4.124  17.156  0.3558  1.5963 -0.0184
 2132TIP3    H227888   5.857   4.164  17.299 -0.7549  0.4309  0.0870
 2133TIP3   OH227889   2.554   1.082   4.330 -0.1688 -0.0758  0.5483
 2133TIP3    H127890   2.463   1.072   4.303  0.1930  0.0866 -0.7754
 2133TIP3    H227891   2.601   1.104   4.249  0.7946  1.4214  1.4883
 2134TIP3   OH227892   2.937   5.722  13.127  0.2029 -0.1462 -0.0004
 2134TIP3    H127893   2.962   5.715  13.035  0.7175  0.2940  0.1001
 2134TIP3    H227894   2.994   5.660  13.172  1.4773  1.1819  0.2853
 2135TIP3   OH227895   6.779   0.453  14.992 -0.1892 -0.1367 -0.1921
 2135TIP3    H127896   6.702   0.505  14.968 -0.7489 -1.3219 -1.0207
 2135TIP3    H227897   6.787   0.387  14.923 -0.1624 -1.8581  1.3838
 2136TIP3   OH227898   0.648   0.633  13.041 -0.7486 -0.0710 -0.0413
 2136TIP3    H127899   0.624   0.543  13.059 -0.3444 -0.2967 -0.6242
 2136TIP3    H227900   0.741   0.629  13.018 -0.9994  0.3566 -1.1270
 2137TIP3   OH227901   5.863   3.605  12.677  0.4123  0.1839 -0.1432
 2137TIP3    H127902   5.835   3.514  12.684  2.2007 -0.4753 -1.2077
 2137TIP3    H227903   5.879   3.618  12.583 -0.9335  1.9426 -0.1538
 2138TIP3   OH227904   0.316   6.172  16.167 -0.4121  0.5088  0.0668
 2138TIP3    H127905   0.285   6.251  16.209  1.8365  0.3501  2.1179
 2138TIP3    H227906   0.395   6.148  16.215 -1.3033 -3.2631 -0.1827
 2139TIP3   OH227907   1.947   3.140   6.270 -0.6043 -0.2470  0.2407
 2139TIP3    H127908   2.024   3.144   6.213  1.2713  1.2853  2.7284
 2139TIP3    H227909   1.904   3.224   6.259 -1.1703 -0.5783 -0.1174
 2140TIP3   OH227910   2.284   3.342  16.916  0.0317  0.5846  0.0448
 2140TIP3    H127911   2.205   3.350  16.862  1.0155 -2.0759 -1.9213
 2140TIP3    H227912   2.261   3.277  16.982 -0.4528  2.2202  1.5104
 2141TIP3   OH227913   5.702   2.995   2.019 -0.1570  0.1377  0.0604
 2141TIP3    H127914   5.612   3.027   2.018  0.0112  0.6068 -1.0203
 2141TIP3    H227915   5.756   3.074   2.020  0.2395 -0.1271  0.0106
 2142TIP3   OH227916   5.559   3.610   4.009 -0.2643  0.0772  0.2716
 2142TIP3    H127917   5.596   3.522   4.013  1.5510  0.8407  0.7522
 2142TIP3    H227918   5.563   3.633   3.916  2.5074  0.9649  0.5602
 2143TIP3   OH227919   5.865   1.050   6.162 -0.7666 -0.3039 -0.0140
 2143TIP3    H127920   5.817   0.971   6.187  1.1277 -0.9628  1.8033
 2143TIP3    H227921   5.919   1.023   6.087  0.4634 -1.0170  1.0888
 2144TIP3   OH227922   3.531   6.465   2.791 -0.2140  0.3455  0.0614
 2144TIP3    H127923   3.487   6.538   2.835 -0.5746 -1.6541  3.1745
 2144TIP3    H227924   3.465   6.428   2.733 -1.0380  0.4895  0.9019
 2145TIP3   OH227925   1.658   5.778   3.994 -0.2209 -0.2318 -0.5693
 2145TIP3    H127926   1.747   5.775   4.028 -0.1014  0.6940 -0.8002
 2145TIP3    H227927   1.667   5.759   3.901 -0.2121  0.3549 -0.6882
 2146TIP3   OH227928   4.104   1.110  11.896 -0.1450  0.4997 -0.0317
 2146TIP3    H127929   4.154   1.091  11.976  1.5334  1.9973 -0.6967
 2146TIP3    H227930   4.068   1.025  11.870  0.6143 -0.2911  1.4462
 2147TIP3   OH227931   5.760   4.897   3.147 -0.5670 -0.2069  0.6085
 2147TIP3    H127932   5.784   4.982   3.183  0.8394 -0.3253 -0.0049
 2147TIP3    H227933   5.686   4.915   3.088  1.1451  0.9691 -1.2586
 2148TIP3   OH227934   0.573   3.997   5.530 -0.8717 -0.1569 -0.5167
 2148TIP3    H127935   0.539   3.908   5.537 -1.1749 -0.1181 -1.4717
 2148TIP3    H227936   0.525   4.046   5.597 -1.0761 -0.5919 -0.3402
 2149TIP3   OH227937   4.409   1.056  11.999  0.5974  0.7190 -0.3804
 2149TIP3    H127938   4.411   0.986  12.065  0.7477 -0.5321 -1.6963
 2149TIP3    H227939   4.498   1.093  12.001  0.4823  0.9667  0.4084
 2150TIP3   OH227940   6.036   5.306   1.544  0.4137  0.0675  0.4575
 2150TIP3    H127941   6.066   5.317   1.453 -1.7841 -0.9566 -0.4338
 2150TIP3    H227942   6.001   5.217   1.547 -1.5035  0.8275  1.7055
 2151TIP3   OH227943   0.168   5.106   4.071  0.1844  0.0426 -0.2311
 2151TIP3    H127944   0.240   5.116   4.134 -0.2373  0.6312  0.1606
 2151TIP3    H227945   0.152   5.012   4.068  0.3202 -0.0072  0.4252
 2152TIP3   OH227946   5.594   2.637  15.495 -0.8376  0.1623 -0.2349
 2152TIP3    H127947   5.501   2.632  15.517 -0.9122  0.2397 -0.5265
 2152TIP3    H227948   5.603   2.578  15.419 -0.8794  1.0698 -0.9574
 2153TIP3   OH227949   1.859   1.234  11.706 -0.2479 -0.2018  0.3207
 2153TIP3    H127950   1.845   1.196  11.619 -0.6297 -0.8431  0.6559
 2153TIP3    H227951   1.938   1.191  11.738 -0.6418 -0.6676  0.6741
 2154TIP3   OH227952   3.730   3.336   5.779 -0.5167  0.7169  0.5247
 2154TIP3    H127953   3.639   3.355   5.756  0.5590  2.5067 -2.5587
 2154TIP3    H227954   3.739   3.242   5.762 -1.9717  0.3635  1.5986
 2155TIP3   OH227955   0.157   6.348   2.969  0.1718 -0.2841  0.2114
 2155TIP3    H127956   0.063   6.331   2.961  0.2797  0.0073 -1.9120
 2155TIP3    H227957   0.163   6.434   3.010 -0.4800 -0.5441  0.8568
 2156TIP3   OH227958   2.062   3.469   6.062 -0.8585 -0.0504  0.3935
 2156TIP3    H127959   1.986   3.435   6.110  0.3137 -0.9396  1.6663
 2156TIP3    H227960   2.126   3.489   6.130 -0.0063  0.8720 -0.6543
 2157TIP3   OH227961   2.871   4.259  16.877 -0.6528  0.5317 -0.0733
 2157TIP3    H127962   2.925   4.180  16.884 -0.2229  0.8066 -0.2994
 2157TIP3    H227963   2.813   4.241  16.803 -1.1328  0.0791  0.4151
 2158TIP3   OH227964   1.943   5.997   3.307  0.1705  0.1544 -0.0541
 2158TIP3    H127965   1.861   5.958   3.279 -0.2121  0.1768  0.9939
 2158TIP3    H227966   1.934   6.090   3.286  0.4731 -0.0736 -1.1749
 2159TIP3   OH227967   5.251   4.701   0.288  0.1774  0.0542  0.1543
 2159TIP3    H127968   5.159   4.726   0.299  0.0217  0.3548 -1.6659
 2159TIP3    H227969   5.272   4.727   0.198  1.7629 -0.9268  0.2302
 2160TIP3   OH227970   3.061   6.554   2.142 -0.1324  0.3727  0.1757
 2160TIP3    H127971   3.098   6.499   2.072  0.1289 -0.5696  1.0480
 2160TIP3    H227972   3.121   6.628   2.148 -1.3340  1.6098 -2.0945
 2161TIP3   OH227973   1.640   5.891  15.368  0.5923  0.3026 -0.4656
 2161TIP3    H127974   1.558   5.893  15.416  1.5323  2.1158  1.1273
 2161TIP3    H227975   1.707   5.882  15.435  1.8336  1.0532 -1.5762
 2162TIP3   OH227976   5.207   0.564  13.402  0.5872  0.4275 -0.2511
 2162TIP3    H127977   5.222   0.648  13.359 -1.0296  1.5771  1.3550
 2162TIP3    H227978   5.221   0.582  13.495 -0.8587 -0.7903  0.2273
 2163TIP3   OH227979   0.922   0.678  15.327 -0.2507 -0.6570 -0.2106
 2163TIP3    H127980   0.898   0.763  15.289  0.1650  0.6908  2.4759
 2163TIP3    H227981   0.840   0.627  15.325 -1.2776  0.9121  1.0740
 2164TIP3   OH227982   0.920   1.096   6.073  0.0988  0.1675 -0.1912
 2164TIP3    H127983   0.846   1.036   6.071 -0.9907  1.4807 -0.2227
 2164TIP3    H227984   0.935   1.119   5.981 -1.0545  1.8007  0.0131
 2165TIP3   OH227985   4.472   5.319   3.250 -0.2705 -0.2873 -0.3478
 2165TIP3    H127986   4.540   5.302   3.185 -0.8185 -0.0926 -0.9754
 2165TIP3    H227987   4.413   5.244   3.243  0.8598 -1.3713  1.4773
 2166TIP3   OH227988   1.234   5.931  13.634 -0.6070 -0.1833 -0.0357
 2166TIP3    H127989   1.259   6.002  13.694 -0.1022 -0.0100 -0.4475
 2166TIP3    H227990   1.218   5.976  13.550 -1.4136 -0.4079 -0.0106
 2167TIP3   OH227991   2.751   3.414   3.488  0.0033  0.4772  0.4365
 2167TIP3    H127992   2.814   3.438   3.555  2.0424  0.7756 -1.5212
 2167TIP3    H227993   2.786   3.333   3.450  0.0588  1.4441 -1.6695
 2168TIP3   OH227994   4.393   2.544   2.638  0.0361  0.2210 -0.0853
 2168TIP3    H127995   4.420   2.622   2.589  1.8747 -0.3528 -0.0416
 2168TIP3    H227996   4.474   2.514   2.681 -0.9931 -0.7966  1.1718
 2169TIP3   OH227997   6.316   5.648   4.079 -0.0888  0.3813 -0.3073
 2169TIP3    H127998   6.284   5.643   3.989  2.7906 -0.4183 -1.3345
 2169TIP3    H227999   6.292   5.564   4.118 -0.3468  0.2905 -0.6587
 2170TIP3   OH228000   4.992   6.122  14.046 -0.1323  0.1413 -0.0534
 2170TIP3    H128001   4.923   6.074  14.000 -0.7806 -1.1470  2.2323
 2170TIP3    H228002   5.063   6.058  14.054 -0.4582 -0.0083  1.7395
 2171TIP3   OH228003   3.639   3.529   4.487 -0.2279  0.7521 -0.4794
 2171TIP3    H128004   3.655   3.581   4.565  0.9834 -2.0062  1.1697
 2171TIP3    H228005   3.543   3.530   4.477 -0.4945  0.2177  1.7046
 2172TIP3   OH228006   1.842   2.912   1.067  0.2229 -0.4161  0.1538
 2172TIP3    H128007   1.816   3.004   1.067 -0.3042 -0.5567  1.9746
 2172TIP3    H228008   1.784   2.871   1.002  0.8009  0.6005 -1.0376
 2173TIP3   OH228009   1.375   1.957  17.242 -0.2725  0.3646 -0.2337
 2173TIP3    H128010   1.287   1.964  17.279 -0.5797  0.0912 -0.9052
 2173TIP3    H228011   1.394   2.045  17.211  0.0410  0.6288  0.6856
 2174TIP3   OH228012   3.943   4.537   2.669  0.2185 -0.1087  0.1505
 2174TIP3    H128013   3.956   4.502   2.581 -1.5351  2.3545 -1.1220
 2174TIP3    H228014   4.003   4.611   2.675  0.6008 -0.4917  1.1742
 2175TIP3   OH228015   1.168   0.872   4.096 -0.1091 -0.5206  0.4812
 2175TIP3    H128016   1.143   0.889   4.005  0.5022  0.2131  0.4409
 2175TIP3    H228017   1.251   0.919   4.107 -0.4804 -0.1083  1.5829
 2176TIP3   OH228018   3.716   3.849  16.143  0.1225 -0.2535 -0.1449
 2176TIP3    H128019   3.763   3.797  16.077  0.1973 -0.9303  0.4369
 2176TIP3    H228020   3.720   3.795  16.222  0.4053  0.7528  0.5295
 2177TIP3   OH228021   2.522   3.569  12.485  0.5090  0.1789  0.1956
 2177TIP3    H128022   2.523   3.623  12.406 -0.6982  0.3154  0.2534
 2177TIP3    H228023   2.544   3.629  12.556  0.9711  0.1932  0.0424
 2178TIP3   OH228024   4.987   4.985   5.801 -0.3506  0.2436 -0.5462
 2178TIP3    H128025   5.076   4.951   5.789 -0.3426 -0.2955  0.9732
 2178TIP3    H228026   4.991   5.035   5.882 -1.2478  0.8981 -0.8957
 2179TIP3   OH228027   5.938   0.643   2.722  0.0795 -0.5002 -0.0748
 2179TIP3    H128028   6.005   0.703   2.754 -2.2365  1.5226  1.1783
 2179TIP3    H228029   5.950   0.564   2.774  1.3553 -0.0857  0.2764
 2180TIP3   OH228030   0.728   2.505  13.781  0.1083 -0.2181  0.1101
 2180TIP3    H128031   0.773   2.588  13.790  0.7161 -0.5511  0.1594
 2180TIP3    H228032   0.782   2.455  13.719  1.1071 -1.5090  1.9816
 2181TIP3   OH228033   0.445   2.583   3.704  0.3412 -0.1996  0.3085
 2181TIP3    H128034   0.400   2.665   3.682  1.4800  0.8656  1.8632
 2181TIP3    H228035   0.520   2.581   3.645 -0.2567 -0.6474 -0.4441
 2182TIP3   OH228036   1.573   0.046  17.247  0.1251  0.1562  0.0369
 2182TIP3    H128037   1.527   0.078  17.170  0.0774  0.9891  0.4105
 2182TIP3    H228038   1.618   0.123  17.282  1.1001 -0.4674  0.1654
 2183TIP3   OH228039   3.671   5.357   3.317  0.1089  0.0447  0.3601
 2183TIP3    H128040   3.580   5.333   3.335 -0.1584  1.3879  0.8733
 2183TIP3    H228041   3.680   5.349   3.222 -0.6968  0.3991  0.2496
 2184TIP3   OH228042   5.464   5.524   5.119  0.3997 -0.1176  0.4849
 2184TIP3    H128043   5.372   5.551   5.114  0.3687 -0.0475  1.2831
 2184TIP3    H228044   5.462   5.440   5.164  0.7468  0.0313  0.7875
 2185TIP3   OH228045   3.375   1.192   2.428  0.0079 -0.3525  0.3885
 2185TIP3    H128046   3.412   1.210   2.342  2.4035 -0.5853  1.3220
 2185TIP3    H228047   3.367   1.278   2.470 -1.2039 -0.2345 -0.0665
 2186TIP3   OH228048   4.466   2.436  11.946  0.2534 -0.1653  0.0497
 2186TIP3    H128049   4.402   2.409  12.012 -0.3923 -0.6879 -0.7758
 2186TIP3    H228050   4.414   2.445  11.866  0.7007  2.1736 -0.0073
 2187TIP3   OH228051   2.462   6.432   5.695  0.1346 -0.2568 -0.0666
 2187TIP3    H128052   2.426   6.432   5.784 -1.3675  3.6771 -0.5687
 2187TIP3    H228053   2.388   6.414   5.639  0.2003  1.4716 -0.7371
 2188TIP3   OH228054   4.812   3.697   4.176 -0.4220 -0.2292 -0.1968
 2188TIP3    H128055   4.745   3.661   4.233 -0.5435  0.6290  0.2039
 2188TIP3    H228056   4.764   3.729   4.099 -0.2552 -1.4129 -0.8083
 2189TIP3   OH228057   6.355   2.793  15.357 -0.0038  0.0030  0.0719
 2189TIP3    H128058   6.321   2.705  15.341 -0.7499  0.1769  0.7226
 2189TIP3    H228059   6.352   2.804  15.452 -1.1393  1.2273 -0.0938
 2190TIP3   OH228060   0.233   4.315  15.074 -0.6833  0.4087 -0.1861
 2190TIP3    H128061   0.315   4.313  15.124 -0.3233 -0.0460 -0.7889
 2190TIP3    H228062   0.255   4.364  14.995 -1.3345  1.3997  0.2467
 2191TIP3   OH228063   5.414   5.670  16.857 -0.4329  0.1893  0.5336
 2191TIP3    H128064   5.482   5.623  16.905 -0.7093 -2.2792 -1.3506
 2191TIP3    H228065   5.332   5.641  16.897 -0.6437 -1.5802 -1.1029
 2192TIP3   OH228066   4.132   6.805   5.267 -0.9835  0.0896  0.1020
 2192TIP3    H128067   4.148   6.734   5.331 -1.5696 -0.2033 -0.0750
 2192TIP3    H228068   4.145   6.763   5.182  3.1587  1.2819  0.0505
 2193TIP3   OH228069   0.954   5.426   1.138 -0.6695 -0.8523  0.1583
 2193TIP3    H128070   0.910   5.510   1.125  1.4189  0.1433 -0.7419
 2193TIP3    H228071   0.979   5.397   1.050 -0.2255 -1.7635  0.5706
 2194TIP3   OH228072   0.069   5.216   3.451 -0.2160 -0.2498  0.0263
 2194TIP3    H128073   0.141   5.278   3.445 -0.5605  0.1428 -0.0357
 2194TIP3    H228074   0.112   5.131   3.459  0.2544 -0.1278 -1.0590
 2195TIP3   OH228075   0.298   0.389   5.906 -0.2397 -0.2650 -0.3222
 2195TIP3    H128076   0.224   0.332   5.888  0.3591 -0.8091 -1.0556
 2195TIP3    H228077   0.353   0.383   5.828  0.4951  0.2625  0.1495
 2196TIP3   OH228078   0.796   6.516  14.984  0.4991 -0.3754 -0.6416
 2196TIP3    H128079   0.756   6.572  15.051  3.2165  1.1374 -0.2469
 2196TIP3    H228080   0.803   6.430  15.026  2.4092  0.6135  1.1519
 2197TIP3   OH228081   1.046   2.480  13.898 -0.4256  0.2249 -0.5233
 2197TIP3    H128082   1.117   2.418  13.877 -1.8672 -0.9223 -2.1631
 2197TIP3    H228083   1.059   2.552  13.836 -0.2577  0.3744 -0.3165
 2198TIP3   OH228084   0.869   2.387   4.066 -0.1175  0.5171  0.1412
 2198TIP3    H128085   0.869   2.302   4.110 -0.9988  0.8764  0.8532
 2198TIP3    H228086   0.790   2.431   4.098 -0.0015  1.3598 -0.6985
 2199TIP3   OH228087   0.111   3.964   3.868  0.0382 -0.3669 -0.1466
 2199TIP3    H128088   0.151   3.924   3.946  0.4869  0.6053  0.1241
 2199TIP3    H228089   0.105   3.892   3.805  0.8623 -0.8596  0.3334
 2200TIP3   OH228090   3.618   5.358   4.027  0.6593 -0.4509  0.2629
 2200TIP3    H128091   3.664   5.402   3.956  1.2182 -1.3129  0.0880
 2200TIP3    H228092   3.634   5.413   4.104  3.0014 -1.3676  0.4607
 2201TIP3   OH228093   3.312   4.858  11.649  0.0177 -0.1352 -0.4096
 2201TIP3    H128094   3.237   4.811  11.685  0.4878 -0.5517  0.0542
 2201TIP3    H228095   3.361   4.887  11.727  0.0659  0.5745 -0.7007
 2202TIP3   OH228096   5.216   2.781   1.209 -0.4809  0.2101 -0.7462
 2202TIP3    H128097   5.225   2.734   1.292 -1.2359 -1.6953 -1.7101
 2202TIP3    H228098   5.303   2.776   1.169 -0.7503 -1.0628 -1.1911
 2203TIP3   OH228099   2.889   6.255   5.682  0.4558  0.1934 -0.2185
 2203TIP3    H128100   2.825   6.302   5.735  1.6558  0.3278  1.1388
 2203TIP3    H228101   2.912   6.179   5.734  0.3991 -0.5848 -1.3084
 2204TIP3   OH228102   0.126   2.201   5.591 -0.2022 -0.5302 -0.2097
 2204TIP3    H128103   0.148   2.272   5.651 -0.2004 -1.2574  0.6652
 2204TIP3    H228104   0.209   2.156   5.576 -0.4177 -1.0859  0.2278
 2205TIP3   OH228105   3.948   5.235  14.509 -0.4308  0.4652  0.3338
 2205TIP3    H128106   3.943   5.252  14.603 -1.7329  1.6030  0.0719
 2205TIP3    H228107   4.028   5.184  14.498 -0.4259  0.0600  2.0978
 2206TIP3   OH228108   4.245   5.485   0.559 -0.2631  0.3358 -0.4761
 2206TIP3    H128109   4.337   5.486   0.534 -0.3989 -1.7765 -1.1598
 2206TIP3    H228110   4.244   5.445   0.645 -0.5325  0.4533 -0.4252
 2207TIP3   OH228111   5.016   5.100   6.051 -0.1954  0.2499 -0.6236
 2207TIP3    H128112   4.981   5.167   6.110 -0.0093  2.5700 -3.0472
 2207TIP3    H228113   5.106   5.086   6.080 -0.7817 -0.2772  0.9943
 2208TIP3   OH228114   2.555   3.319   4.218 -0.1576 -0.7527  0.6908
 2208TIP3    H128115   2.554   3.228   4.250 -0.8861 -1.8185 -2.1503
 2208TIP3    H228116   2.596   3.313   4.132 -3.9089  0.9056 -1.3428
 2209TIP3   OH228117   1.320   5.023   5.590  0.0834  0.4381 -0.4673
 2209TIP3    H128118   1.313   5.109   5.632 -0.2108  1.3259 -2.2801
 2209TIP3    H228119   1.260   5.028   5.515 -2.9355 -2.6956  1.5582
 2210TIP3   OH228120   6.040   4.065  12.264 -0.3674 -0.1021  0.5287
 2210TIP3    H128121   6.133   4.050  12.283 -0.3685 -0.1487  0.4985
 2210TIP3    H228122   6.032   4.160  12.255 -0.3336 -0.0933  0.5912
 2211TIP3   OH228123   2.599   3.621   2.205 -0.9844  0.8524  0.0915
 2211TIP3    H128124   2.695   3.620   2.199 -1.0675 -3.0478 -3.2613
 2211TIP3    H228125   2.570   3.632   2.114 -3.6454 -1.2900  0.6080
 2212TIP3   OH228126   2.246   2.859  13.369  0.4411  0.3172 -0.2725
 2212TIP3    H128127   2.219   2.779  13.323  2.9291 -0.1487 -0.9922
 2212TIP3    H228128   2.232   2.839  13.461  0.7467 -0.8641 -0.4635
 2213TIP3   OH228129   2.870   2.482  15.769 -0.0342 -0.2700  0.0326
 2213TIP3    H128130   2.874   2.576  15.785  2.0308  0.0262 -1.8572
 2213TIP3    H228131   2.839   2.444  15.851 -2.6156  2.1919  0.2304
 2214TIP3   OH228132   6.331   2.978   5.176  0.0350  0.1541 -0.2241
 2214TIP3    H128133   6.320   3.073   5.184 -2.8375 -0.1855  0.3512
 2214TIP3    H228134   6.408   2.967   5.120  0.3761  2.8223 -0.3267
 2215TIP3   OH228135   3.438   2.539  16.441 -0.2898  0.2941  0.5643
 2215TIP3    H128136   3.417   2.566  16.531  0.8913  1.7728  0.4208
 2215TIP3    H228137   3.509   2.476  16.452 -0.1967  0.4170  0.6793
 2216TIP3   OH228138   2.893   3.487   1.959 -0.3101 -0.1729 -0.0984
 2216TIP3    H128139   2.872   3.420   2.023  0.1494  0.7080  1.0044
 2216TIP3    H228140   2.847   3.461   1.879 -0.4032 -1.5958  0.4194
 2217TIP3   OH228141   2.682   0.629   5.901  0.6820 -0.6064 -0.4200
 2217TIP3    H128142   2.744   0.694   5.934  0.0956 -0.6000  0.7091
 2217TIP3    H228143   2.647   0.668   5.821  0.2642  0.5353  0.2999
 2218TIP3   OH228144   4.103   4.119  11.807  0.7045 -0.2447 -0.5912
 2218TIP3    H128145   4.069   4.033  11.833 -2.4740  0.8416 -0.9884
 2218TIP3    H228146   4.171   4.099  11.742  1.1298 -2.4975  0.4817
 2219TIP3   OH228147   0.205   5.796  15.150 -0.5632 -0.6408 -0.6157
 2219TIP3    H128148   0.217   5.720  15.092 -1.7967 -1.5112  0.2491
 2219TIP3    H228149   0.294   5.829  15.163 -0.0461 -1.6930 -1.3400
 2220TIP3   OH228150   1.597   3.049   4.672 -0.2883  0.3804 -0.5094
 2220TIP3    H128151   1.593   2.954   4.658  0.5023  0.3226 -0.3570
 2220TIP3    H228152   1.668   3.079   4.616  0.6239  0.6270  0.7716
 2221TIP3   OH228153   6.711   5.090   2.137 -0.6213 -0.0377 -0.0272
 2221TIP3    H128154   6.713   5.057   2.047  0.8633 -0.3958  0.1189
 2221TIP3    H228155   6.679   5.180   2.129  0.9260  0.4486 -1.1065
 2222TIP3   OH228156   1.662   5.409   4.022  0.0384 -0.5424 -0.0854
 2222TIP3    H128157   1.659   5.367   3.936 -2.0653 -0.1721 -0.2179
 2222TIP3    H228158   1.751   5.441   4.030  0.1999 -0.3961 -2.2279
 2223TIP3   OH228159   4.382   6.009   0.235 -0.3365  0.1206 -0.3629
 2223TIP3    H128160   4.292   5.981   0.251  0.2240 -2.2911 -1.2321
 2223TIP3    H228161   4.374   6.102   0.215 -2.5681  0.0715  0.1029
 2224TIP3   OH228162   5.381   3.247   5.879  0.0004  0.1434 -0.0989
 2224TIP3    H128163   5.410   3.163   5.845  1.1665  0.6817 -0.4458
 2224TIP3    H228164   5.327   3.225   5.955  1.1393 -0.8679  0.4259
 2225TIP3   OH228165   1.361   6.387  16.564  0.2501 -0.2998 -0.2812
 2225TIP3    H128166   1.282   6.432  16.591  0.8054 -1.0102  2.6392
 2225TIP3    H228167   1.334   6.334  16.489 -1.8330  0.0774  0.1844
 2226TIP3   OH228168   4.162   5.184   4.398  0.5037 -0.2474 -0.4250
 2226TIP3    H128169   4.241   5.225   4.361 -0.3094 -0.8327 -2.8870
 2226TIP3    H228170   4.136   5.119   4.333 -0.6258 -1.7891  1.5051
 2227TIP3   OH228171   3.851   6.543  16.124  0.3392 -1.0200 -0.5608
 2227TIP3    H128172   3.866   6.515  16.033  0.1543  0.3551 -1.0245
 2227TIP3    H228173   3.841   6.461  16.173  1.7510 -1.8144 -1.5514
 2228TIP3   OH228174   2.383   2.834   0.162 -0.2604 -1.1414 -0.0727
 2228TIP3    H128175   2.440   2.878   0.225 -2.6505 -0.2262  1.4840
 2228TIP3    H228176   2.364   2.749   0.202 -3.3563  0.1965  1.4146
 2229TIP3   OH228177   1.292   1.317   5.163  0.0322  0.3741 -0.2790
 2229TIP3    H128178   1.379   1.358   5.152 -0.4084  1.2881 -0.4458
 2229TIP3    H228179   1.304   1.227   5.134  0.4452  1.0380 -2.2332
 2230TIP3   OH228180   1.622   4.621  16.402  0.0037 -0.0953  0.3653
 2230TIP3    H128181   1.697   4.681  16.390 -0.2204 -0.0033 -0.6339
 2230TIP3    H228182   1.600   4.629  16.494  1.1125  0.0250  0.6313
 2231TIP3   OH228183   3.185   6.541  15.238  0.1794  0.4829  0.4244
 2231TIP3    H128184   3.200   6.545  15.332  0.8972  1.2640  0.2810
 2231TIP3    H228185   3.256   6.484  15.205 -0.0228  0.2748  0.3448
 2232TIP3   OH228186   0.554   1.248  13.239  0.5553  0.0183  0.1227
 2232TIP3    H128187   0.519   1.314  13.179  1.6350  0.4438 -0.0528
 2232TIP3    H228188   0.642   1.279  13.259  1.4270 -1.8491 -0.6920
 2233TIP3   OH228189   1.001   6.118  10.632  0.0333 -0.6360  0.0223
 2233TIP3    H128190   0.907   6.118  10.612 -0.0658 -2.2990  0.3880
 2233TIP3    H228191   1.026   6.026  10.626  2.1541  0.0510 -2.4141
 2234TIP3   OH228192   4.955   5.675  15.014  0.2376 -0.8158  0.0062
 2234TIP3    H128193   5.025   5.611  15.002  0.4269 -0.4024 -1.1703
 2234TIP3    H228194   4.991   5.757  14.981 -1.7003 -1.1654 -3.2487
 2235TIP3   OH228195   4.532   4.276   1.566 -0.3610  0.1733 -0.2800
 2235TIP3    H128196   4.478   4.349   1.595  0.2724  0.9492 -1.0435
 2235TIP3    H228197   4.603   4.273   1.631 -0.3703  0.2580 -0.2652
 2236TIP3   OH228198   3.035   5.770   1.924 -0.0755  0.0272  0.1686
 2236TIP3    H128199   3.049   5.676   1.913  1.3730  0.5583 -2.9819
 2236TIP3    H228200   3.112   5.801   1.971  0.4444 -0.0234 -0.6528
 2237TIP3   OH228201   5.106   1.787   0.159  0.1339  0.4215 -0.1053
 2237TIP3    H128202   5.192   1.820   0.135  0.3661 -1.9620 -2.8365
 2237TIP3    H228203   5.103   1.698   0.123 -2.1892 -0.8380  2.9122
 2238TIP3   OH228204   0.115   4.677   3.110 -0.0982 -0.7383 -0.0218
 2238TIP3    H128205   0.143   4.768   3.104 -0.2705 -0.7490 -1.0307
 2238TIP3    H228206   0.039   4.679   3.168  0.6948 -0.4288  1.0311
 2239TIP3   OH228207   1.359   3.663   3.327  0.0608 -0.0091  0.0453
 2239TIP3    H128208   1.267   3.671   3.351 -0.2460  1.2791 -1.4875
 2239TIP3    H228209   1.404   3.728   3.381 -0.1270  0.3273 -0.2011
 2240TIP3   OH228210   1.443   4.799   5.518 -0.1178  0.4417 -0.1956
 2240TIP3    H128211   1.412   4.742   5.588 -0.1466 -0.2231 -0.7480
 2240TIP3    H228212   1.391   4.879   5.527  0.9819  0.9991  1.5363
 2241TIP3   OH228213   5.690   2.922  15.811  0.6910 -0.4497  0.3363
 2241TIP3    H128214   5.626   2.854  15.827 -0.5217  0.6499  0.2437
 2241TIP3    H228215   5.719   2.949  15.899 -2.5422  2.3610  0.6492
 2242TIP3   OH228216   4.296   6.184   1.717  0.1249  0.6915  0.0869
 2242TIP3    H128217   4.342   6.217   1.794  0.7237  0.8732 -0.3486
 2242TIP3    H228218   4.337   6.099   1.699  0.1675  0.7700 -0.1918
 2243TIP3   OH228219   6.808   5.077   0.654 -0.6549 -0.4016  0.6791
 2243TIP3    H128220   6.784   5.054   0.564  3.3413 -1.0410 -0.3142
 2243TIP3    H228221   6.870   5.150   0.644 -1.1096  0.3437  3.0030
 2244TIP3   OH228222   0.861   6.425  12.971 -0.1231  0.1829 -0.2421
 2244TIP3    H128223   0.943   6.394  12.932  0.6540  0.1392  1.3797
 2244TIP3    H228224   0.882   6.439  13.063 -2.3679 -1.3050  0.5282
 2245TIP3   OH228225   3.327   6.314   1.677 -0.0674  0.1519  0.2990
 2245TIP3    H128226   3.313   6.227   1.714  0.4696 -0.3795 -0.7431
 2245TIP3    H228227   3.251   6.329   1.620  0.7115 -0.3685 -0.8919
 2246TIP3   OH228228   1.687   3.295  17.220 -0.0882 -0.4206 -0.7193
 2246TIP3    H128229   1.714   3.386  17.225  0.9589 -0.7338 -0.6507
 2246TIP3    H228230   1.768   3.245  17.210 -0.7024 -1.2899 -1.5299
 2247TIP3   OH228231   6.397   6.556  10.476 -0.1183  0.1868 -0.5302
 2247TIP3    H128232   6.442   6.486  10.429 -1.6098 -0.0622 -1.5897
 2247TIP3    H228233   6.335   6.593  10.413 -1.9290  0.0546  1.1142
 2248TIP3   OH228234   5.130   1.226  14.575  0.1231  0.3057  0.1877
 2248TIP3    H128235   5.119   1.186  14.661  0.7013 -0.5386 -0.1241
 2248TIP3    H228236   5.183   1.304  14.591  1.4351 -0.6086  0.4209
 2249TIP3   OH228237   6.713   1.156  16.232 -0.1944  0.1880 -0.2869
 2249TIP3    H128238   6.793   1.171  16.284  0.3567 -1.5118 -0.6057
 2249TIP3    H228239   6.643   1.156  16.297  0.2572  0.0520  0.2087
 2250TIP3   OH228240   1.284   2.530   1.000 -0.3987  0.2528  0.0727
 2250TIP3    H128241   1.223   2.473   0.954  0.6888 -0.0714 -0.9903
 2250TIP3    H228242   1.368   2.517   0.955 -0.0654  2.4663  0.0010
 2251TIP3   OH228243   5.992   4.492   0.634 -0.2680 -0.1435 -0.1621
 2251TIP3    H128244   6.084   4.506   0.615 -0.2802  0.4034  0.1786
 2251TIP3    H228245   5.956   4.455   0.553  0.1324  0.1459 -0.4705
 2252TIP3   OH228246   1.817   2.338   2.161 -0.1343 -0.4341 -0.1062
 2252TIP3    H128247   1.899   2.387   2.167 -0.9975  1.0821 -0.3430
 2252TIP3    H228248   1.777   2.347   2.247 -0.8300  0.2634 -0.4897
 2253TIP3   OH228249   2.029   2.912   4.593  0.2028 -1.2101  0.2307
 2253TIP3    H128250   2.051   2.851   4.523  1.8535  0.9367 -1.1895
 2253TIP3    H228251   1.959   2.967   4.557  0.4747 -0.6282  0.5771
 2254TIP3   OH228252   5.993   2.963   4.119  0.5232  0.0551  0.5483
 2254TIP3    H128253   5.900   2.940   4.122  0.5614 -0.5586 -1.7276
 2254TIP3    H228254   5.996   3.058   4.131 -0.6647  0.4807 -2.1392
 2255TIP3   OH228255   3.741   3.435   3.298  0.3542  0.1311 -0.5545
 2255TIP3    H128256   3.748   3.478   3.383 -0.4054 -0.5712 -0.1330
 2255TIP3    H228257   3.821   3.460   3.252  0.4481  1.0734  0.1022
 2256TIP3   OH228258   2.399   5.483  16.013 -0.0858  0.1948  0.2082
 2256TIP3    H128259   2.419   5.513  15.925  0.6065 -1.3094 -0.1691
 2256TIP3    H228260   2.447   5.543  16.071  2.8111 -1.2419 -0.5781
 2257TIP3   OH228261   1.253   2.460   0.164 -0.4437  0.0317 -0.6258
 2257TIP3    H128262   1.182   2.402   0.136  1.2607 -1.9236 -1.0797
 2257TIP3    H228263   1.266   2.438   0.257  0.6077 -0.7652 -0.9566
 2258TIP3   OH228264   4.773   6.496  11.014 -0.1674  0.2887 -0.3231
 2258TIP3    H128265   4.869   6.496  11.016 -0.1201  1.1992 -1.8280
 2258TIP3    H228266   4.751   6.545  10.935 -1.8794 -0.3627 -0.2626
 2259TIP3   OH228267   1.484   4.471   6.351  0.1669 -0.2975  0.0424
 2259TIP3    H128268   1.398   4.513   6.347  0.0694 -0.4682  0.3571
 2259TIP3    H228269   1.510   4.461   6.259 -0.1163 -0.1834 -0.0505
 2260TIP3   OH228270   1.348   1.675  17.102  0.0671  0.6330  0.0639
 2260TIP3    H128271   1.262   1.684  17.144 -1.1057 -0.3517 -2.0139
 2260TIP3    H228272   1.362   1.758  17.056 -0.9370 -0.0870 -1.6022
 2261TIP3   OH228273   6.421   5.308   4.123  0.1097  0.4904  0.5930
 2261TIP3    H128274   6.344   5.334   4.172 -1.0575 -1.7168  0.0223
 2261TIP3    H228275   6.494   5.317   4.184 -0.8316  0.9926  1.6479
 2262TIP3   OH228276   1.526   4.805  11.863 -0.0017  0.1236 -0.0537
 2262TIP3    H128277   1.576   4.762  11.794 -1.3373  0.3686 -1.2027
 2262TIP3    H228278   1.435   4.783  11.843 -0.3501 -0.5926  2.1846
 2263TIP3   OH228279   0.588   3.662  14.965  0.1544  0.3492  0.0898
 2263TIP3    H128280   0.572   3.745  15.009  0.6956  0.7980 -0.5490
 2263TIP3    H228281   0.616   3.602  15.034  2.7967  1.5262  0.0863
 2264TIP3   OH228282   1.608   0.794   0.292  0.2913  0.1406  0.1351
 2264TIP3    H128283   1.579   0.704   0.275 -1.7960  1.1005 -1.5736
 2264TIP3    H228284   1.574   0.845   0.219  1.4530  2.3502  1.0803
 2265TIP3   OH228285   6.656   5.958   4.548  0.1848  0.1104 -0.5443
 2265TIP3    H128286   6.729   6.007   4.511  0.1220  1.5469  1.1401
 2265TIP3    H228287   6.696   5.898   4.610 -0.0030  0.3998 -0.1409
 2266TIP3   OH228288   2.128   3.042  11.249 -0.1975  0.0210  0.8607
 2266TIP3    H128289   2.100   3.131  11.231 -0.7405 -0.0720  1.2301
 2266TIP3    H228290   2.208   3.031  11.198  0.0036  0.7949  1.0019
 2267TIP3   OH228291   2.257   0.433  16.077  0.1718 -0.0223 -0.0178
 2267TIP3    H128292   2.281   0.376  16.004  2.0549  1.0581 -0.2804
 2267TIP3    H228293   2.201   0.379  16.133  1.3207 -1.8802 -0.6252
 2268TIP3   OH228294   0.239   3.580   0.984  0.4706  0.3855  0.0759
 2268TIP3    H128295   0.324   3.574   1.027  0.3182 -0.0101  0.3266
 2268TIP3    H228296   0.179   3.533   1.042  0.2571 -0.1149 -0.5344
 2269TIP3   OH228297   1.913   1.365   2.432  0.0461  0.0093 -0.1226
 2269TIP3    H128298   1.902   1.457   2.458  1.5241  0.1165  0.1240
 2269TIP3    H228299   1.823   1.333   2.421 -0.4814  1.8806 -1.6101
 2270TIP3   OH228300   0.362   4.141   2.151 -0.4783  0.4734  0.5253
 2270TIP3    H128301   0.338   4.075   2.216 -1.2770  1.1412  0.9169
 2270TIP3    H228302   0.297   4.211   2.163 -1.2072  0.1925 -1.5919
 2271TIP3   OH228303   6.059   1.054  12.956 -0.0782 -0.1921  0.0924
 2271TIP3    H128304   5.992   1.040  13.023 -0.5968  3.2508  0.3921
 2271TIP3    H228305   6.125   0.987  12.974 -2.0189 -1.7762  1.6203
 2272TIP3   OH228306   4.437   6.258   0.111  0.0462 -0.3148 -0.4049
 2272TIP3    H128307   4.360   6.314   0.111  0.5131  0.3466  1.0029
 2272TIP3    H228308   4.487   6.284   0.189  0.9224 -1.7813 -0.4396
 2273TIP3   OH228309   0.162   3.320  11.310  0.2540  0.0379  0.1939
 2273TIP3    H128310   0.163   3.407  11.269  0.0994  0.2254  0.5913
 2273TIP3    H228311   0.089   3.324  11.372 -0.6684 -0.8425 -0.8234
 2274TIP3   OH228312   1.899   2.545  14.642  0.4737  0.3322  0.7981
 2274TIP3    H128313   1.821   2.527  14.590 -1.2979 -0.4444  3.6655
 2274TIP3    H228314   1.904   2.640  14.646 -0.4077  0.3763  0.7827
 2275TIP3   OH228315   1.695   2.644  15.648 -0.1830 -0.5919 -0.1125
 2275TIP3    H128316   1.616   2.599  15.675 -1.0863  0.5242 -0.8335
 2275TIP3    H228317   1.765   2.579  15.655 -1.7342 -2.6387 -2.8859
 2276TIP3   OH228318   1.784   5.086   4.484 -0.4125  0.2727 -0.4698
 2276TIP3    H128319   1.816   5.059   4.398 -0.2236  0.1012 -0.3475
 2276TIP3    H228320   1.719   5.020   4.507 -0.5527  0.3868 -0.5337
 2277TIP3   OH228321   1.670   1.766   2.781 -0.1893 -0.6035 -0.3108
 2277TIP3    H128322   1.650   1.855   2.811  1.7228 -0.8149  1.6607
 2277TIP3    H228323   1.589   1.737   2.739 -0.8795  2.0247 -0.9149
 2278TIP3   OH228324   5.586   0.046   5.121 -0.1921  0.5823  0.5031
 2278TIP3    H128325   5.576   0.080   5.033  1.6017  0.7499  0.3356
 2278TIP3    H228326   5.509  -0.009   5.135 -0.2588  0.1632 -1.3471
 2279TIP3   OH228327   3.418   3.865  11.879  0.5295  0.2137  0.6258
 2279TIP3    H128328   3.385   3.953  11.857 -0.1480 -0.3179 -0.4947
 2279TIP3    H228329   3.368   3.806  11.822  0.3917 -0.9791  1.9696
 2280TIP3   OH228330   6.140   6.549  12.971  0.0128  0.1078  0.1290
 2280TIP3    H128331   6.062   6.496  12.953  0.3681 -0.4532  0.2351
 2280TIP3    H228332   6.159   6.532  13.064  0.0282  0.5514  0.2062
 2281TIP3   OH228333   1.594   3.937  10.806 -0.0992  0.1577  0.5282
 2281TIP3    H128334   1.682   3.899  10.798 -0.6090 -0.5366 -2.1128
 2281TIP3    H228335   1.539   3.880  10.753 -1.6567  2.2080 -0.0834
 2282TIP3   OH228336   4.922   3.715   2.645 -0.6140 -0.6971  0.2850
 2282TIP3    H128337   4.988   3.779   2.672 -1.4979  0.5282 -0.3815
 2282TIP3    H228338   4.913   3.729   2.550 -1.9402 -0.7306  0.3992
 2283TIP3   OH228339   2.873   6.768  12.577 -0.3650  0.0139 -0.5035
 2283TIP3    H128340   2.891   6.694  12.636  0.1245 -0.0730 -0.7592
 2283TIP3    H228341   2.785   6.797  12.601  0.3564  0.8434  1.2122
 2284TIP3   OH228342   0.842   2.509  16.009 -0.1931  0.2050 -0.0115
 2284TIP3    H128343   0.868   2.576  16.072  0.6475 -0.2274  0.1132
 2284TIP3    H228344   0.765   2.467  16.048  0.0296  0.2652  0.5009
 2285TIP3   OH228345   2.045   5.094  15.194 -0.0414  0.1280 -0.0429
 2285TIP3    H128346   2.015   5.143  15.271 -0.0755  0.5915 -0.3434
 2285TIP3    H228347   1.965   5.058  15.156 -0.1781  1.0311 -0.6214
 2286TIP3   OH228348   1.293   1.346  16.664 -0.3511 -0.2032 -0.4795
 2286TIP3    H128349   1.289   1.312  16.575  0.6440 -0.2699 -0.5063
 2286TIP3    H228350   1.363   1.411  16.662  0.0296 -0.5797  0.3777
 2287TIP3   OH228351   2.891   6.501  15.657  0.1022 -0.3012  0.1909
 2287TIP3    H128352   2.861   6.567  15.719 -0.1419  1.1241 -1.4192
 2287TIP3    H228353   2.981   6.482  15.686 -0.5990 -0.9863  2.0385
 2288TIP3   OH228354   6.262   5.682   5.646  0.4227 -0.4496  0.3753
 2288TIP3    H128355   6.170   5.656   5.636  0.3834  0.3447 -1.4286
 2288TIP3    H228356   6.261   5.777   5.644  1.1594 -0.4043  1.6436
 2289TIP3   OH228357   4.466   2.472   1.803 -0.3055  0.2489 -0.5047
 2289TIP3    H128358   4.548   2.493   1.848 -0.4757  0.6071 -0.3619
 2289TIP3    H228359   4.418   2.417   1.864 -0.7258  1.0929 -0.0660
 2290TIP3   OH228360   1.345   3.760  15.510 -0.2412  0.8127  0.2846
 2290TIP3    H128361   1.439   3.779  15.508 -0.4244  1.7427  0.4271
 2290TIP3    H228362   1.314   3.800  15.591 -0.7287  0.3432  0.3319
 2291TIP3   OH228363   4.636   1.931   2.252 -0.0909  0.1973  0.0810
 2291TIP3    H128364   4.643   1.843   2.289 -0.6987 -0.8367 -2.1637
 2291TIP3    H228365   4.583   1.980   2.315  0.1676 -1.0584  1.3013
 2292TIP3   OH228366   6.029   0.773  11.893  0.1048 -0.5681 -0.1973
 2292TIP3    H128367   6.064   0.695  11.936 -1.6225 -1.4592 -0.3508
 2292TIP3    H228368   6.094   0.841  11.908  1.1477 -1.7812  0.8213
 2293TIP3   OH228369   5.873   1.278  16.031 -0.2281 -0.5088  0.1810
 2293TIP3    H128370   5.954   1.330  16.032  2.2676 -4.1344 -1.1559
 2293TIP3    H228371   5.889   1.208  16.095 -2.9555 -0.4483  0.9947
 2294TIP3   OH228372   1.419   0.090   0.671  0.1481 -0.4545  0.2164
 2294TIP3    H128373   1.505   0.080   0.630  0.3062  2.9811 -0.4452
 2294TIP3    H228374   1.361   0.033   0.621  1.5739 -0.9959 -0.8435
 2295TIP3   OH228375   5.174   4.127  14.609 -0.0954 -0.7177 -0.6752
 2295TIP3    H128376   5.138   4.110  14.696 -1.5087 -0.0536 -1.1111
 2295TIP3    H228377   5.268   4.134  14.623 -0.2951 -0.7458  0.7806
 2296TIP3   OH228378   6.343   3.205  15.306  0.2779 -0.3909  0.0439
 2296TIP3    H128379   6.396   3.174  15.232 -0.8552 -0.4639 -0.7510
 2296TIP3    H228380   6.313   3.292  15.278  0.6921  0.0194  0.8600
 2297TIP3   OH228381   0.209   0.931   4.230  0.1732 -0.2758  1.1299
 2297TIP3    H128382   0.161   0.856   4.266 -1.2336  0.3498  0.5817
 2297TIP3    H228383   0.240   0.979   4.307 -1.8818  0.4509  1.5393
 2298TIP3   OH228384   2.103   0.200   0.912  0.0891 -0.2684  0.2600
 2298TIP3    H128385   2.040   0.140   0.872 -0.1250 -0.4786  0.9060
 2298TIP3    H228386   2.179   0.197   0.854  0.2195 -1.4422  0.4758
 2299TIP3   OH228387   5.767   4.402  15.964  0.0135  0.0191  0.2505
 2299TIP3    H128388   5.784   4.492  15.989  0.2999 -0.0150  0.1804
 2299TIP3    H228389   5.797   4.350  16.039  2.0794 -0.1645 -0.6839
 2300TIP3   OH228390   2.438   2.500   3.067  0.0210  0.6691  0.3673
 2300TIP3    H128391   2.406   2.551   2.992  1.1938 -0.1026 -0.6742
 2300TIP3    H228392   2.381   2.526   3.139 -1.6444  0.8233 -0.9787
 2301TIP3   OH228393   5.501   4.863   2.751 -0.1972  0.1498  0.0975
 2301TIP3    H128394   5.501   4.932   2.684 -1.5382 -0.0268 -0.1005
 2301TIP3    H228395   5.423   4.811   2.731 -1.0554  0.5601  2.2654
 2302TIP3   OH228396   3.445   0.743  15.478  0.3074 -0.0009  0.0335
 2302TIP3    H128397   3.365   0.690  15.482  0.2553  0.1828  2.1404
 2302TIP3    H228398   3.439   0.801  15.554  1.8264  0.9370 -0.5353
 2303TIP3   OH228399   2.135   1.205  14.615  0.2472  0.3120  0.4995
 2303TIP3    H128400   2.087   1.133  14.574 -0.0061  0.4684  0.5237
 2303TIP3    H228401   2.081   1.282  14.601  1.0619  0.7169 -0.5390
 2304TIP3   OH228402   6.533   5.705  12.051  0.0538  0.2818 -0.6447
 2304TIP3    H128403   6.566   5.765  12.117  1.5290 -1.0312 -0.1510
 2304TIP3    H228404   6.456   5.664  12.091  0.4788  0.0710 -0.0509
 2305TIP3   OH228405   4.359   4.825  15.495  0.1234  0.7707 -0.0723
 2305TIP3    H128406   4.312   4.811  15.577 -0.7591  1.2097 -0.4899
 2305TIP3    H228407   4.379   4.918  15.495 -0.1795  0.8364 -0.5104
 2306TIP3   OH228408   0.986   4.968   2.187 -0.3768  0.0290  0.7906
 2306TIP3    H128409   0.938   5.022   2.124 -0.3346  0.5378  1.1840
 2306TIP3    H228410   1.021   4.895   2.136  0.2675  0.8188  0.0879
 2307TIP3   OH228411   2.103   0.872  17.042 -0.0159  0.7006  0.2513
 2307TIP3    H128412   2.048   0.944  17.073 -0.2193  0.7165 -0.1423
 2307TIP3    H228413   2.167   0.914  16.986 -0.7944  0.4516 -0.8461
 2308TIP3   OH228414   0.834   2.597  11.409  0.0095  0.4993 -0.6439
 2308TIP3    H128415   0.871   2.683  11.387 -1.2341  1.5687  1.1949
 2308TIP3    H228416   0.792   2.567  11.329  0.4117  1.6645 -1.3015
 2309TIP3   OH228417   1.014   2.941  12.285 -0.2019  0.1825 -0.4878
 2309TIP3    H128418   0.927   2.960  12.250  0.0949  0.4282 -1.0886
 2309TIP3    H228419   1.009   2.850  12.315 -0.6184  0.1509 -0.6520
 2310TIP3   OH228420   1.213   1.740  15.220  0.7051  0.0608  0.2273
 2310TIP3    H128421   1.197   1.780  15.305 -1.6590  0.7337 -0.4911
 2310TIP3    H228422   1.272   1.801  15.175  0.0571  0.8867  0.5005
 2311TIP3   OH228423   1.403   2.909  11.204  0.3374 -0.0688 -0.0166
 2311TIP3    H128424   1.457   2.861  11.267 -0.0239 -2.2137 -1.2855
 2311TIP3    H228425   1.418   2.864  11.121 -1.3151  1.0154 -0.9294
 2312TIP3   OH228426   1.671   6.190  13.854 -0.2603 -0.2367 -0.1522
 2312TIP3    H128427   1.642   6.264  13.800  1.2160  1.6444  1.5678
 2312TIP3    H228428   1.740   6.226  13.909 -0.3728 -2.6129  1.6181
 2313TIP3   OH228429   2.427   3.326   1.373  0.0162  0.1303  0.3061
 2313TIP3    H128430   2.514   3.364   1.371  0.1048 -0.0922 -0.0435
 2313TIP3    H228431   2.372   3.395   1.411  0.3677  0.2109  0.6773
 2314TIP3   OH228432   1.273   6.064  17.046  0.5992  0.1745 -0.7993
 2314TIP3    H128433   1.247   6.124  17.115  0.0747 -0.9508  0.0035
 2314TIP3    H228434   1.258   6.112  16.964 -0.0624  1.0200 -0.1856
 2315TIP3   OH228435   0.624   2.284   5.940  0.0161 -0.5052 -0.6518
 2315TIP3    H128436   0.599   2.237   6.019  2.8835  0.6069  0.9564
 2315TIP3    H228437   0.668   2.218   5.886  0.4228 -0.6385 -0.1625
 2316TIP3   OH228438   6.334   5.178  12.597  0.5552  0.2034 -0.0342
 2316TIP3    H128439   6.371   5.261  12.567 -1.3153  1.6928  1.6971
 2316TIP3    H228440   6.260   5.203  12.652 -0.3871 -2.6352  0.0445
 2317TIP3   OH228441   4.351   4.874   2.702 -0.4099  0.1031  0.2179
 2317TIP3    H128442   4.403   4.872   2.621 -0.1660 -0.5948  0.3912
 2317TIP3    H228443   4.416   4.864   2.772 -0.2431  3.8524  0.6800
 2318TIP3   OH228444   5.770   5.886   2.417  0.2960 -0.4313  0.5595
 2318TIP3    H128445   5.847   5.900   2.472  0.5608 -0.6132  0.2417
 2318TIP3    H228446   5.730   5.973   2.408  0.2672 -0.3994  1.0145
 2319TIP3   OH228447   2.875   0.831   0.895 -0.7725 -0.1072  0.1685
 2319TIP3    H128448   2.912   0.766   0.955  0.5474  1.4812  1.1140
 2319TIP3    H228449   2.808   0.783   0.846  1.2231 -2.5507 -0.2447
 2320TIP3   OH228450   1.555   6.640   4.624  0.3941  0.3319 -0.0424
 2320TIP3    H128451   1.560   6.545   4.631 -0.6696  0.1229 -1.8490
 2320TIP3    H228452   1.595   6.660   4.539 -1.5010  1.2592 -0.7498
 2321TIP3   OH228453   5.093   4.573  17.140  0.0657  0.6340  0.1006
 2321TIP3    H128454   5.127   4.536  17.059 -1.4462 -1.0914  0.2131
 2321TIP3    H228455   5.049   4.654  17.114  0.0236  0.3443 -0.7240
 2322TIP3   OH228456   3.455   2.772  12.426 -0.0500 -0.3470 -1.2321
 2322TIP3    H128457   3.485   2.847  12.374  0.4602 -0.5075 -1.1634
 2322TIP3    H228458   3.373   2.803  12.466  0.3589  0.3146 -0.8859
 2323TIP3   OH228459   5.469   0.446  15.518  0.9876  0.4176  0.1093
 2323TIP3    H128460   5.551   0.459  15.565  0.3622 -0.3802  1.4272
 2323TIP3    H228461   5.437   0.535  15.501  1.3160  0.7178  1.0304
 2324TIP3   OH228462   2.321   1.320  15.738 -0.0292  0.0046 -0.0813
 2324TIP3    H128463   2.381   1.334  15.665  1.0480  0.9991  0.9665
 2324TIP3    H228464   2.239   1.360  15.710 -0.1802 -1.2009 -1.4561
 2325TIP3   OH228465   2.037   1.417   3.140  0.5958 -0.1575  0.0704
 2325TIP3    H128466   2.066   1.468   3.064 -0.6389  1.1066  0.4063
 2325TIP3    H228467   2.037   1.326   3.110 -0.7121  0.3994 -1.7464
 2326TIP3   OH228468   0.767   1.344   0.260 -0.4048  0.1456 -0.3711
 2326TIP3    H128469   0.672   1.354   0.256 -0.4351  1.0730  2.1231
 2326TIP3    H228470   0.789   1.352   0.353  2.1964  0.7237 -0.9862
 2327TIP3   OH228471   5.232   6.333  13.925 -0.0967  0.8612  0.0570
 2327TIP3    H128472   5.294   6.366  13.860  0.1141 -0.4277 -0.4217
 2327TIP3    H228473   5.225   6.403  13.990  2.5651  0.6762  0.5897
 2328TIP3   OH228474   4.925   1.781   0.602 -0.0249  0.2843  0.3994
 2328TIP3    H128475   4.894   1.823   0.682  1.2288 -0.2137  1.1573
 2328TIP3    H228476   4.848   1.779   0.545 -0.6462  1.6323  1.1696
 2329TIP3   OH228477   2.127   5.929   0.696 -0.0258  0.1826  0.1163
 2329TIP3    H128478   2.087   5.977   0.623 -0.0842  0.1451  0.1235
 2329TIP3    H228479   2.097   5.839   0.685 -2.0951  0.6563  1.6125
 2330TIP3   OH228480   4.566   3.455  14.841 -0.5813 -0.3098  0.0286
 2330TIP3    H128481   4.539   3.509  14.767  0.7155 -0.8600 -0.8626
 2330TIP3    H228482   4.574   3.367  14.806  1.3606 -0.3379  0.4929
 2331TIP3   OH228483   2.239   1.714  12.598 -0.6844  0.5221  0.3044
 2331TIP3    H128484   2.181   1.683  12.667  1.3351 -1.6736  1.0815
 2331TIP3    H228485   2.267   1.801  12.626  0.2790 -0.4351  2.4127
 2332TIP3   OH228486   2.304   6.050  13.469 -0.2138 -0.1176  0.7284
 2332TIP3    H128487   2.256   6.124  13.431 -1.0332 -0.4512  1.0924
 2332TIP3    H228488   2.253   5.973  13.445  1.0938 -0.6600 -0.3532
 2333TIP3   OH228489   6.000   3.505  14.177 -0.0923 -0.0270 -0.3972
 2333TIP3    H128490   5.945   3.504  14.255 -0.1828 -0.0489 -0.4616
 2333TIP3    H228491   6.013   3.598  14.157  0.0476 -0.0196 -0.2727
 2334TIP3   OH228492   5.012   6.128  16.367 -0.3083  0.2755  0.1178
 2334TIP3    H128493   4.982   6.177  16.290  1.3646 -2.6683 -2.4869
 2334TIP3    H228494   5.107   6.130  16.361 -0.1856 -1.5567  1.1145
 2335TIP3   OH228495   3.690   6.591   4.154 -0.0209 -0.2349 -0.1509
 2335TIP3    H128496   3.621   6.560   4.213 -0.9601 -1.2552 -1.7326
 2335TIP3    H228497   3.733   6.511   4.123  1.5776  0.3729  0.4444
 2336TIP3   OH228498   4.023   3.332  11.486 -0.0857  0.2337 -0.5096
 2336TIP3    H128499   4.020   3.295  11.574  1.2714 -0.8836 -0.9110
 2336TIP3    H228500   4.069   3.266  11.434  0.7160  1.6657 -1.6531
 2337TIP3   OH228501   0.790   6.767   2.354 -0.7501 -0.1381 -0.0438
 2337TIP3    H128502   0.731   6.717   2.298  2.5359 -2.4365 -1.5803
 2337TIP3    H228503   0.820   6.705   2.420  1.3101  0.4673 -0.3649
 2338TIP3   OH228504   6.445   5.992  17.245 -0.1580  0.2146  0.0284
 2338TIP3    H128505   6.534   5.970  17.273  0.7119  2.5435 -0.8287
 2338TIP3    H228506   6.434   5.944  17.162  0.0295 -0.5985  0.4642
 2339TIP3   OH228507   1.074   0.573  15.084 -0.2334 -0.1303  0.1156
 2339TIP3    H128508   1.014   0.587  15.158  0.0232 -1.4604  0.5860
 2339TIP3    H228509   1.034   0.621  15.012 -1.0472  0.3053  0.8419
 2340TIP3   OH228510   3.987   1.878   0.716 -0.3015 -0.2735 -0.2755
 2340TIP3    H128511   3.900   1.838   0.710 -0.7682  0.6237  0.4231
 2340TIP3    H228512   4.044   1.816   0.672 -1.4433 -0.4245 -1.5885
 2341TIP3   OH228513   4.256   4.108  15.260  0.0246  0.0216  0.0348
 2341TIP3    H128514   4.220   4.063  15.336 -0.6647  1.1449  0.3875
 2341TIP3    H228515   4.221   4.061  15.185 -1.0436  0.2360  0.3995
 2342TIP3   OH228516   4.476   2.886  14.564  0.4679  0.2481 -0.2177
 2342TIP3    H128517   4.549   2.941  14.532 -0.1250  0.6300 -0.9392
 2342TIP3    H228518   4.415   2.883  14.490  0.0321 -0.5726  0.1730
 2343TIP3   OH228519   5.874   1.735  17.062  0.0378 -0.5730 -0.0070
 2343TIP3    H128520   5.824   1.679  17.120 -2.4759  3.2082  1.6604
 2343TIP3    H228521   5.817   1.750  16.987  0.2765  0.5244  0.0140
 2344TIP3   OH228522   2.212   6.558   3.763  0.1701  0.7316 -0.3431
 2344TIP3    H128523   2.218   6.487   3.699  1.0057  0.6828 -0.2143
 2344TIP3    H228524   2.206   6.637   3.710  0.8897  0.6931 -0.4831
 2345TIP3   OH228525   0.900   5.858  12.064 -0.9480  0.0360  0.2639
 2345TIP3    H128526   0.883   5.914  11.989  0.7132  0.9110  0.5043
 2345TIP3    H228527   0.995   5.845  12.063 -0.9629 -0.3405  1.9287
 2346TIP3   OH228528   3.638   1.130   3.606  0.5642 -0.3442 -0.1113
 2346TIP3    H128529   3.599   1.106   3.522  0.3486  0.2391 -0.1779
 2346TIP3    H228530   3.700   1.059   3.624 -2.1046 -2.5042  1.0948
 2347TIP3   OH228531   4.923   3.679  15.377 -0.7453 -0.9908 -0.1168
 2347TIP3    H128532   4.949   3.744  15.443  0.8378  0.3615 -2.0151
 2347TIP3    H228533   4.852   3.721  15.329 -0.3382 -1.0255 -0.7535
 2348TIP3   OH228534   4.534   2.482  14.990 -0.0075  0.2303 -0.0859
 2348TIP3    H128535   4.523   2.541  14.915 -0.3117  0.0355 -0.1952
 2348TIP3    H228536   4.445   2.455  15.013 -0.0183  1.1812  1.0631
 2349TIP3   OH228537   4.621   2.686   2.204  0.3264 -0.7356  0.2011
 2349TIP3    H128538   4.536   2.697   2.247  0.1238  0.9898 -0.6129
 2349TIP3    H228539   4.685   2.710   2.271 -0.0220  3.0444 -0.6912
 2350TIP3   OH228540   1.048   1.230  15.784 -0.3589 -0.1262  0.1089
 2350TIP3    H128541   0.994   1.154  15.803  0.6235 -1.1436 -1.0896
 2350TIP3    H228542   1.137   1.196  15.780  0.3998  1.4986  1.9516
 2351TIP3   OH228543   2.037   1.621  15.520 -0.1909 -0.1560  0.0349
 2351TIP3    H128544   2.051   1.530  15.545  0.4069  0.1161  0.6865
 2351TIP3    H228545   2.106   1.640  15.456 -0.0010 -0.0008  0.2876
 2352TIP3   OH228546   2.454   0.629  11.142 -0.0271  0.3480 -0.3703
 2352TIP3    H128547   2.379   0.570  11.136  1.3296 -1.3894 -0.5938
 2352TIP3    H228548   2.449   0.683  11.063  0.0741 -1.0773 -1.3475
 2353TIP3   OH228549   1.523   1.433   5.764  0.5681 -0.9440 -1.2948
 2353TIP3    H128550   1.480   1.485   5.696 -1.2739  0.9129  1.2196
 2353TIP3    H228551   1.475   1.350   5.765  0.0577 -0.6541 -1.6792
 2354TIP3   OH228552   6.087   4.732   5.636 -0.0411  0.3415  0.3652
 2354TIP3    H128553   6.083   4.705   5.544 -0.1995  0.6891  0.2728
 2354TIP3    H228554   6.055   4.655   5.684 -0.4828  0.3537  0.0990
 2355TIP3   OH228555   5.170   5.329   3.114 -0.4434  0.7489  0.0091
 2355TIP3    H128556   5.123   5.307   3.033  1.7921 -2.5205 -0.4911
 2355TIP3    H228557   5.234   5.395   3.086 -2.0932  2.3746 -0.0706
 2356TIP3   OH228558   2.776   1.618   1.237 -0.2175 -0.0643 -0.5639
 2356TIP3    H128559   2.779   1.704   1.195  3.7164  1.8032  3.1757
 2356TIP3    H228560   2.853   1.572   1.203  0.2216 -0.3999  0.8792
 2357TIP3   OH228561   2.522   2.707  14.902  0.4026  0.6422  0.4731
 2357TIP3    H128562   2.597   2.735  14.954 -0.0871  1.6042  0.6633
 2357TIP3    H228563   2.552   2.626  14.859  1.6888  1.2550  0.2019
 2358TIP3   OH228564   4.021   0.521  15.311  0.5799  1.2115  0.2826
 2358TIP3    H128565   4.020   0.426  15.312  0.9667  1.1784  3.3209
 2358TIP3    H228566   3.972   0.547  15.389  0.1396  3.5188 -0.7008
 2359TIP3   OH228567   2.387   2.791   5.584 -0.0716  0.2601  0.2014
 2359TIP3    H128568   2.439   2.824   5.658  0.8707 -2.1697  0.6648
 2359TIP3    H228569   2.432   2.826   5.507  0.6767  0.3718  0.6802
 2360TIP3   OH228570   5.658   6.584   0.604 -0.0003  0.3257  0.4659
 2360TIP3    H128571   5.744   6.597   0.645 -0.2230  2.5122  0.3067
 2360TIP3    H228572   5.623   6.672   0.594 -2.5065 -0.5862  0.9823
 2361TIP3   OH228573   0.827   4.896  16.579 -0.5876  0.1980 -0.1258
 2361TIP3    H128574   0.911   4.936  16.600 -1.4914  2.7005 -1.0113
 2361TIP3    H228575   0.817   4.825  16.642  2.6143 -0.7722 -0.6435
 2362TIP3   OH228576   6.344   1.536   2.477  0.2252  0.0345  0.4596
 2362TIP3    H128577   6.311   1.626   2.479  1.5393  0.5479 -0.3689
 2362TIP3    H228578   6.392   1.527   2.560 -0.8927 -0.3068  1.0873
 2363TIP3   OH228579   4.315   4.894  14.959 -0.0494  0.3160  0.5054
 2363TIP3    H128580   4.293   4.815  14.910  1.9770  0.2507 -0.3316
 2363TIP3    H228581   4.332   4.863  15.048  1.2540 -0.2631  0.0563
 2364TIP3   OH228582   0.540   4.490   4.493  0.1438 -0.0010 -0.2998
 2364TIP3    H128583   0.569   4.553   4.426 -2.7182  0.2326 -1.4058
 2364TIP3    H228584   0.618   4.439   4.514  1.3679  0.6795 -2.9974
 2365TIP3   OH228585   6.709   4.105   1.565  0.0190  0.1399  0.2151
 2365TIP3    H128586   6.782   4.063   1.610 -0.0876  0.3245  0.5644
 2365TIP3    H228587   6.650   4.033   1.541 -0.1672  0.0850  0.8182
 2366TIP3   OH228588   4.943   3.321  12.822  0.3997  0.2733  0.4259
 2366TIP3    H128589   4.964   3.240  12.776 -0.8383  0.4081 -0.3775
 2366TIP3    H228590   4.871   3.297  12.881  1.0397  0.4351  1.2828
 2367TIP3   OH228591   2.301   6.182  16.975 -0.1270  0.5571 -0.4007
 2367TIP3    H128592   2.334   6.270  16.993 -0.0817  0.6976 -1.1505
 2367TIP3    H228593   2.378   6.132  16.949 -0.3299  0.5965 -1.0835
 2368TIP3   OH228594   6.499   5.515  16.989 -0.3015  0.5353  0.2231
 2368TIP3    H128595   6.415   5.501  16.946 -0.7572 -0.0083  1.2712
 2368TIP3    H228596   6.511   5.437  17.044  1.5511 -0.0763 -0.9812
 2369TIP3   OH228597   6.134   1.453   2.170  0.4106 -0.0321 -0.7025
 2369TIP3    H128598   6.048   1.465   2.211 -0.0655 -1.9452 -1.1246
 2369TIP3    H228599   6.154   1.360   2.182  1.4913 -0.0348 -2.4196
 2370TIP3   OH228600   5.178   0.089  17.171 -0.3409 -0.5287 -0.1655
 2370TIP3    H128601   5.145   0.106  17.083  2.4445 -1.6397 -1.4929
 2370TIP3    H228602   5.180  -0.007  17.177  0.9999 -0.4716  0.4666
 2371TIP3   OH228603   6.764   1.990   6.513 -0.4884 -0.0062  0.4060
 2371TIP3    H128604   6.671   1.983   6.492 -0.0555  1.3164 -2.1584
 2371TIP3    H228605   6.803   1.912   6.475 -0.8220 -1.7401  3.4709
 2372TIP3   OH228606   5.289   3.712   2.075  0.1036 -0.0956 -0.5937
 2372TIP3    H128607   5.257   3.760   1.999 -0.2129 -0.0598 -0.4378
 2372TIP3    H228608   5.232   3.636   2.082 -0.1849  0.1631 -0.0966
 2373TIP3   OH228609   4.947   5.305  16.620 -0.3761 -0.0314  0.6311
 2373TIP3    H128610   4.951   5.212  16.643  0.6400 -0.0317  0.5147
 2373TIP3    H228611   4.969   5.307  16.526 -0.9997  0.2757  0.4895
 2374TIP3   OH228612   0.009   4.970  13.198 -0.3537  0.0968 -0.0234
 2374TIP3    H128613   0.105   4.967  13.195 -0.3263 -0.1085  0.7939
 2374TIP3    H228614  -0.016   4.882  13.225 -0.7682  0.2023 -0.0639
 2375TIP3   OH228615   3.762   6.334  12.302 -0.7439 -0.1255  0.3648
 2375TIP3    H128616   3.782   6.278  12.227 -0.8334  0.5998 -0.2099
 2375TIP3    H228617   3.670   6.319  12.320 -0.0834 -2.3708  2.0849
 2376TIP3   OH228618   2.363   0.457   2.061 -0.4093  0.7400  0.2102
 2376TIP3    H128619   2.321   0.397   1.999  0.7499  0.9321 -0.7734
 2376TIP3    H228620   2.320   0.541   2.046 -0.5688  0.6402  0.1053
 2377TIP3   OH228621   0.523   4.427  13.073 -0.4658  0.4495  0.5912
 2377TIP3    H128622   0.534   4.337  13.104  0.4016 -0.2005 -1.5377
 2377TIP3    H228623   0.544   4.481  13.149 -2.0677 -1.1408  2.2155
 2378TIP3   OH228624   1.425   2.829  15.460 -0.5466  1.0504 -0.0027
 2378TIP3    H128625   1.407   2.841  15.367 -3.3722  1.5030  0.5570
 2378TIP3    H228626   1.380   2.748  15.483 -1.1672  1.7446  1.2770
 2379TIP3   OH228627   5.495   3.777  12.903 -0.4067 -0.0534  0.4793
 2379TIP3    H128628   5.437   3.778  12.827 -1.2786 -0.8958  1.1241
 2379TIP3    H228629   5.505   3.685  12.925  2.3469 -0.0573 -0.4682
 2380TIP3   OH228630   1.727   1.379  15.326 -0.4482 -0.2762 -0.0012
 2380TIP3    H128631   1.754   1.381  15.418  1.6053 -0.0198 -0.5842
 2380TIP3    H228632   1.704   1.470  15.306  0.0520 -0.1409  0.0120
 2381TIP3   OH228633   1.931   6.462   5.924 -0.1616  0.3839 -0.1237
 2381TIP3    H128634   1.898   6.549   5.949 -1.2351 -0.2060  0.5506
 2381TIP3    H228635   1.872   6.435   5.853 -0.8452 -0.4750  0.7638
 2382TIP3   OH228636   5.304   2.926  15.434 -0.7145  0.1008  0.1973
 2382TIP3    H128637   5.399   2.920  15.440 -0.5761  0.2057 -1.6298
 2382TIP3    H228638   5.275   2.835  15.427 -0.7274  0.0889  0.3983
 2383TIP3   OH228639   6.195   6.016  11.807 -0.0794 -0.6373  0.3858
 2383TIP3    H128640   6.117   6.035  11.859 -0.6148  0.3181 -0.7522
 2383TIP3    H228641   6.268   6.042  11.863 -0.5293 -2.0266  1.6679
 2384TIP3   OH228642   6.321   0.889  11.958  0.3468 -0.4301 -0.2981
 2384TIP3    H128643   6.354   0.920  11.874  0.4131  1.1234  0.2814
 2384TIP3    H228644   6.264   0.959  11.989  3.0734  0.6624  2.5644
 2385TIP3   OH228645   0.969   2.711   3.199 -0.3454  0.2271 -0.4703
 2385TIP3    H128646   0.959   2.628   3.247 -2.1935  1.4575  1.3561
 2385TIP3    H228647   0.881   2.750   3.201  0.1254  1.4654 -2.7679
 2386TIP3   OH228648   3.810   6.572  16.988 -0.4565  0.0725 -0.0546
 2386TIP3    H128649   3.732   6.562  16.935 -0.7004 -0.1253  0.3350
 2386TIP3    H228650   3.844   6.659  16.967  1.4360 -1.3083 -3.2103
 2387TIP3   OH228651   3.954   2.191   3.524  0.5304  0.2846 -0.5635
 2387TIP3    H128652   3.898   2.257   3.482  0.1794  0.0123 -0.5291
 2387TIP3    H228653   3.894   2.118   3.543  0.7529  0.2887  0.1402
 2388TIP3   OH228654   5.067   2.336  16.591 -0.0108 -0.3438  0.2017
 2388TIP3    H128655   5.149   2.376  16.561 -1.1780  1.3191 -0.8492
 2388TIP3    H228656   5.025   2.305  16.512  0.2912 -2.5612  0.8961
 2389TIP3   OH228657   3.471   5.715  10.745  0.2885  0.0679  0.0418
 2389TIP3    H128658   3.520   5.693  10.666 -0.4857  0.9336 -0.6882
 2389TIP3    H228659   3.389   5.668  10.736  0.3848 -0.2049  0.5627
 2390TIP3   OH228660   4.842   1.590   5.507  0.2504  0.2086 -0.1348
 2390TIP3    H128661   4.842   1.591   5.603 -0.4801  1.0808 -0.1354
 2390TIP3    H228662   4.917   1.645   5.483  0.3664  0.0825 -0.0627
 2391TIP3   OH228663   5.977   2.643   4.312 -0.0332  0.3280  0.0553
 2391TIP3    H128664   5.898   2.694   4.332 -0.2825 -0.1224  0.2114
 2391TIP3    H228665   6.024   2.639   4.395 -0.3876 -0.3497  0.2262
 2392TIP3   OH228666   5.100   5.354   1.256 -0.1116  0.1145  0.0786
 2392TIP3    H128667   5.062   5.438   1.282 -0.9021 -0.7163  1.7002
 2392TIP3    H228668   5.131   5.368   1.167 -1.5084  1.7168 -0.1843
 2393TIP3   OH228669   5.913   3.886   4.152  0.1822  0.1538 -0.4642
 2393TIP3    H128670   5.850   3.834   4.201 -0.6908  0.2778 -1.4399
 2393TIP3    H228671   5.922   3.841   4.068  1.0335  0.4035 -0.5194
 2394TIP3   OH228672   3.409   5.859  16.292  0.1082 -0.7108  0.2132
 2394TIP3    H128673   3.446   5.899  16.371 -1.7233  1.0440  0.2363
 2394TIP3    H228674   3.481   5.856  16.230  0.9302  0.2220  1.1074
 2395TIP3   OH228675   5.286   5.404   1.532 -0.2221  0.3459 -0.5024
 2395TIP3    H128676   5.247   5.396   1.445  0.7971 -1.6629 -0.8215
 2395TIP3    H228677   5.366   5.454   1.518 -0.5551  0.8648 -0.5529
 2396TIP3   OH228678   4.113   0.950  14.391 -0.3360 -0.2386  0.1528
 2396TIP3    H128679   4.139   0.975  14.480  0.0954 -1.0840  0.2727
 2396TIP3    H228680   4.115   1.031  14.341 -0.1769  0.1707  0.8239
 2397TIP3   OH228681   6.537   4.897  16.690 -0.0415 -0.2999  0.0413
 2397TIP3    H128682   6.564   4.835  16.757 -0.4553 -2.3532 -1.6534
 2397TIP3    H228683   6.442   4.892  16.689 -0.1130  0.7828  0.2548
 2398TIP3   OH228684   1.044   4.392   2.846 -0.2723 -0.2567  0.2170
 2398TIP3    H128685   1.095   4.355   2.918  1.1045 -0.8860 -1.0374
 2398TIP3    H228686   1.018   4.478   2.877  2.7371  0.6509  0.4241
 2399TIP3   OH228687   5.837   2.487   1.492 -0.0855 -0.2155  0.1406
 2399TIP3    H128688   5.776   2.561   1.492  2.3495  1.9246  2.9188
 2399TIP3    H228689   5.782   2.410   1.476 -2.9723  1.9682 -0.8868
 2400TIP3   OH228690   3.859   6.239  14.447 -0.3860  0.4800 -0.1719
 2400TIP3    H128691   3.792   6.172  14.456 -0.4893  0.4937 -0.8649
 2400TIP3    H228692   3.826   6.298  14.379  1.1376 -0.4990 -1.7984
 2401TIP3   OH228693   6.213   4.108  11.824  0.3106 -0.0689  0.2489
 2401TIP3    H128694   6.124   4.131  11.852 -0.0307 -0.8268 -0.1932
 2401TIP3    H228695   6.253   4.069  11.902  0.3192  0.4579  0.5075
 2402TIP3   OH228696   3.978   3.033   3.688 -0.3258 -0.0339 -0.3260
 2402TIP3    H128697   3.896   3.065   3.651  1.3244  2.0769 -2.3066
 2402TIP3    H228698   3.995   2.951   3.642 -0.2487  0.6218 -1.4820
 2403TIP3   OH228699   6.318   6.276   5.473 -0.0521  0.0524 -0.1619
 2403TIP3    H128700   6.365   6.194   5.460 -1.5136 -0.9554  0.7609
 2403TIP3    H228701   6.384   6.337   5.506  0.4300 -1.6026  2.0419
 2404TIP3   OH228702   6.599   0.790   1.869 -0.4797  0.3366 -0.0415
 2404TIP3    H128703   6.634   0.876   1.893  1.0980 -0.1554 -0.4811
 2404TIP3    H228704   6.663   0.728   1.904 -0.3021 -0.5520 -1.8766
 2405TIP3   OH228705   3.427   5.123  15.746  0.2080  0.2686 -0.1936
 2405TIP3    H128706   3.424   5.153  15.655  0.8662 -0.1965 -0.3692
 2405TIP3    H228707   3.506   5.070  15.751 -0.4993 -0.7331  0.3420
 2406TIP3   OH228708   0.700   5.007  11.979  0.6604 -0.1786 -0.3756
 2406TIP3    H128709   0.667   5.082  11.929 -0.2899  0.6945  1.4915
 2406TIP3    H228710   0.784   5.037  12.013  2.2354 -1.4649 -2.9672
 2407TIP3   OH228711   0.220   3.573  14.955  0.0041 -0.4790  0.3101
 2407TIP3    H128712   0.141   3.523  14.937 -0.3569 -0.4348  1.7447
 2407TIP3    H228713   0.285   3.508  14.981 -0.1040 -0.3289  0.9603
 2408TIP3   OH228714   5.752   6.241  14.102  0.3799  0.4603 -0.1846
 2408TIP3    H128715   5.690   6.303  14.140 -1.7590 -0.1980 -2.4814
 2408TIP3    H228716   5.753   6.167  14.163  0.5277  1.3803  0.9341
 2409TIP3   OH228717   6.672   0.831  12.608  0.0392 -0.3300 -0.0086
 2409TIP3    H128718   6.758   0.790  12.606 -0.1007 -0.6109 -0.5454
 2409TIP3    H228719   6.655   0.856  12.517  0.1053  0.8951  0.2940
 2410TIP3   OH228720   5.367   6.107   5.564  0.1214  0.7038 -0.1059
 2410TIP3    H128721   5.355   6.200   5.585  0.9218  0.8238 -0.1550
 2410TIP3    H228722   5.285   6.066   5.592 -0.2032  1.4077  0.0051
 2411TIP3   OH228723   0.041   6.234   1.350  0.0334  0.3148 -0.2885
 2411TIP3    H128724   0.131   6.257   1.371  0.2555  0.1941 -1.0884
 2411TIP3    H228725   0.042   6.139   1.337 -0.5720  0.0441  1.4431
 2412TIP3   OH228726   2.025   4.427   0.445 -0.1431  0.8116  0.2142
 2412TIP3    H128727   1.978   4.447   0.525 -2.9005 -0.5054 -1.0030
 2412TIP3    H228728   2.116   4.413   0.473 -1.0408  0.4575  3.0756
 2413TIP3   OH228729   1.390   4.623  15.266 -0.3110 -0.2075 -0.3367
 2413TIP3    H128730   1.480   4.592  15.275 -0.3821 -0.5175 -0.6666
 2413TIP3    H228731   1.348   4.598  15.349  0.2780  1.2295  0.3957
 2414TIP3   OH228732   1.769   1.191  13.964 -0.2321 -0.2062 -0.4371
 2414TIP3    H128733   1.717   1.266  13.935 -1.1723 -0.4177  0.6685
 2414TIP3    H228734   1.741   1.177  14.054 -1.5503 -3.1628 -1.2613
 2415TIP3   OH228735   0.794   3.012   4.585  0.0796 -0.2941 -0.4044
 2415TIP3    H128736   0.734   3.085   4.570 -0.0272 -0.2321  0.3018
 2415TIP3    H228737   0.881   3.051   4.584  0.0587 -0.2533 -0.6203
 2416TIP3   OH228738   5.434   6.004   3.541 -0.4056 -0.1496  0.3538
 2416TIP3    H128739   5.453   5.966   3.626 -1.7421 -1.8332 -0.0779
 2416TIP3    H228740   5.347   6.043   3.551  0.2924  1.4882  0.3359
 2417TIP3   OH228741   0.425   3.305  10.602 -0.0530 -0.4430  0.1541
 2417TIP3    H128742   0.514   3.302  10.637  0.0578  1.0744  0.0427
 2417TIP3    H228743   0.389   3.218  10.619  1.4146 -1.0332  0.2975
 2418TIP3   OH228744   4.246   5.011   6.203 -0.8549  0.0207 -0.1147
 2418TIP3    H128745   4.177   5.054   6.254 -0.3697 -0.0289  0.5807
 2418TIP3    H228746   4.322   5.069   6.211 -0.0982 -1.1246  1.0944
 2419TIP3   OH228747   4.482   5.587   2.381 -0.1708  0.0401 -0.8376
 2419TIP3    H128748   4.525   5.600   2.465  0.3900  0.5088 -1.1909
 2419TIP3    H228749   4.549   5.609   2.316 -1.3596  2.2734 -1.3872
 2420TIP3   OH228750   5.997   4.009  15.994 -0.1190  0.3523  0.4234
 2420TIP3    H128751   6.063   3.949  15.959 -2.0839 -0.6182 -1.8345
 2420TIP3    H228752   5.918   3.955  16.000 -1.1007  1.8862  1.5326
 2421TIP3   OH228753   5.896   1.641  11.756  0.2840  0.1782 -0.4929
 2421TIP3    H128754   5.805   1.670  11.745  0.6294  1.7433  0.5384
 2421TIP3    H228755   5.889   1.551  11.786 -0.9823  0.6699  0.7454
 2422TIP3   OH228756   3.554   2.813   5.913  0.2244 -0.0677 -0.1225
 2422TIP3    H128757   3.474   2.837   5.958  1.0082  0.1742  1.1705
 2422TIP3    H228758   3.571   2.886   5.853 -1.1029 -0.6363 -1.2152
 2423TIP3   OH228759   0.644   3.765   6.498 -0.8104  0.3047  0.4837
 2423TIP3    H128760   0.566   3.748   6.446 -0.7102  0.2968  0.3375
 2423TIP3    H228761   0.611   3.778   6.587 -1.0212  0.7702  0.3387
 2424TIP3   OH228762   6.665   3.734  13.674 -0.3848 -0.1782  0.2126
 2424TIP3    H128763   6.619   3.775  13.746 -1.5134  1.1346 -1.2298
 2424TIP3    H228764   6.626   3.647  13.666 -2.4433  0.8202 -0.8180
 2425TIP3   OH228765   0.111   6.804   0.606 -0.0392  0.0811 -0.2682
 2425TIP3    H128766   0.191   6.854   0.591 -0.5623  0.0100 -3.5934
 2425TIP3    H228767   0.041   6.861   0.574 -0.9181 -1.5371 -1.2767
 2426TIP3   OH228768   2.212   3.681  13.151 -0.4112  0.4236 -0.3278
 2426TIP3    H128769   2.219   3.681  13.055  1.9730 -1.8487 -0.2288
 2426TIP3    H228770   2.285   3.735  13.180  1.0801 -1.8231  0.2405
 2427TIP3   OH228771   0.805   2.244  16.997  0.2214 -0.3498  0.1297
 2427TIP3    H128772   0.856   2.164  17.008 -2.7805 -2.2974  0.4582
 2427TIP3    H228773   0.820   2.294  17.077  1.2952 -1.0678  0.3864
 2428TIP3   OH228774   6.331   2.919  13.593 -0.3112 -0.0667  0.1805
 2428TIP3    H128775   6.268   2.914  13.521 -1.2393 -1.6794  1.0850
 2428TIP3    H228776   6.414   2.892  13.553 -0.5708  0.2398 -0.5799
 2429TIP3   OH228777   4.719   5.467  12.231  0.1173  0.2994 -0.4195
 2429TIP3    H128778   4.672   5.542  12.268 -1.5528 -1.0693  0.3489
 2429TIP3    H228779   4.685   5.392  12.280  3.0658 -0.7781  0.0815
 2430TIP3   OH228780   2.650   2.216  16.722 -0.1133 -0.3567  0.0295
 2430TIP3    H128781   2.645   2.266  16.640  1.7496 -1.0377 -0.5156
 2430TIP3    H228782   2.630   2.126  16.696  1.5306 -0.7572  0.1285
 2431TIP3   OH228783   2.181   5.659  17.186  0.2653  0.1962 -0.1031
 2431TIP3    H128784   2.170   5.568  17.212  0.8144 -0.1947 -1.1789
 2431TIP3    H228785   2.101   5.680  17.137 -0.0792  0.4565  0.5547
 2432TIP3   OH228786   3.579   3.497  16.295 -0.2662 -0.3866  0.3740
 2432TIP3    H128787   3.646   3.565  16.301  0.3080 -0.9041 -0.0614
 2432TIP3    H228788   3.625   3.417  16.322 -0.5262 -0.8644 -0.5776
 2433TIP3   OH228789   2.582   0.241  12.363  0.1756  0.3689  0.3671
 2433TIP3    H128790   2.668   0.281  12.379 -0.2446  1.5435 -0.2893
 2433TIP3    H228791   2.520   0.312  12.375 -0.5541 -0.0099 -1.1135
 2434TIP3   OH228792   4.902   1.265   3.747 -0.0435  0.0148  0.0207
 2434TIP3    H128793   4.918   1.348   3.703  1.3001 -1.1540 -1.7550
 2434TIP3    H228794   4.933   1.279   3.837  1.4371  1.0165 -0.6220
 2435TIP3   OH228795   6.346   6.233  13.829  0.2794  0.7180  0.0077
 2435TIP3    H128796   6.298   6.241  13.746 -0.5466 -0.7817  0.3226
 2435TIP3    H228797   6.423   6.179  13.807  0.0724  0.3384  0.2086
 2436TIP3   OH228798   3.429   4.085   1.188 -0.3680 -0.1998 -0.3189
 2436TIP3    H128799   3.467   4.168   1.162  0.2906 -0.1604  0.7297
 2436TIP3    H228800   3.502   4.023   1.187 -0.2443 -0.1318  1.6497
 2437TIP3   OH228801   0.163   5.442   4.142  0.2099 -0.5534 -0.0670
 2437TIP3    H128802   0.230   5.462   4.207 -2.4570 -0.7945  2.9178
 2437TIP3    H228803   0.179   5.351   4.118  1.4723 -0.3422 -0.0332
 2438TIP3   OH228804   2.178   3.627  12.346  0.0864  0.2482  1.0822
 2438TIP3    H128805   2.170   3.721  12.327 -2.1549  0.2074  1.7064
 2438TIP3    H228806   2.242   3.595  12.283 -2.4025  1.3530 -2.1272
 2439TIP3   OH228807   3.565   4.881   2.470  0.3132 -0.0494  0.3475
 2439TIP3    H128808   3.620   4.808   2.446  0.7273  0.3172  0.1846
 2439TIP3    H228809   3.525   4.910   2.388 -0.3641 -0.5032  0.5055
 2440TIP3   OH228810   2.909   2.143  14.527 -0.1225 -0.5582 -1.0077
 2440TIP3    H128811   2.958   2.065  14.503 -1.1042 -1.3680 -0.3991
 2440TIP3    H228812   2.872   2.123  14.612  0.6552  1.0602 -0.2690
 2441TIP3   OH228813   4.812   3.879  17.074  0.0740 -0.4236  0.2168
 2441TIP3    H128814   4.720   3.904  17.078 -0.0483 -0.4642 -1.6465
 2441TIP3    H228815   4.858   3.959  17.049  0.6759 -0.1752  2.0540
 2442TIP3   OH228816   5.364   3.552  12.020 -0.3586 -0.1919 -0.1644
 2442TIP3    H128817   5.422   3.626  12.002 -0.2641 -0.2850 -0.2414
 2442TIP3    H228818   5.322   3.575  12.103  0.3459 -0.4625  0.2727
 2443TIP3   OH228819   3.462   0.458   3.766 -0.3556 -0.5012 -0.2456
 2443TIP3    H128820   3.385   0.440   3.821 -0.7356 -1.4355 -1.0536
 2443TIP3    H228821   3.456   0.551   3.746 -1.8246 -0.7592 -1.0847
 2444TIP3   OH228822   6.362   6.336  12.945  0.1189  0.1979 -0.1226
 2444TIP3    H128823   6.328   6.424  12.931 -0.2394 -0.2245 -2.0478
 2444TIP3    H228824   6.294   6.279  12.909  0.1198 -0.8847  1.5676
 2445TIP3   OH228825   2.294   4.299   1.044  0.0703 -0.7911 -1.0496
 2445TIP3    H128826   2.269   4.377   0.994  0.3230 -0.6150 -0.9024
 2445TIP3    H228827   2.355   4.253   0.986  2.2114  0.6108  0.0196
 2446TIP3   OH228828   4.379   3.514  12.307  0.2727 -0.4236  0.6614
 2446TIP3    H128829   4.344   3.437  12.262  2.3074 -0.3398 -1.1866
 2446TIP3    H228830   4.390   3.579  12.238  2.5364  0.0625  1.4107
 2447TIP3   OH228831   1.478   2.792  14.362  0.5442  0.4311  0.2498
 2447TIP3    H128832   1.511   2.764  14.276 -1.3307 -0.5335 -0.1755
 2447TIP3    H228833   1.468   2.710  14.411 -0.8317  0.7380  0.5017
 2448TIP3   OH228834   4.536   1.040   3.318  0.3963 -0.5270  0.6891
 2448TIP3    H128835   4.632   1.042   3.325  0.3414  0.1664  1.3104
 2448TIP3    H228836   4.517   0.955   3.280  1.1847 -1.3267  2.0376
 2449TIP3   OH228837   5.329   6.352   0.216 -0.4242 -0.9858  0.0231
 2449TIP3    H128838   5.268   6.347   0.143 -0.5221 -0.7047  0.0845
 2449TIP3    H228839   5.281   6.313   0.289 -1.7037  1.9845  0.8453
 2450TIP3   OH228840   6.661   2.468   4.579 -0.2334  0.1894  0.0007
 2450TIP3    H128841   6.742   2.432   4.615  1.1848  2.6008 -0.6735
 2450TIP3    H228842   6.623   2.395   4.528  1.6606 -0.8699  0.0525
 2451TIP3   OH228843   6.688   6.016  11.219  0.4384  0.1314  0.2738
 2451TIP3    H128844   6.767   6.048  11.262 -0.1734  1.3261  0.5114
 2451TIP3    H228845   6.671   5.931  11.261  0.1837  1.0082  1.9815
 2452TIP3   OH228846   6.493   5.849  16.039 -0.3404  0.3158 -0.1599
 2452TIP3    H128847   6.497   5.871  16.132  0.6213 -0.3946 -0.0269
 2452TIP3    H228848   6.508   5.755  16.036  1.0488  0.5476 -1.1207
 2453TIP3   OH228849   4.343   4.662  16.788 -0.2036 -0.4514  0.1395
 2453TIP3    H128850   4.249   4.652  16.775 -0.1581  0.7723 -1.3324
 2453TIP3    H228851   4.374   4.700  16.706  0.8762  3.5268  2.2837
 2454TIP3   OH228852   0.929   0.531   5.411 -0.0931  1.0557 -0.4411
 2454TIP3    H128853   0.973   0.468   5.469  0.7166 -1.0288 -3.2379
 2454TIP3    H228854   0.989   0.605   5.406  0.7811  0.3632 -0.2631
 2455TIP3   OH228855   1.581   6.116  17.174 -0.6413  0.0961  0.1205
 2455TIP3    H128856   1.486   6.103  17.171 -0.6599 -0.4704  2.0600
 2455TIP3    H228857   1.595   6.202  17.136 -1.9741  0.2986  0.0682
 2456TIP3   OH228858   5.631   5.434  13.657  0.1063  0.3864  0.4526
 2456TIP3    H128859   5.610   5.352  13.701 -0.0897  0.4249  0.4315
 2456TIP3    H228860   5.629   5.413  13.564  2.4011 -0.1548  0.4964
 2457TIP3   OH228861   4.115   6.484   5.989  0.5446  0.2020 -0.5169
 2457TIP3    H128862   4.102   6.536   5.909  0.2208 -0.1042 -0.6662
 2457TIP3    H228863   4.189   6.525   6.033 -0.3828  1.4583 -0.1027
 2458TIP3   OH228864   3.842   5.454   0.258  0.3813  0.1655  0.5028
 2458TIP3    H128865   3.781   5.527   0.250  0.4618 -0.0188 -2.3976
 2458TIP3    H228866   3.855   5.443   0.352 -3.5555  0.6273  1.1801
 2459TIP3   OH228867   1.375   6.564  15.141 -0.3731 -0.6205  0.3566
 2459TIP3    H128868   1.351   6.503  15.072  1.6992  0.7596 -1.6314
 2459TIP3    H228869   1.304   6.629  15.142 -0.0412 -0.2175 -1.0351
 2460TIP3   OH228870   1.476   5.738  14.606 -0.0695  0.2244  0.5906
 2460TIP3    H128871   1.544   5.673  14.592 -0.0872  0.0575  1.2529
 2460TIP3    H228872   1.418   5.729  14.530  0.0362 -0.3951  0.5835
 2461TIP3   OH228873   0.725   3.649  14.615 -0.4236  0.5795  0.0389
 2461TIP3    H128874   0.789   3.639  14.686 -0.0795  0.7858 -0.2415
 2461TIP3    H228875   0.757   3.591  14.546 -0.7321  0.4149  0.0368
 2462TIP3   OH228876   4.561   0.155  16.553  0.0855 -0.3927  0.0653
 2462TIP3    H128877   4.571   0.247  16.530  0.7422 -0.1153  1.4220
 2462TIP3    H228878   4.617   0.108  16.491 -1.0642  0.0262 -1.3069
 2463TIP3   OH228879   6.605   2.827  14.409  0.0357  0.2354 -0.1359
 2463TIP3    H128880   6.699   2.831  14.392  0.2338 -0.9205  0.6886
 2463TIP3    H228881   6.592   2.746  14.458 -1.5719 -0.3163 -1.4059
 2464TIP3   OH228882   2.184   0.454   2.740  0.6386  0.0022 -0.4259
 2464TIP3    H128883   2.217   0.399   2.811  1.9617  0.4736 -0.6538
 2464TIP3    H228884   2.231   0.423   2.663 -0.4705 -0.2117 -1.0274
 2465TIP3   OH228885   3.484   4.502  13.357 -0.5330 -0.0381  0.3325
 2465TIP3    H128886   3.417   4.440  13.385 -1.3901  1.9093  2.8389
 2465TIP3    H228887   3.544   4.451  13.303 -1.8488 -2.7444  1.3642
 2466TIP3   OH228888   4.846   0.889  11.707  0.8938  0.1287  0.4370
 2466TIP3    H128889   4.791   0.949  11.657  1.1334  1.1012  1.3302
 2466TIP3    H228890   4.930   0.888  11.659  0.1959 -1.2234 -0.8228
 2467TIP3   OH228891   1.806   4.798   4.291 -0.3498 -0.4436  0.1306
 2467TIP3    H128892   1.900   4.779   4.292 -0.3849 -0.6220  1.7284
 2467TIP3    H228893   1.766   4.728   4.343 -1.1455  0.6167  0.9921
 2468TIP3   OH228894   6.006   5.442  13.474  0.3324  0.1088  0.0232
 2468TIP3    H128895   5.920   5.455  13.434 -0.3683  0.8199  1.7059
 2468TIP3    H228896   6.069   5.474  13.409 -0.6528 -0.5870 -1.2907
 2469TIP3   OH228897   4.788   5.338   1.851  0.0073 -0.1123  0.0590
 2469TIP3    H128898   4.849   5.270   1.823 -0.5738 -0.4353 -0.4254
 2469TIP3    H228899   4.817   5.359   1.940  0.2213 -0.9589  0.2030
 2470TIP3   OH228900   0.636   4.216   3.967  0.1178 -1.3358 -0.4516
 2470TIP3    H128901   0.559   4.161   3.983  0.1969 -1.4785 -0.5646
 2470TIP3    H228902   0.622   4.252   3.880  1.0933 -2.8543 -1.2353
 2471TIP3   OH228903   6.411   2.281  13.336  0.4503 -0.2144 -0.5109
 2471TIP3    H128904   6.403   2.209  13.274 -1.8531  0.4499 -1.0545
 2471TIP3    H228905   6.340   2.341  13.313  0.9603  1.1679  1.3156
 2472TIP3   OH228906   0.694   0.155   6.065  0.0079  0.0717 -0.0221
 2472TIP3    H128907   0.642   0.078   6.044  0.2745 -0.6076  1.7644
 2472TIP3    H228908   0.697   0.205   5.983 -3.9274  0.4141 -0.0265
 2473TIP3   OH228909   5.014   1.884  13.493  0.2147 -0.7134  0.3581
 2473TIP3    H128910   5.005   1.971  13.455  0.8929 -0.4575  0.7757
 2473TIP3    H228911   5.040   1.828  13.420  0.0956 -0.5034  0.1559
 2474TIP3   OH228912   2.531   1.045   0.290 -0.2358 -0.2106 -0.3884
 2474TIP3    H128913   2.594   0.987   0.248  1.0145  0.3423  0.6955
 2474TIP3    H228914   2.525   1.121   0.232  0.1374 -0.2374 -0.4621
 2475TIP3   OH228915   0.763   0.899  15.444  1.2198 -0.3292  0.1610
 2475TIP3    H128916   0.773   0.991  15.421  1.6883 -0.6036 -0.7389
 2475TIP3    H228917   0.727   0.858  15.365  1.1782 -0.9495  0.4980
 2476TIP3   OH228918   5.116   1.682  14.915 -0.2797  0.0754 -0.1146
 2476TIP3    H128919   5.198   1.730  14.925 -1.4447  1.8546  1.1975
 2476TIP3    H228920   5.124   1.608  14.975 -0.2892  1.1627  1.2532
 2477TIP3   OH228921   3.330   5.859   1.943 -0.1938  0.7123 -0.1667
 2477TIP3    H128922   3.414   5.871   1.987  0.4238  1.9073 -1.6165
 2477TIP3    H228923   3.322   5.764   1.931  0.5702  0.5411  0.7050
 2478TIP3   OH228924   5.807   2.624  14.289  0.6867  0.1325  0.0837
 2478TIP3    H128925   5.763   2.671  14.219 -0.6262 -0.7206  0.2983
 2478TIP3    H228926   5.815   2.688  14.360  0.7957  0.6117 -0.3596
 2479TIP3   OH228927   3.870   6.645   4.841  0.4505 -0.4025 -0.1180
 2479TIP3    H128928   3.783   6.683   4.831  1.1185  1.4673  0.7885
 2479TIP3    H228929   3.859   6.575   4.905  0.0111  1.4842  1.9732
 2480TIP3   OH228930   0.307   2.268  13.609 -0.1258 -0.0424 -0.3548
 2480TIP3    H128931   0.219   2.247  13.638  0.2618  0.9812  1.7112
 2480TIP3    H228932   0.354   2.290  13.690  2.5494 -2.4283 -1.1644
 2481TIP3   OH228933   2.284   0.812   6.765  0.2887 -0.0529  0.4244
 2481TIP3    H128934   2.233   0.754   6.709  1.9761 -1.9588  0.8027
 2481TIP3    H228935   2.228   0.888   6.778 -2.3797 -1.9947  0.6966
 2482TIP3   OH228936   4.952   6.719   0.381 -0.5123 -0.0318 -0.5695
 2482TIP3    H128937   4.983   6.762   0.460 -0.1229  1.7705 -1.6694
 2482TIP3    H228938   4.858   6.709   0.394 -0.1633 -1.6482  0.9742
 2483TIP3   OH228939   2.911   0.285   2.789 -0.3863 -0.6181  0.0986
 2483TIP3    H128940   2.824   0.278   2.748  0.3501  0.9769 -1.8398
 2483TIP3    H228941   2.894   0.330   2.872 -1.5127 -1.0688  0.1313
 2484TIP3   OH228942   5.494   3.719   0.526 -0.1554 -0.0059  0.0050
 2484TIP3    H128943   5.543   3.757   0.599 -0.1465  0.4406 -0.2274
 2484TIP3    H228944   5.505   3.625   0.536 -0.5862  0.0234  0.8877
 2485TIP3   OH228945   5.292   0.862   2.497 -0.3177 -0.1306  0.1742
 2485TIP3    H128946   5.259   0.949   2.476 -1.9514 -1.0423 -1.2267
 2485TIP3    H228947   5.311   0.865   2.591 -1.5751  1.3345  0.3999
 2486TIP3   OH228948   3.571   6.105  16.164 -0.2706 -0.4626 -0.1343
 2486TIP3    H128949   3.556   6.175  16.100  0.0527  0.2161  0.5209
 2486TIP3    H228950   3.490   6.103  16.215 -0.0140 -0.0952  0.2905
 2487TIP3   OH228951   4.660   6.429   6.379  0.5173 -0.3723  0.0284
 2487TIP3    H128952   4.735   6.468   6.423 -0.1646  0.9574  0.0350
 2487TIP3    H228953   4.621   6.501   6.330 -0.3200 -1.2215 -0.5742
 2488TIP3   OH228954   2.772   6.282  16.938 -0.3365  0.4653  0.1921
 2488TIP3    H128955   2.758   6.359  16.883  0.6558  1.5743  1.4718
 2488TIP3    H228956   2.852   6.242  16.905  0.0414  0.9062  0.5740
 2489TIP3   OH228957   4.530   1.317  15.074  0.4080 -0.4744  0.5901
 2489TIP3    H128958   4.451   1.305  15.023  0.9502  0.2533 -0.4281
 2489TIP3    H228959   4.523   1.406  15.109  1.0444 -0.1977  0.0228
 2490TIP3   OH228960   4.746   4.165  12.214  0.3293  1.0058 -0.0460
 2490TIP3    H128961   4.787   4.108  12.279 -0.8808  0.4468  0.2391
 2490TIP3    H228962   4.678   4.110  12.174  1.1225  1.2926 -1.8651
 2491TIP3   OH228963   4.183   6.264   0.964 -0.0576 -0.2645  0.1794
 2491TIP3    H128964   4.173   6.250   1.058 -1.0165 -0.8133  0.0084
 2491TIP3    H228965   4.204   6.177   0.929  0.9373  0.0594 -0.0343
 2492TIP3   OH228966   3.378   2.636  14.605 -0.2671 -0.3317 -0.2718
 2492TIP3    H128967   3.440   2.564  14.606  0.7511  0.5301 -0.3437
 2492TIP3    H228968   3.313   2.612  14.538  1.2545 -0.1997 -1.8297
 2493TIP3   OH228969   4.543   6.515  13.527  0.2675 -0.1360 -0.1994
 2493TIP3    H128970   4.460   6.530  13.482  0.8078 -0.4147 -1.2992
 2493TIP3    H228971   4.608   6.563  13.476  1.2155 -2.1360 -0.9516
 2494TIP3   OH228972   0.908   0.357  14.833  0.9994 -0.0762 -0.1448
 2494TIP3    H128973   0.858   0.316  14.763 -0.2160 -1.1032  1.2785
 2494TIP3    H228974   0.846   0.416  14.875  1.6372  0.3410  0.2209
 2495TIP3   OH228975   0.934   1.557   6.431 -0.6798  0.3729 -0.4099
 2495TIP3    H128976   0.859   1.533   6.484 -0.6980  4.0539  1.3895
 2495TIP3    H228977   1.009   1.515   6.474 -1.2380 -0.2096 -0.0136
 2496TIP3   OH228978   0.304   2.913  13.127  0.5193 -0.1889 -0.3704
 2496TIP3    H128979   0.288   2.916  13.032 -0.3901 -0.8286 -0.2430
 2496TIP3    H228980   0.384   2.964  13.139  0.4248  0.2377 -1.4416
 2497TIP3   OH228981   1.021   2.938   6.400  0.1492  0.2669 -0.4960
 2497TIP3    H128982   0.979   3.004   6.456  1.4615 -0.0108  0.8658
 2497TIP3    H228983   0.981   2.856   6.426 -0.7312  0.3954 -1.4463
 2498TIP3   OH228984   0.939   2.230   6.000  0.2297 -0.1559  0.3464
 2498TIP3    H128985   0.920   2.293   6.069  2.2299 -1.5032  2.1688
 2498TIP3    H228986   0.931   2.145   6.042  2.2296 -0.9701 -0.8610
 2499TIP3   OH228987   2.240   1.966   2.577  0.3969 -0.0216  0.2839
 2499TIP3    H128988   2.152   1.929   2.583 -0.0214  1.0574  0.9797
 2499TIP3    H228989   2.262   1.991   2.667  1.3100 -0.0530  0.0752
 2500TIP3   OH228990   5.617   5.741   5.988  0.3474  0.1350 -0.0654
 2500TIP3    H128991   5.611   5.748   6.083 -0.5628 -0.5375 -0.0573
 2500TIP3    H228992   5.687   5.677   5.973 -0.8940 -1.3148  0.2190
 2501TIP3   OH228993   1.103   5.940   1.972 -0.2319  0.3951  0.4220
 2501TIP3    H128994   1.131   5.881   2.042 -1.6261  0.1456  0.7762
 2501TIP3    H228995   1.020   5.904   1.941  0.8339 -0.0551 -2.0344
 2502TIP3   OH228996   0.583   1.838   3.903 -0.3037 -0.0285  0.4179
 2502TIP3    H128997   0.629   1.909   3.859 -0.7829 -0.6916 -1.1810
 2502TIP3    H228998   0.499   1.877   3.929 -2.3904 -1.0914 -4.2789
 2503TIP3   OH228999   4.631   5.764   4.784 -0.0321 -0.3113  0.0233
 2503TIP3    H129000   4.669   5.705   4.718  1.3880  1.4784 -0.7937
 2503TIP3    H229001   4.635   5.713   4.865  2.1810 -0.9899 -0.4630
 2504TIP3   OH229002   3.225   6.179  13.667 -0.1790 -0.0588 -0.5159
 2504TIP3    H129003   3.320   6.179  13.660 -0.1268 -0.3883  0.0906
 2504TIP3    H229004   3.200   6.088  13.649 -0.4156  0.1178 -1.0917
 2505TIP3   OH229005   3.504   3.665  16.791 -0.0739  0.1952  0.5213
 2505TIP3    H129006   3.426   3.720  16.783  1.4920  2.1948 -1.8154
 2505TIP3    H229007   3.501   3.609  16.714 -0.0544 -0.8510  1.2835
 2506TIP3   OH229008   0.444   0.381   2.860 -0.4607  0.2198  0.2238
 2506TIP3    H129009   0.374   0.378   2.796 -0.3834  1.0169  0.0989
 2506TIP3    H229010   0.524   0.368   2.809 -0.4772 -0.2385  0.3078
 2507TIP3   OH229011   3.055   0.299  12.448  0.0426  0.3628  0.0583
 2507TIP3    H129012   3.135   0.299  12.500 -2.1588 -0.8707  3.6636
 2507TIP3    H229013   3.046   0.209  12.418  0.3579  0.6644 -0.9585
 2508TIP3   OH229014   3.567   4.973   1.935 -0.3695  0.7490 -0.1412
 2508TIP3    H129015   3.646   4.937   1.894  0.9950  1.0325  2.1945
 2508TIP3    H229016   3.500   4.907   1.918  0.5351  0.1573 -1.5221
 2509TIP3   OH229017   3.125   5.918   6.128 -0.6966 -0.6254 -0.3419
 2509TIP3    H129018   3.046   5.889   6.173 -0.8865  0.8265  0.2997
 2509TIP3    H229019   3.183   5.949   6.198  0.3027 -1.3163 -0.8377
 2510TIP3   OH229020   5.691   6.589   1.661 -0.3492 -0.7874 -0.2978
 2510TIP3    H129021   5.635   6.650   1.613  0.3041 -0.8066 -1.1002
 2510TIP3    H229022   5.630   6.531   1.706 -1.0331  1.5863  2.0013
 2511TIP3   OH229023   6.401   6.319  13.207 -0.7263 -0.3491  0.0295
 2511TIP3    H129024   6.401   6.300  13.113 -1.4888  2.3588 -0.5919
 2511TIP3    H229025   6.332   6.385  13.217  1.4399  1.7159  1.9523
 2512TIP3   OH229026   0.148   3.816  17.197  0.8981  0.0264 -0.2217
 2512TIP3    H129027   0.122   3.871  17.271  0.8092 -0.3797  0.0495
 2512TIP3    H229028   0.086   3.840  17.128  0.3580 -0.2895  0.1415
 2513TIP3   OH229029   6.011   2.543   0.580 -0.5528  0.4402  0.1406
 2513TIP3    H129030   6.066   2.464   0.574 -2.2215 -0.8058  0.9824
 2513TIP3    H229031   6.072   2.615   0.565  0.9263 -1.0272 -1.0821
 2514TIP3   OH229032   3.488   5.241   5.869  0.1012 -0.5853 -0.0133
 2514TIP3    H129033   3.552   5.248   5.940 -0.3408  0.7533  0.2862
 2514TIP3    H229034   3.488   5.149   5.845  2.3130 -0.5677 -0.1942
 2515TIP3   OH229035   6.078   2.976  16.891  0.0066  0.4664  0.0369
 2515TIP3    H129036   6.062   2.938  16.805 -4.8828  0.0195  0.9908
 2515TIP3    H229037   6.105   2.902  16.945  0.9706  0.3483 -0.6079
 2516TIP3   OH229038   1.441   6.368  10.290 -0.2103 -0.2842 -0.3089
 2516TIP3    H129039   1.392   6.446  10.267 -0.0883  0.0393  0.5123
 2516TIP3    H229040   1.374   6.302  10.309 -0.3108 -0.6809 -1.9678
 2517TIP3   OH229041   5.318   4.679  16.545  0.0758 -0.5709  0.0341
 2517TIP3    H129042   5.266   4.604  16.515 -0.9388 -0.5455  1.6936
 2517TIP3    H229043   5.343   4.724  16.464 -1.8998 -0.9639 -0.8239
 2518TIP3   OH229044   1.226   5.743  16.892 -0.1775  0.4988  0.0354
 2518TIP3    H129045   1.193   5.831  16.873 -1.8787  0.0545  0.8544
 2518TIP3    H229046   1.174   5.714  16.966 -1.0195 -1.9673 -1.4779
 2519TIP3   OH229047   2.074   4.773  16.136 -0.0415  0.4546 -0.8127
 2519TIP3    H129048   2.132   4.836  16.180 -0.9687 -0.7061  2.1792
 2519TIP3    H229049   2.130   4.730  16.072  1.8138  1.0267  0.3808
 2520TIP3   OH229050   2.347   4.954  14.842 -0.5752 -0.7299 -0.0433
 2520TIP3    H129051   2.401   5.014  14.893  1.9904 -2.4157 -0.6478
 2520TIP3    H229052   2.296   4.906  14.908 -0.7403  0.3349  0.6076
 2521TIP3   OH229053   6.638   0.530   4.589  0.7469 -0.0414  0.3159
 2521TIP3    H129054   6.619   0.452   4.537 -0.5070 -0.0783  0.8141
 2521TIP3    H229055   6.727   0.515   4.622  1.4195 -0.1746 -1.4898
 2522TIP3   OH229056   6.291   3.950  11.063  0.0418  0.1530 -0.0427
 2522TIP3    H129057   6.251   3.913  11.142  0.1121 -0.2654 -0.1984
 2522TIP3    H229058   6.385   3.947  11.081  0.0257  0.6517  0.1164
 2523TIP3   OH229059   3.266   0.554   4.872  0.1345 -0.0185 -0.0849
 2523TIP3    H129060   3.254   0.493   4.799 -0.8525  1.8856 -1.5353
 2523TIP3    H229061   3.358   0.580   4.866  0.4662 -1.0323  0.3192
 2524TIP3   OH229062   4.740   0.795  13.035  0.2294  0.4043 -0.1589
 2524TIP3    H129063   4.720   0.768  12.946 -1.1081  0.1970  0.2021
 2524TIP3    H229064   4.727   0.717  13.088  0.7639  0.5970  0.2657
 2525TIP3   OH229065   4.597   6.523  15.748 -0.6813 -0.1736 -0.1387
 2525TIP3    H129066   4.678   6.559  15.712 -0.7482  0.4971  0.3683
 2525TIP3    H229067   4.528   6.579  15.713 -1.0482 -1.4376 -1.4911
 2526TIP3   OH229068   2.966   6.047   0.113 -0.0643 -0.3185  0.2112
 2526TIP3    H129069   2.956   6.140   0.095  0.2214  0.1654  2.3430
 2526TIP3    H229070   2.893   6.005   0.067 -0.7114  1.0546 -0.0294
 2527TIP3   OH229071   6.312   6.168   2.041 -0.1544 -0.1179  0.5078
 2527TIP3    H129072   6.230   6.120   2.047  0.0233 -0.6853 -1.4352
 2527TIP3    H229073   6.293   6.241   1.982  0.0944  1.1448  1.9549
 2528TIP3   OH229074   4.340   0.080  13.730  0.0103  0.3418  1.0346
 2528TIP3    H129075   4.280   0.153  13.717 -0.2013  0.2046  1.2224
 2528TIP3    H229076   4.335   0.030  13.649 -1.0166 -0.3041  1.4813
 2529TIP3   OH229077   6.685   1.312  16.723  0.1735 -0.2696  0.5516
 2529TIP3    H129078   6.732   1.376  16.669  1.9607 -1.1882  0.9748
 2529TIP3    H229079   6.747   1.289  16.793  0.0078 -3.2313 -0.1787
 2530TIP3   OH229080   5.316   2.728  11.325  0.0788 -0.2227  0.4614
 2530TIP3    H129081   5.307   2.633  11.319  2.0966 -0.3949 -0.3264
 2530TIP3    H229082   5.341   2.756  11.237 -3.0582  1.4003 -0.0031
 2531TIP3   OH229083   0.279   1.413  14.105 -0.6902  0.7303 -0.3808
 2531TIP3    H129084   0.278   1.509  14.109 -0.1564  0.6559  3.0970
 2531TIP3    H229085   0.188   1.388  14.122 -0.2596  0.5904  1.8467
 2532TIP3   OH229086   0.267   5.446  17.152 -0.3366  0.3566 -0.0732
 2532TIP3    H129087   0.267   5.480  17.241  0.5803 -1.4097  0.6182
 2532TIP3    H229088   0.235   5.519  17.099 -2.1311  1.0233  1.8395
 2533TIP3   OH229089   2.041   3.209   4.805  0.0159  0.1032 -0.0540
 2533TIP3    H129090   2.021   3.204   4.898  1.9043  2.1450  0.4842
 2533TIP3    H229091   1.971   3.262   4.768 -0.2163  0.0949  0.3697
 2534TIP3   OH229092   5.870   0.719  15.170 -0.0136  0.0405  0.3363
 2534TIP3    H129093   5.856   0.663  15.247  1.1629 -1.7490 -0.7320
 2534TIP3    H229094   5.934   0.784  15.200  1.3312 -1.3539  0.5589
 2535TIP3   OH229095   1.481   2.700   4.122 -0.5502 -0.0571 -0.0013
 2535TIP3    H129096   1.558   2.648   4.143 -0.8037  0.3369  1.9833
 2535TIP3    H229097   1.484   2.773   4.184 -0.9838  1.5074 -1.7756
 2536TIP3   OH229098   3.079   0.274   6.492  0.7088  0.2269 -0.0402
 2536TIP3    H129099   3.152   0.307   6.438  0.5770  0.7253  0.0808
 2536TIP3    H229100   3.118   0.261   6.578  0.7755  0.0162 -0.1027
 2537TIP3   OH229101   6.003   0.889   0.318  0.4875  0.0542  0.3567
 2537TIP3    H129102   6.032   0.976   0.347  1.6149 -0.5802  1.1662
 2537TIP3    H229103   6.084   0.842   0.301 -0.1150 -1.0011  0.3825
 2538TIP3   OH229104   0.785   1.310   4.385  0.7285 -0.1228  0.5293
 2538TIP3    H129105   0.747   1.261   4.458 -0.1912 -1.4161 -0.7740
 2538TIP3    H229106   0.821   1.242   4.328  0.8540  0.8250 -0.5205
 2539TIP3   OH229107   2.467   5.914   4.368 -0.4851 -0.1706 -0.0627
 2539TIP3    H129108   2.544   5.900   4.422 -0.6168 -0.5322  0.0338
 2539TIP3    H229109   2.419   5.985   4.411  0.4321  0.9464 -0.8179
 2540TIP3   OH229110   3.802   4.506  11.417 -0.1655 -0.0265  0.1837
 2540TIP3    H129111   3.780   4.564  11.490  2.1619  0.4150  0.5921
 2540TIP3    H229112   3.772   4.553  11.339 -1.3203  0.1857  0.7548
 2541TIP3   OH229113   0.371   6.018  14.516  0.1206 -1.1803  0.2913
 2541TIP3    H129114   0.405   5.937  14.554 -0.5713 -2.5123 -1.8445
 2541TIP3    H229115   0.286   6.030  14.558  0.8628 -0.7192  1.7121
 2542TIP3   OH229116   3.160   5.103   3.346  0.0349  0.1586  0.1435
 2542TIP3    H129117   3.195   5.026   3.303 -0.3522 -0.9629  1.8007
 2542TIP3    H229118   3.141   5.164   3.274  0.0983 -1.3670 -1.1981
 2543TIP3   OH229119   4.902   6.112   4.592 -0.0321 -0.1525  0.0697
 2543TIP3    H129120   4.955   6.039   4.623 -1.6849 -1.5920 -0.4200
 2543TIP3    H229121   4.965   6.178   4.564  1.4863 -1.7604 -0.3276
 2544TIP3   OH229122   6.313   5.882  14.039  0.3590 -0.1112  0.0241
 2544TIP3    H129123   6.382   5.947  14.027 -0.5046  0.5784 -1.4170
 2544TIP3    H229124   6.249   5.902  13.970  0.2214 -2.6867 -0.6594
 2545TIP3   OH229125   4.797   4.980  17.203  0.4723  0.8171 -0.2004
 2545TIP3    H129126   4.776   4.960  17.112  1.6176 -0.8815 -0.1111
 2545TIP3    H229127   4.801   5.076  17.206 -2.9272  1.0685 -1.1338
 2546TIP3   OH229128   1.016   3.252  11.834  0.0584 -0.1574 -0.0137
 2546TIP3    H129129   0.996   3.325  11.775 -0.1768  1.8531  2.4697
 2546TIP3    H229130   1.103   3.223  11.808  0.4563  1.4860 -0.5644
 2547TIP3   OH229131   5.900   1.537  15.711  0.2020 -0.0089 -0.4423
 2547TIP3    H129132   5.955   1.594  15.765  0.7029 -0.6384 -0.2910
 2547TIP3    H229133   5.958   1.508  15.640 -0.2872  0.3331 -0.9977
 2548TIP3   OH229134   3.031   1.264  12.168  0.0847  0.5183  0.6799
 2548TIP3    H129135   3.079   1.214  12.233 -2.1278  0.3406  2.1992
 2548TIP3    H229136   2.948   1.287  12.210 -1.5755  0.0557 -2.1886
 2549TIP3   OH229137   6.157   1.100  11.956  0.1870  0.5338  0.2248
 2549TIP3    H129138   6.174   1.191  11.931 -1.5345  0.7967 -0.0410
 2549TIP3    H229139   6.062   1.093  11.959  0.3152 -0.8997  1.6167
 2550TIP3   OH229140   4.694   3.100   3.602  0.9051 -0.0366 -0.2789
 2550TIP3    H129141   4.787   3.124   3.597  0.8005  0.2392 -0.9673
 2550TIP3    H229142   4.680   3.043   3.526  0.4804  0.0378 -0.2581
 2551TIP3   OH229143   0.327   2.825  14.686 -0.4937 -0.2373  0.4487
 2551TIP3    H129144   0.341   2.735  14.656 -1.5606  0.1021 -1.1082
 2551TIP3    H229145   0.258   2.817  14.752  0.6312 -0.7564  1.6032
 2552TIP3   OH229146   4.728   6.075  14.856 -0.4238 -0.2084  0.1474
 2552TIP3    H129147   4.775   6.139  14.802 -1.2815 -0.2523 -0.6584
 2552TIP3    H229148   4.676   6.128  14.916 -2.7067 -0.0836 -1.8584
 2553TIP3   OH229149   0.564   5.840  14.045  0.5369 -0.2897 -0.7001
 2553TIP3    H129150   0.544   5.904  13.976 -0.1129 -0.0851 -0.3356
 2553TIP3    H229151   0.655   5.816  14.030  0.5877  0.2208 -1.2534
 2554TIP3   OH229152   2.781   2.035   3.573  0.1059 -0.2877  0.1938
 2554TIP3    H129153   2.779   2.127   3.600  1.5271 -0.3416  0.4990
 2554TIP3    H229154   2.830   2.035   3.492  2.2835 -1.0865  1.4818
 2555TIP3   OH229155   6.805   5.257   4.446  0.3501 -0.5533  0.7580
 2555TIP3    H129156   6.801   5.269   4.351  1.6928 -0.9832  0.6342
 2555TIP3    H229157   6.898   5.240   4.464 -0.2708 -3.1370  1.8072
 2556TIP3   OH229158   6.239   4.398  10.707  0.0709  0.1246 -0.2037
 2556TIP3    H129159   6.267   4.340  10.636 -0.5432  0.1427 -0.4683
 2556TIP3    H229160   6.169   4.350  10.751  0.9323 -0.1876  0.8423
 2557TIP3   OH229161   4.036   0.358   5.546 -0.1798 -0.4983 -0.6644
 2557TIP3    H129162   4.125   0.325   5.536  0.3446  1.0289 -1.1092
 2557TIP3    H229163   3.982   0.298   5.494  0.4984 -1.7863  0.0972
 2558TIP3   OH229164   2.694   0.466  13.152 -0.3310 -0.6074  0.1149
 2558TIP3    H129165   2.758   0.503  13.091  1.1429 -1.4468  1.1140
 2558TIP3    H229166   2.609   0.489  13.115  0.5261  2.5893 -0.0237
 2559TIP3   OH229167   0.229   2.588  17.289 -0.3675  0.5472  0.1606
 2559TIP3    H129168   0.250   2.494  17.293 -0.8708  0.4368  0.3139
 2559TIP3    H229169   0.147   2.591  17.239  0.2789  1.0054 -0.8867
 2560TIP3   OH229170   3.130   1.879   3.796  0.0384  0.5642 -0.6079
 2560TIP3    H129171   3.114   1.911   3.707 -0.3002  0.4421 -0.5891
 2560TIP3    H229172   3.166   1.791   3.785 -0.7403  0.2478 -0.5939
 2561TIP3   OH229173   2.428   0.727  11.739 -0.2240 -0.7199 -0.0116
 2561TIP3    H129174   2.520   0.736  11.715 -0.2588 -2.4052 -0.8288
 2561TIP3    H229175   2.394   0.660  11.680 -1.5611 -1.3069  1.3787
 2562TIP3   OH229176   6.313   1.713  15.104  0.3006 -0.4375  0.3727
 2562TIP3    H129177   6.374   1.718  15.178  0.1577  1.8608  0.3703
 2562TIP3    H229178   6.243   1.655  15.134  0.7036 -0.2404  1.7128
 2563TIP3   OH229179   1.351   1.587   1.574 -0.0568  0.0868  0.2211
 2563TIP3    H129180   1.346   1.555   1.484  0.5471 -2.5767  1.0858
 2563TIP3    H229181   1.271   1.554   1.615  0.2655  0.2498  0.9854
 2564TIP3   OH229182   4.436   0.773  16.139  0.2899 -0.3190 -0.1922
 2564TIP3    H129183   4.428   0.775  16.043  1.0624 -0.6704 -0.2737
 2564TIP3    H229184   4.528   0.748  16.154 -0.6176 -3.3781  0.6114
 2565TIP3   OH229185   5.085   6.511   5.560  0.2851  0.0884 -0.0344
 2565TIP3    H129186   5.061   6.472   5.644  0.0351 -1.1458 -0.6627
 2565TIP3    H229187   5.099   6.603   5.579 -0.5160 -0.0399  1.2204
 2566TIP3   OH229188   3.508   3.977   4.508  0.2077 -0.5444  0.0028
 2566TIP3    H129189   3.512   3.911   4.440 -3.3840 -1.2060  0.3432
 2566TIP3    H229190   3.467   3.933   4.583 -0.1687  1.4272  1.0108
 2567TIP3   OH229191   2.489   3.303  11.236 -0.2968 -0.0675  0.3305
 2567TIP3    H129192   2.517   3.254  11.159 -0.1782  2.4056 -1.2728
 2567TIP3    H229193   2.520   3.252  11.310 -0.6954 -2.6919 -1.2441
 2568TIP3   OH229194   5.055   1.756  15.499 -0.0604 -0.1126 -0.3158
 2568TIP3    H129195   5.134   1.713  15.466 -1.1569 -1.8363 -0.7954
 2568TIP3    H229196   4.998   1.765  15.423 -0.8011  0.0207  0.2483
 2569TIP3   OH229197   6.538   5.464   0.885 -0.3846 -0.1856  0.2139
 2569TIP3    H129198   6.497   5.472   0.799 -1.5457  0.6588  0.8340
 2569TIP3    H229199   6.553   5.370   0.896 -0.8281 -0.3526 -0.6345
 2570TIP3   OH229200   4.013   1.040   4.060 -0.2930 -0.1220 -0.7246
 2570TIP3    H129201   4.014   1.041   3.965  2.9976 -0.9688 -0.7735
 2570TIP3    H229202   4.068   0.964   4.084  0.5632  1.2149  1.8061
 2571TIP3   OH229203   6.434   2.900   3.719  0.3534 -0.0410 -0.2692
 2571TIP3    H129204   6.481   2.981   3.739 -0.2223  0.4194 -0.7344
 2571TIP3    H229205   6.409   2.864   3.804  1.3240 -0.1600 -0.0313
 2572TIP3   OH229206   2.320   2.077  14.693 -0.4759 -0.0989 -0.5501
 2572TIP3    H129207   2.304   2.066  14.600 -0.9155 -1.3797 -0.3316
 2572TIP3    H229208   2.313   1.989  14.730  3.1958 -0.1790  0.1623
 2573TIP3   OH229209   0.811   6.135  13.503 -0.1514  0.6378 -0.7397
 2573TIP3    H129210   0.808   6.216  13.554 -0.4032  0.8208 -1.0396
 2573TIP3    H229211   0.729   6.091  13.524  1.1972 -0.8631  1.5578
 2574TIP3   OH229212   5.293   1.321   5.751 -0.4186 -0.2706  0.4123
 2574TIP3    H129213   5.334   1.312   5.665 -0.7652  3.2346 -0.1833
 2574TIP3    H229214   5.210   1.274   5.743 -1.1147  1.2461 -1.6955
 2575TIP3   OH229215   0.509   5.436  14.873 -0.2079  0.8790 -0.8531
 2575TIP3    H129216   0.473   5.370  14.933  0.7124  1.4424  0.3587
 2575TIP3    H229217   0.595   5.401  14.848 -0.0849  1.2097 -0.8936
 2576TIP3   OH229218   6.758   6.387  11.260 -0.4475  0.0862 -0.1025
 2576TIP3    H129219   6.697   6.429  11.321 -0.5024 -0.4030  0.1773
 2576TIP3    H229220   6.713   6.390  11.176  1.7067  5.4983 -1.3203
 2577TIP3   OH229221   0.378   3.974   3.322  0.0638 -0.4597  0.2038
 2577TIP3    H129222   0.402   4.067   3.327  0.2502 -0.5939  2.0252
 2577TIP3    H229223   0.330   3.957   3.403 -1.8070 -1.4415 -1.0822
 2578TIP3   OH229224   3.069   2.643   1.044  0.0297  0.1236  0.3831
 2578TIP3    H129225   3.032   2.583   1.109  2.2996 -1.1159  0.5855
 2578TIP3    H229226   3.025   2.726   1.059 -2.3307 -1.1739  0.8940
 2579TIP3   OH229227   2.593   6.385  14.898  0.3777 -0.5512  0.7422
 2579TIP3    H129228   2.597   6.469  14.944 -1.4667 -0.1984  0.2971
 2579TIP3    H229229   2.569   6.409  14.808  2.9543 -1.3157 -0.1736
 2580TIP3   OH229230   5.164   5.113  16.358  0.5601  0.0616 -0.5207
 2580TIP3    H129231   5.099   5.180  16.339 -1.9020 -1.6503  1.5764
 2580TIP3    H229232   5.203   5.141  16.441 -0.4159 -1.0329  0.3167
 2581TIP3   OH229233   2.899   6.450   2.364  0.3480 -0.2319  0.3454
 2581TIP3    H129234   2.954   6.508   2.311 -0.9828  0.6950 -0.0633
 2581TIP3    H229235   2.917   6.476   2.454 -0.5506  1.1297  0.1484
 2582TIP3   OH229236   1.661   2.777  16.947  0.1048 -0.1988  0.3476
 2582TIP3    H129237   1.629   2.690  16.925 -0.6882  0.2223 -0.1857
 2582TIP3    H229238   1.695   2.812  16.864  1.6150 -0.4932  0.8230
 2583TIP3   OH229239   3.999   4.222  17.169  0.6827  0.3800 -0.3320
 2583TIP3    H129240   4.008   4.157  17.099  0.2416  0.5730 -0.5709
 2583TIP3    H229241   3.960   4.174  17.242 -1.1178  0.7179 -1.0368
 2584TIP3   OH229242   3.388   2.871   2.400 -0.1537 -0.9026 -0.3501
 2584TIP3    H129243   3.473   2.858   2.359  0.8532  0.3770  1.2576
 2584TIP3    H229244   3.349   2.783   2.404  1.3945 -1.6041 -0.4670
 2585TIP3   OH229245   0.364   2.315   3.789  0.4285  0.1536 -0.6357
 2585TIP3    H129246   0.324   2.340   3.872 -2.3925  0.6582 -2.0706
 2585TIP3    H229247   0.372   2.397   3.741  1.4895 -0.2148 -1.0825
 2586TIP3   OH229248   3.905   5.393   1.120  0.6405  0.0988 -0.0367
 2586TIP3    H129249   3.899   5.461   1.053  1.0198  0.2969  0.1293
 2586TIP3    H229250   3.994   5.358   1.110 -0.1699 -1.6830 -1.3963
 2587TIP3   OH229251   2.057   2.698  17.133  0.3157  0.1560 -0.3069
 2587TIP3    H129252   2.033   2.639  17.062 -0.5140 -0.6572  0.6386
 2587TIP3    H229253   1.987   2.689  17.197  0.6690  1.4465  0.2879
 2588TIP3   OH229254   3.175   0.259   6.742 -0.1557 -0.2035 -0.0142
 2588TIP3    H129255   3.255   0.309   6.725  0.2964 -1.2203 -0.8755
 2588TIP3    H229256   3.205   0.183   6.792 -0.8810  0.4909  1.5313
 2589TIP3   OH229257   1.046   5.803   2.868  0.1410  0.3472 -0.1728
 2589TIP3    H129258   1.095   5.883   2.851  1.3837 -0.0219  1.5054
 2589TIP3    H229259   1.097   5.734   2.826  1.4463 -0.1194  2.0833
 2590TIP3   OH229260   6.480   2.146   2.104 -0.1922 -0.1880 -0.1533
 2590TIP3    H129261   6.537   2.155   2.028  0.1685 -1.9726 -0.1204
 2590TIP3    H229262   6.541   2.140   2.178 -0.5222  0.7594  0.2088
 2591TIP3   OH229263   0.190   4.004  15.301  0.0040 -0.2302  0.3704
 2591TIP3    H129264   0.182   3.934  15.236  0.7156 -0.4752  0.5434
 2591TIP3    H229265   0.169   4.083  15.253  0.1146 -0.4607 -0.0608
 2592TIP3   OH229266   6.339   4.837   3.019  0.4079  0.9465  0.1756
 2592TIP3    H129267   6.343   4.870   3.108 -0.5386 -0.9045  0.9213
 2592TIP3    H229268   6.406   4.769   3.015 -2.1400 -1.7146  0.6837
 2593TIP3   OH229269   3.571   0.480  13.089  0.2147 -0.0880 -0.0209
 2593TIP3    H129270   3.547   0.439  13.172 -0.7526  0.2333 -0.1246
 2593TIP3    H229271   3.528   0.566  13.093  1.4632  0.5462 -0.1858
 2594TIP3   OH229272   0.582   5.163   2.933  0.4160 -0.1476  0.4733
 2594TIP3    H129273   0.623   5.093   2.984  1.2311 -0.9301 -1.2254
 2594TIP3    H229274   0.582   5.130   2.843 -1.8005  0.8305  0.0829
 2595TIP3   OH229275   2.452   6.540   4.412 -0.5350  0.6732  0.3699
 2595TIP3    H129276   2.483   6.618   4.367  1.9656 -0.0689  0.7341
 2595TIP3    H229277   2.467   6.469   4.350  2.1238 -0.2338  1.9683
 2596TIP3   OH229278   2.188   4.895  12.518 -0.4411  0.0411  0.2530
 2596TIP3    H129279   2.138   4.817  12.492 -0.5297  0.2193 -0.1034
 2596TIP3    H229280   2.128   4.968  12.505 -0.5520  0.1181  1.1241
 2597TIP3   OH229281   5.360   5.730   2.736 -0.8340 -0.1131  0.3315
 2597TIP3    H129282   5.379   5.788   2.810  1.3249 -0.4748  0.1037
 2597TIP3    H229283   5.270   5.751   2.712 -1.3093  0.5370  2.5727
 2598TIP3   OH229284   2.333   4.923   2.588  0.1580  0.1483  0.0024
 2598TIP3    H129285   2.331   4.892   2.678 -1.2661 -0.8120 -0.3397
 2598TIP3    H229286   2.331   4.843   2.535  0.1778  0.7286 -0.8829
 2599TIP3   OH229287   2.461   1.313   2.589  0.1401  0.1422 -0.2026
 2599TIP3    H129288   2.510   1.375   2.643  2.3271 -1.4144 -0.3610
 2599TIP3    H229289   2.466   1.349   2.501  0.6203  0.2257 -0.1427
 2600TIP3   OH229290   0.254   5.869  12.452  0.4291 -0.3967  0.6256
 2600TIP3    H129291   0.178   5.838  12.503  1.1560 -0.6776  1.5617
 2600TIP3    H229292   0.261   5.962  12.473  0.8662 -0.5616  1.2385
 2601TIP3   OH229293   1.148   0.184  13.891 -0.4215  0.0021  0.3450
 2601TIP3    H129294   1.104   0.269  13.889 -2.2827 -0.9476  0.4432
 2601TIP3    H229295   1.171   0.167  13.799  0.2754  0.7486  0.3692
 2602TIP3   OH229296   3.359   4.752  13.247  0.3301 -0.0632 -0.5633
 2602TIP3    H129297   3.375   4.670  13.292 -0.6145 -0.5633 -1.1206
 2602TIP3    H229298   3.446   4.789  13.232  0.6235  0.6629  2.6331
 2603TIP3   OH229299   1.353   4.368   0.208  0.1151  0.3716  0.0030
 2603TIP3    H129300   1.393   4.341   0.125  3.1464  1.1948  1.1424
 2603TIP3    H229301   1.359   4.464   0.207 -0.3178  0.4154  0.9518
 2604TIP3   OH229302   0.666   1.088   0.199  0.1352 -0.4789  0.0192
 2604TIP3    H129303   0.734   1.152   0.179 -1.5048  0.9648 -1.1488
 2604TIP3    H229304   0.611   1.131   0.265 -1.4525 -0.3060 -1.3723
 2605TIP3   OH229305   0.885   2.027  14.923 -0.4186 -0.0564 -0.9148
 2605TIP3    H129306   0.962   2.082  14.936 -0.1524 -0.6825  0.3158
 2605TIP3    H229307   0.907   1.972  14.848 -0.3819  0.9851 -1.6677
 2606TIP3   OH229308   6.336   3.008   1.568 -0.5357  0.3608 -0.3959
 2606TIP3    H129309   6.418   2.961   1.584 -1.8422 -2.1862 -0.8671
 2606TIP3    H229310   6.307   3.035   1.655 -0.1176 -0.3159 -0.0434
 2607TIP3   OH229311   1.973   0.852   1.189 -0.2684  0.5865 -0.4632
 2607TIP3    H129312   2.067   0.837   1.186 -0.1603  1.2568 -0.6957
 2607TIP3    H229313   1.945   0.820   1.275  0.4354  1.7872  0.2222
 2608TIP3   OH229314   1.825   6.329   1.176  0.4091  0.2543 -0.3542
 2608TIP3    H129315   1.875   6.325   1.094  0.2967 -3.1611 -0.3383
 2608TIP3    H229316   1.739   6.295   1.154  0.7578 -1.9294  1.3766
 2609TIP3   OH229317   0.813   1.986  10.741  0.6921  0.0654 -0.1248
 2609TIP3    H129318   0.765   2.040  10.803  0.6820 -0.9794  0.8083
 2609TIP3    H229319   0.849   1.915  10.795 -0.4499 -1.6086 -1.5325
 2610TIP3   OH229320   3.126   6.750  13.731 -0.1896  0.3712  0.2359
 2610TIP3    H129321   3.056   6.692  13.761 -1.5346  1.2081 -1.2277
 2610TIP3    H229322   3.123   6.744  13.636  0.7973  1.5144  0.1224
 2611TIP3   OH229323   3.595   6.814  11.401  0.1537  0.9020 -0.4189
 2611TIP3    H129324   3.508   6.823  11.441  0.3320 -0.5835  0.3460
 2611TIP3    H229325   3.580   6.828  11.307 -0.7264  1.7104 -0.1659
 2612TIP3   OH229326   2.212   3.919   4.409 -0.0904  0.5896 -0.0540
 2612TIP3    H129327   2.245   3.988   4.351  0.3283  1.0627  0.7403
 2612TIP3    H229328   2.128   3.953   4.441 -0.3415  0.3102 -0.4059
 2613TIP3   OH229329   2.940   2.172  13.074 -0.4860  0.0494 -0.3429
 2613TIP3    H129330   2.880   2.226  13.022 -1.1898 -1.6842 -1.3929
 2613TIP3    H229331   2.884   2.104  13.111  0.1926  0.6633  1.8775
 2614TIP3   OH229332   5.947   4.438   4.755 -0.2157 -0.0731 -0.4236
 2614TIP3    H129333   6.020   4.494   4.780 -0.8456  0.9530 -0.8430
 2614TIP3    H229334   5.872   4.497   4.749 -1.1440 -1.1638  0.2836
 2615TIP3   OH229335   1.568   6.620  17.097  0.2114  0.2149  0.3767
 2615TIP3    H129336   1.574   6.701  17.149  0.9465 -0.1208  0.8161
 2615TIP3    H229337   1.605   6.643  17.012 -1.0944  0.7969 -0.0564
 2616TIP3   OH229338   5.477   5.639   3.535 -0.0220  0.0299 -0.0792
 2616TIP3    H129339   5.497   5.678   3.450  0.6461 -0.4215 -0.1308
 2616TIP3    H229340   5.419   5.566   3.515 -1.0113  0.7814 -0.0118
 2617TIP3   OH229341   2.360   3.913   5.220  0.7355 -0.6494 -0.7023
 2617TIP3    H129342   2.390   3.836   5.269 -1.5869 -0.9677  0.2726
 2617TIP3    H229343   2.376   3.987   5.279 -0.3335 -0.8161 -0.1928
 2618TIP3   OH229344   5.735   0.717   3.069 -0.1979 -0.0774 -0.3991
 2618TIP3    H129345   5.639   0.719   3.059 -0.6122 -2.9092  2.4095
 2618TIP3    H229346   5.762   0.639   3.021  1.1995  2.5048 -4.0389
 2619TIP3   OH229347   4.408   5.922   1.696  0.9107  0.2723  0.0457
 2619TIP3    H129348   4.463   5.861   1.745 -0.6189 -0.5162  0.8162
 2619TIP3    H229349   4.339   5.868   1.658 -0.6522  1.5258  1.0058
 2620TIP3   OH229350   1.684   2.932  12.429  0.6439  0.2217  0.2892
 2620TIP3    H129351   1.590   2.912  12.429  0.8520 -0.8288  1.4361
 2620TIP3    H229352   1.688   3.025  12.452 -0.1323  0.3241  0.0383
 2621TIP3   OH229353   0.305   3.272   4.457 -0.0337 -0.3962 -0.5800
 2621TIP3    H129354   0.343   3.341   4.403  0.4120 -0.8014 -0.7976
 2621TIP3    H229355   0.236   3.234   4.402  1.2210 -1.6060 -1.3572
 2622TIP3   OH229356   1.834   5.595  15.888 -0.0292  0.5528 -0.1972
 2622TIP3    H129357   1.918   5.571  15.848  0.3982  0.8650  0.5203
 2622TIP3    H229358   1.773   5.597  15.814  0.2829 -1.0856 -0.5252
 2623TIP3   OH229359   4.816   3.990   0.160 -0.0677 -0.1612 -0.7120
 2623TIP3    H129360   4.910   3.995   0.143 -0.2993 -0.1540 -1.9932
 2623TIP3    H229361   4.796   3.897   0.153 -0.5519  0.0769 -2.5871
 2624TIP3   OH229362   6.532   6.177  12.459 -0.2362  0.5036 -0.3267
 2624TIP3    H129363   6.562   6.177  12.368 -0.1528 -0.8428 -0.3005
 2624TIP3    H229364   6.610   6.203  12.509  0.5634 -1.6508 -0.3831
 2625TIP3   OH229365   1.413   1.939  15.573 -0.0171  0.0955  0.0293
 2625TIP3    H129366   1.327   1.979  15.562  0.0954 -0.1627 -2.0961
 2625TIP3    H229367   1.394   1.848  15.595 -0.3098 -0.0114 -0.6365
 2626TIP3   OH229368   0.358   6.082  14.171 -0.0619  0.4521  0.2420
 2626TIP3    H129369   0.273   6.088  14.127 -0.7511  0.1571  1.4823
 2626TIP3    H229370   0.370   5.988  14.186  1.0442  0.3883 -0.9638
 2627TIP3   OH229371   3.514   4.087  14.610 -0.5450  0.5790  0.0601
 2627TIP3    H129372   3.588   4.131  14.569 -1.2396 -0.0365 -1.9196
 2627TIP3    H229373   3.494   4.014  14.551 -2.2501  0.3017  0.9529
 2628TIP3   OH229374   3.313   4.948   3.597  0.7030 -0.2585  0.2090
 2628TIP3    H129375   3.280   4.862   3.569  0.5593 -0.4401  0.9225
 2628TIP3    H229376   3.244   4.982   3.654  1.5425 -0.4412  1.3412
 2629TIP3   OH229377   3.703   2.961   2.982 -0.1473 -0.4280 -0.0935
 2629TIP3    H129378   3.724   3.053   2.967 -0.1077 -0.4837 -0.3845
 2629TIP3    H229379   3.780   2.927   3.029 -1.0236  0.1677  1.8458
 2630TIP3   OH229380   2.836   1.735  11.809 -0.2990  0.2360 -0.8027
 2630TIP3    H129381   2.772   1.757  11.741  1.3551 -0.1087 -2.5295
 2630TIP3    H229382   2.918   1.773  11.777  0.4858  0.1614  1.0813
 2631TIP3   OH229383   5.735   3.201   1.156  0.4161  0.5469 -0.5074
 2631TIP3    H129384   5.674   3.128   1.143 -0.7280  1.2873  0.5213
 2631TIP3    H229385   5.684   3.265   1.205  1.9854  1.2719  0.1954
 2632TIP3   OH229386   6.688   3.856   1.420  0.2567  0.6605 -0.4839
 2632TIP3    H129387   6.657   3.792   1.356 -2.2574  1.0713  0.2744
 2632TIP3    H229388   6.703   3.935   1.369  1.0441  0.1623 -1.0303
 2633TIP3   OH229389   5.873   3.791  15.083  0.3362 -0.0868  0.7889
 2633TIP3    H129390   5.910   3.702  15.081 -0.0665 -0.2473  0.4730
 2633TIP3    H229391   5.816   3.790  15.160 -2.7648 -1.3511 -1.4375
 2634TIP3   OH229392   5.550   6.142  13.627 -0.0011  0.2421 -0.1182
 2634TIP3    H129393   5.564   6.168  13.718  1.7177  1.2592 -0.6461
 2634TIP3    H229394   5.458   6.116  13.623 -0.5351  1.7754  1.5274
 2635TIP3   OH229395   1.270   4.455   5.431 -0.1516 -0.0332 -0.2014
 2635TIP3    H129396   1.319   4.376   5.409 -1.8649 -1.4624  0.8815
 2635TIP3    H229397   1.307   4.523   5.376  0.2650 -1.9701 -2.3998
 2636TIP3   OH229398   1.090   0.643  11.299  0.6586  1.0214  0.4043
 2636TIP3    H129399   1.121   0.559  11.264  2.2057  0.2469  3.4647
 2636TIP3    H229400   1.169   0.685  11.334 -0.7385  1.8860  2.6313
 2637TIP3   OH229401   6.149   3.629   5.452 -0.3471  0.2313 -0.1764
 2637TIP3    H129402   6.160   3.602   5.543  0.8178 -1.1743 -0.7188
 2637TIP3    H229403   6.055   3.621   5.436 -0.0028 -4.1374 -0.4700
 2638TIP3   OH229404   1.817   6.258   3.572  0.0958 -0.0269  0.1047
 2638TIP3    H129405   1.821   6.352   3.554  4.0308 -0.4294 -1.8665
 2638TIP3    H229406   1.768   6.221   3.498  0.7912  0.2262 -0.4885
 2639TIP3   OH229407   0.038   0.234  12.774 -0.3756 -0.0395  0.1484
 2639TIP3    H129408   0.087   0.290  12.835 -2.1355  0.2814  1.3020
 2639TIP3    H229409   0.102   0.167  12.748  1.4412  1.8500 -0.4348
 2640TIP3   OH229410   1.474   4.398  15.722  0.5775  0.2398 -0.5157
 2640TIP3    H129411   1.409   4.366  15.785  0.8432  0.9340  0.1222
 2640TIP3    H229412   1.527   4.322  15.700  1.0583  0.1950  0.8054
 2641TIP3   OH229413   6.450   6.156   2.655 -0.2248 -0.4828  0.1697
 2641TIP3    H129414   6.457   6.157   2.559 -0.0887 -0.3953  0.1807
 2641TIP3    H229415   6.475   6.067   2.680  1.2435 -0.0555  0.2389
 2642TIP3   OH229416   3.032   4.844   5.526 -0.3434 -0.1242  0.3540
 2642TIP3    H129417   2.973   4.787   5.575  0.5665 -0.0770  1.5466
 2642TIP3    H229418   3.041   4.921   5.582  0.6363 -0.0228  0.0570
 2643TIP3   OH229419   5.396   1.265   1.609  0.4494  0.1071  0.0040
 2643TIP3    H129420   5.437   1.187   1.646 -0.4804 -0.8396 -0.9753
 2643TIP3    H229421   5.377   1.320   1.686  1.0873 -0.6162  0.6887
 2644TIP3   OH229422   5.293   3.653   2.428 -0.2413 -0.6816  0.4019
 2644TIP3    H129423   5.226   3.586   2.417 -0.8630  0.2062 -1.3894
 2644TIP3    H229424   5.313   3.682   2.339  3.9520 -2.2945  0.7334
 2645TIP3   OH229425   1.164   3.607   2.518 -0.6456 -0.1007 -0.1093
 2645TIP3    H129426   1.231   3.608   2.450 -0.3111 -0.1515  0.2201
 2645TIP3    H229427   1.178   3.525   2.566 -0.6696  0.0918  0.2312
 2646TIP3   OH229428   3.644   5.610  13.205  0.0781 -0.8527  0.0374
 2646TIP3    H129429   3.550   5.596  13.215 -0.0406 -0.4437 -0.4993
 2646TIP3    H229430   3.668   5.667  13.278 -0.1777 -0.5741 -0.0962
 2647TIP3   OH229431   2.927   6.337  12.713 -0.1822  0.0887 -0.0820
 2647TIP3    H129432   2.937   6.400  12.641  1.4598  0.2366  0.2643
 2647TIP3    H229433   2.851   6.284  12.688  0.8913 -0.4373 -2.3755
 2648TIP3   OH229434   5.891   2.021  14.848  0.1547 -0.0252  0.0717
 2648TIP3    H129435   5.886   2.035  14.754 -0.9035  0.9062  0.2643
 2648TIP3    H229436   5.981   2.045  14.871  0.4968 -0.5147 -0.7361
 2649TIP3   OH229437   0.147   0.748   4.021  0.0388  0.2011 -0.2289
 2649TIP3    H129438   0.184   0.816   4.078  0.1882  0.1603 -0.2764
 2649TIP3    H229439   0.195   0.756   3.939 -0.1385  0.2221 -0.3307
 2650TIP3   OH229440   1.074   1.438  16.274  0.3068  0.2694 -0.1633
 2650TIP3    H129441   1.141   1.494  16.314  1.0086 -1.2048  0.7675
 2650TIP3    H229442   1.083   1.454  16.180  0.5766  1.6103  0.0731
 2651TIP3   OH229443   1.072   3.169   5.335 -0.3757  0.0488 -0.2074
 2651TIP3    H129444   0.998   3.127   5.291 -1.4528 -1.0027  2.5114
 2651TIP3    H229445   1.056   3.154   5.428  1.8032  2.2633  0.5662
 2652TIP3   OH229446   0.374   1.290  14.455 -0.3084  0.3314  0.3766
 2652TIP3    H129447   0.331   1.352  14.396  0.0212 -0.2698 -0.5099
 2652TIP3    H229448   0.308   1.223  14.472 -0.5993  0.8156  1.1738
 2653TIP3   OH229449   6.001   4.927   5.342 -0.1881 -0.2979 -0.3348
 2653TIP3    H129450   6.069   4.882   5.393  0.7389  1.6621  0.2014
 2653TIP3    H229451   6.040   4.939   5.256  0.3850  1.3462  0.1441
 2654TIP3   OH229452   3.840   3.840  11.980  0.1234  0.2596 -0.1609
 2654TIP3    H129453   3.774   3.836  11.911 -0.3715  2.4933  0.1561
 2654TIP3    H229454   3.794   3.811  12.059 -0.4956  1.8190  0.0605
 2655TIP3   OH229455   6.604   5.539   5.399 -0.1030  0.1994 -0.3619
 2655TIP3    H129456   6.509   5.538   5.393 -0.1740  1.1602  0.4462
 2655TIP3    H229457   6.628   5.630   5.380  0.5825  0.1849  0.4213
 2656TIP3   OH229458   2.792   2.589   4.824  0.3526  0.5546 -0.0661
 2656TIP3    H129459   2.788   2.676   4.864  1.3768  0.6198 -0.0830
 2656TIP3    H229460   2.857   2.541   4.876 -1.9726 -1.0216  1.4536
 2657TIP3   OH229461   2.927   1.352  12.554 -0.4514 -0.5435 -0.0769
 2657TIP3    H129462   2.897   1.440  12.530  0.6025 -0.5937 -1.6508
 2657TIP3    H229463   2.869   1.293  12.507  0.2355 -0.6573 -0.8013
 2658TIP3   OH229464   6.074   6.370  13.669  0.2464  0.4030  0.3041
 2658TIP3    H129465   6.132   6.298  13.643  0.6571  0.6559  0.5279
 2658TIP3    H229466   5.994   6.326  13.700  0.9669 -0.0002  1.6183
 2659TIP3   OH229467   6.414   0.381   4.294  0.0188  0.3955  0.0626
 2659TIP3    H129468   6.491   0.378   4.351  1.1295 -1.0763 -1.5014
 2659TIP3    H229469   6.448   0.371   4.206 -1.9888 -0.4145 -0.6473
 2660TIP3   OH229470   6.343   2.864  15.065 -0.1670  0.0595 -0.3283
 2660TIP3    H129471   6.426   2.839  15.025 -0.4357 -1.1305 -0.1439
 2660TIP3    H229472   6.287   2.787  15.056 -0.8826  0.4675  0.5620
 2661TIP3   OH229473   3.281   3.671  16.542  0.2627 -0.2554  0.1830
 2661TIP3    H129474   3.233   3.754  16.538  0.3983 -0.2302 -1.5015
 2661TIP3    H229475   3.212   3.604  16.541  0.1999 -0.1874 -0.5707
 2662TIP3   OH229476   1.900   4.794  16.386  0.4592 -0.4726 -0.3501
 2662TIP3    H129477   1.883   4.878  16.429  0.2017 -0.5353 -0.3259
 2662TIP3    H229478   1.983   4.807  16.339 -0.4124  0.3477 -1.7310
 2663TIP3   OH229479   0.824   0.160  12.195  0.4690  0.6773 -0.6438
 2663TIP3    H129480   0.893   0.175  12.259 -0.9440 -0.0662  1.0966
 2663TIP3    H229481   0.841   0.072  12.160 -0.5017 -0.2031  1.0070
 2664TIP3   OH229482   0.974   3.694   3.459  0.5002  0.3038 -0.1985
 2664TIP3    H129483   0.911   3.757   3.425  1.4837  1.6054  0.3573
 2664TIP3    H229484   0.966   3.619   3.400 -1.4223  0.5146 -0.2392
 2665TIP3   OH229485   2.105   0.726  12.705  0.4376 -0.4480 -0.2389
 2665TIP3    H129486   2.051   0.787  12.655  0.3327 -0.9304 -0.7184
 2665TIP3    H229487   2.083   0.745  12.797 -0.6512 -0.7281 -0.4291
 2666TIP3   OH229488   3.423   6.200   0.260 -0.4418  0.7892 -0.3017
 2666TIP3    H129489   3.431   6.115   0.304  0.6751  1.3335  0.5854
 2666TIP3    H229490   3.457   6.185   0.172 -0.2489  0.3185 -0.1478
 2667TIP3   OH229491   4.779   2.291   3.510 -0.1670  0.1305  0.3155
 2667TIP3    H129492   4.689   2.300   3.478  0.0826 -1.5228 -0.9009
 2667TIP3    H229493   4.832   2.280   3.431  0.8926 -0.5239  1.0998
 2668TIP3   OH229494   2.931   6.364   3.358  0.3828  0.2197 -0.0163
 2668TIP3    H129495   3.015   6.322   3.339  0.8257  0.7065  0.8411
 2668TIP3    H229496   2.948   6.419   3.434 -0.1859  1.9510 -1.1039
 2669TIP3   OH229497   6.329   5.560   1.057 -0.2976 -0.2795  0.2530
 2669TIP3    H129498   6.371   5.549   0.972 -1.6865  0.1927 -0.5074
 2669TIP3    H229499   6.382   5.507   1.117  1.6575  0.7109 -0.5793
 2670TIP3   OH229500   3.737   0.902   3.765 -0.6648 -0.3829 -0.0644
 2670TIP3    H129501   3.760   0.834   3.828 -0.1668  0.5697  0.8058
 2670TIP3    H229502   3.694   0.970   3.818  0.9066  0.9953 -0.5245
 2671TIP3   OH229503   4.226   6.535  16.291 -0.2967  0.0065  0.0734
 2671TIP3    H129504   4.205   6.480  16.216  0.6871 -1.1698  0.6445
 2671TIP3    H229505   4.289   6.483  16.342  1.3332  1.9897  0.1604
 2672TIP3   OH229506   6.757   4.298  13.196  0.1944 -0.5433 -0.2585
 2672TIP3    H129507   6.779   4.219  13.246  1.9757  0.9910  1.4452
 2672TIP3    H229508   6.842   4.333  13.168 -0.6356  0.2269 -1.8732
 2673TIP3   OH229509   4.169   2.931  13.792  0.1610 -0.0217 -0.2178
 2673TIP3    H129510   4.227   2.866  13.831  1.1314  1.0585  0.1802
 2673TIP3    H229511   4.198   3.015  13.829 -2.4236  0.4134  0.9246
 2674TIP3   OH229512   5.930   4.298  12.308 -0.0967 -0.4999  0.3688
 2674TIP3    H129513   5.847   4.258  12.281 -0.3479  0.1041  0.2471
 2674TIP3    H229514   5.943   4.370  12.246  1.2111 -1.4390 -0.4818
 2675TIP3   OH229515   0.365   6.400   6.045  0.8004  0.7043 -0.1806
 2675TIP3    H129516   0.360   6.446   6.129  2.2750 -0.3239  0.4874
 2675TIP3    H229517   0.283   6.422   6.001 -0.0958  1.0819  1.6148
 2676TIP3   OH229518   5.863   0.183   5.614  0.3168  0.5811  0.2319
 2676TIP3    H129519   5.878   0.239   5.538  0.8454 -0.9455 -0.8078
 2676TIP3    H229520   5.769   0.167   5.614  0.5179 -0.7470 -1.0858
 2677TIP3   OH229521   3.849   0.114  16.233  0.7235  0.1323  0.3883
 2677TIP3    H129522   3.897   0.107  16.315 -1.0297  1.8602  1.6046
 2677TIP3    H229523   3.789   0.039  16.234  0.1812  0.5634  1.0703
 2678TIP3   OH229524   5.621   3.718  17.155  0.5791 -0.1234 -0.4986
 2678TIP3    H129525   5.652   3.640  17.201 -1.7292 -0.7480  0.0778
 2678TIP3    H229526   5.665   3.790  17.199  0.3964 -0.9031  1.0051
 2679TIP3   OH229527   2.022   3.693  15.368 -0.2248 -0.1346  0.3854
 2679TIP3    H129528   1.927   3.682  15.377 -0.0896 -1.4991  0.3031
 2679TIP3    H229529   2.055   3.604  15.351  1.0030  0.4087 -0.1716
 2680TIP3   OH229530   3.470   1.219   4.475 -0.3190 -0.3149  0.4275
 2680TIP3    H129531   3.382   1.232   4.510 -0.5245 -0.3724 -0.0590
 2680TIP3    H229532   3.529   1.257   4.540 -0.7582  0.5567  0.3184
 2681TIP3   OH229533   4.677   2.715   3.156 -0.3479  0.0068  0.3735
 2681TIP3    H129534   4.698   2.689   3.066  0.4743 -0.4190  0.6828
 2681TIP3    H229535   4.591   2.678   3.173 -1.3450  1.6718 -0.8895
 2682TIP3   OH229536   1.819   0.690   2.892  1.2685 -0.2781  0.1258
 2682TIP3    H129537   1.732   0.728   2.879  1.6372  0.3514 -0.5033
 2682TIP3    H229538   1.858   0.687   2.805  1.3074 -1.9800  0.1785
 2683TIP3   OH229539   3.282   1.260  11.854  0.3807 -0.2037  0.2342
 2683TIP3    H129540   3.247   1.329  11.797  2.7298  1.2381  0.5115
 2683TIP3    H229541   3.287   1.183  11.797 -0.0933  0.4457 -0.6984
 2684TIP3   OH229542   0.515   5.285   4.742 -0.6295  0.5460  0.3639
 2684TIP3    H129543   0.475   5.312   4.825  1.1377 -1.7785  2.0578
 2684TIP3    H229544   0.600   5.329   4.741 -0.0338 -0.6006  0.4937
 2685TIP3   OH229545   5.408   5.582  15.263 -0.5156  0.2995 -0.4778
 2685TIP3    H129546   5.377   5.668  15.235 -0.6513 -0.2921 -2.2321
 2685TIP3    H229547   5.421   5.590  15.357 -1.2220  2.0237 -0.5125
 2686TIP3   OH229548   4.134   3.005  11.768 -0.0366  0.1821 -0.0060
 2686TIP3    H129549   4.103   3.095  11.754  2.7127  0.9322 -1.5413
 2686TIP3    H229550   4.211   3.015  11.824 -0.1722 -1.3149  0.4546
 2687TIP3   OH229551   4.253   2.733  14.802  0.9623  0.7372  0.3878
 2687TIP3    H129552   4.248   2.770  14.714  0.9695  0.4460  0.2631
 2687TIP3    H229553   4.344   2.704  14.810  0.5202 -0.8825 -0.1942
 2688TIP3   OH229554   0.263   6.428  13.301  0.1938 -0.0200 -0.1192
 2688TIP3    H129555   0.283   6.382  13.220 -0.6150  1.9215 -1.4559
 2688TIP3    H229556   0.169   6.447  13.295  0.5749  2.0760  0.2375
 2689TIP3   OH229557   1.698   6.175  13.177 -0.4723 -0.5093 -0.1925
 2689TIP3    H129558   1.736   6.160  13.263 -0.9304 -2.0246 -0.2426
 2689TIP3    H229559   1.632   6.243  13.191  0.9161  0.7760  0.2352
 2690TIP3   OH229560   4.295   5.725   4.652 -0.9018  0.1852  0.5687
 2690TIP3    H129561   4.250   5.760   4.575 -1.2392  1.5266  1.3593
 2690TIP3    H229562   4.317   5.802   4.704  3.0139 -0.3546 -0.1524
 2691TIP3   OH229563   0.061   0.191   5.868 -0.0970  0.0122 -0.2462
 2691TIP3    H129564   0.030   0.175   5.957  0.8457  1.1264  0.3024
 2691TIP3    H229565   0.025   0.119   5.816 -0.7701 -0.5640  1.0097
 2692TIP3   OH229566   1.655   1.767  14.340  0.1058 -0.4692  0.1644
 2692TIP3    H129567   1.702   1.688  14.310 -1.9328 -1.3013 -0.9519
 2692TIP3    H229568   1.621   1.805  14.259 -1.5147 -0.1312  1.0059
 2693TIP3   OH229569   5.669   3.577   0.680  0.0021  0.5702  0.8999
 2693TIP3    H129570   5.607   3.513   0.714 -0.0793 -0.4276 -1.0877
 2693TIP3    H229571   5.729   3.526   0.625  0.9384  1.9370  0.6270
 2694TIP3   OH229572   5.879   0.879   4.636  0.3332  0.1836 -0.6161
 2694TIP3    H129573   5.968   0.885   4.670 -0.1903  0.1638  0.7766
 2694TIP3    H229574   5.874   0.950   4.572 -0.2757  3.7345  3.1404
 2695TIP3   OH229575   1.506   0.985  12.115 -0.3452  0.3109  0.5459
 2695TIP3    H129576   1.555   0.910  12.149 -0.7211 -0.1444  0.0931
 2695TIP3    H229577   1.573   1.053  12.104  0.4359 -0.6907 -1.2060
 2696TIP3   OH229578   3.161   0.718   6.766  0.1375 -0.2876  0.0192
 2696TIP3    H129579   3.122   0.772   6.835  0.0470  0.4282 -0.5849
 2696TIP3    H229580   3.253   0.707   6.793  0.2899  0.6165 -0.1258
 2697TIP3   OH229581   5.634   0.270  16.545  0.4898 -0.1458 -0.0377
 2697TIP3    H129582   5.701   0.226  16.492 -0.1646 -0.1261 -0.9045
 2697TIP3    H229583   5.552   0.224  16.522  0.1881 -0.0993  0.9214
 2698TIP3   OH229584   4.121   1.084  15.514  0.1058  0.1255 -0.1272
 2698TIP3    H129585   4.050   1.148  15.512  0.1767  0.2029 -0.1223
 2698TIP3    H229586   4.090   1.014  15.456 -0.4940 -0.3777  0.7859
 2699TIP3   OH229587   3.970   4.821  14.412  0.3873 -0.1281 -0.5186
 2699TIP3    H129588   3.920   4.762  14.468  1.4751 -2.4890 -1.9234
 2699TIP3    H229589   3.908   4.849  14.345  0.3003 -1.1211 -0.8623
 2700TIP3   OH229590   3.830   4.775   3.879 -0.1636  0.1132  0.4472
 2700TIP3    H129591   3.740   4.800   3.859 -0.9570 -1.3859  2.0304
 2700TIP3    H229592   3.878   4.795   3.799 -1.8958  0.9189 -0.4294
 2701TIP3   OH229593   0.805   4.610   5.057  0.5124  0.0862  0.4700
 2701TIP3    H129594   0.816   4.521   5.090  2.4143 -0.4511 -1.4770
 2701TIP3    H229595   0.782   4.599   4.965  0.5986  1.5927  0.2542
 2702TIP3   OH229596   4.710   1.519   0.017  0.2816 -0.2862 -0.1942
 2702TIP3    H129597   4.797   1.530  -0.021  0.6039  0.8242  0.8606
 2702TIP3    H229598   4.707   1.426   0.040  0.8510 -0.5254 -1.0604
 2703TIP3   OH229599   6.442   5.308   2.078 -0.0655  0.0073 -0.1253
 2703TIP3    H129600   6.416   5.361   2.154 -0.9528 -0.2609 -0.2272
 2703TIP3    H229601   6.410   5.220   2.098 -1.3699  0.1855 -1.3172
 2704TIP3   OH229602   6.715   6.477   2.591  0.3100  0.6983  0.1575
 2704TIP3    H129603   6.657   6.452   2.663  1.1497  0.6486  0.8290
 2704TIP3    H229604   6.694   6.415   2.521 -1.0120  1.1961  0.1006
 2705TIP3   OH229605   1.210   3.217  15.452 -0.2958  0.3692 -0.0170
 2705TIP3    H129606   1.234   3.133  15.491  0.4811  0.3076 -0.5970
 2705TIP3    H229607   1.136   3.249  15.504 -0.4977 -0.6059  0.2946
 2706TIP3   OH229608   1.049   4.636   3.263 -0.5532  0.0920  0.1512
 2706TIP3    H129609   1.059   4.632   3.359  0.9315 -1.2965 -0.0297
 2706TIP3    H229610   1.033   4.545   3.238  1.4821  0.0793 -1.1578
 2707TIP3   OH229611   4.257   4.908   0.706  0.5748  0.2298 -0.4815
 2707TIP3    H129612   4.267   4.898   0.611  1.5663 -0.1751 -0.3320
 2707TIP3    H229613   4.251   5.003   0.719  2.5439  0.4033 -0.7444
 2708TIP3   OH229614   1.445   0.069   4.704 -0.2383  0.8035 -0.1847
 2708TIP3    H129615   1.356   0.096   4.680 -0.8673 -0.6402  0.4722
 2708TIP3    H229616   1.441  -0.027   4.705  1.6615  0.6813 -1.4164
 2709TIP3   OH229617   4.870   2.292  16.387 -0.0354 -0.4192 -0.2234
 2709TIP3    H129618   4.817   2.316  16.463  0.4618 -0.1698  0.0446
 2709TIP3    H229619   4.878   2.197  16.392  0.3760 -0.3568  0.2822
 2710TIP3   OH229620   0.069   2.102  16.635 -0.2299  0.1778 -0.0812
 2710TIP3    H129621   0.036   2.178  16.586 -0.3271 -0.7340 -1.4559
 2710TIP3    H229622   0.019   2.028  16.601 -0.4033 -0.4526  1.5272
 2711TIP3   OH229623   5.606   5.104  15.053 -0.0887 -0.1804 -0.0352
 2711TIP3    H129624   5.700   5.120  15.049  0.1896 -1.2417  1.7421
 2711TIP3    H229625   5.579   5.094  14.961  2.0774 -2.9125 -0.4251
 2712TIP3   OH229626   1.390   0.213  14.002  0.1047  0.4968 -0.1956
 2712TIP3    H129627   1.297   0.225  13.984  0.3454 -0.0491 -1.8829
 2712TIP3    H229628   1.423   0.301  14.018 -0.6155  0.7421 -0.0475
 2713TIP3   OH229629   6.748   0.203   3.654 -0.4113 -0.0612 -0.6301
 2713TIP3    H129630   6.748   0.282   3.601  3.8986  2.5402  2.9354
 2713TIP3    H229631   6.834   0.164   3.638 -0.5431 -1.2751  1.5114
 2714TIP3   OH229632   4.481   5.304   1.841 -0.4317  0.1903  0.3474
 2714TIP3    H129633   4.574   5.324   1.849 -0.8022  1.4716  1.8103
 2714TIP3    H229634   4.475   5.209   1.850  0.6876  0.1506  0.7051
 2715TIP3   OH229635   3.594   5.047  16.439  0.0725 -0.4192  0.7280
 2715TIP3    H129636   3.635   5.026  16.523  0.3029  2.4048  1.3931
 2715TIP3    H229637   3.665   5.046  16.376  0.4303  0.2949  1.1119
 2716TIP3   OH229638   1.758   2.218  16.861 -0.1517  0.3179  0.0172
 2716TIP3    H129639   1.849   2.217  16.830 -0.1735  1.6432 -0.1007
 2716TIP3    H229640   1.759   2.276  16.937 -0.5043 -1.3171  1.3108
 2717TIP3   OH229641   2.510   3.931   0.209 -0.3583 -0.3496  0.3453
 2717TIP3    H129642   2.450   3.882   0.153  0.4610 -0.8532 -0.0938
 2717TIP3    H229643   2.485   3.907   0.298 -0.1869 -1.2797  0.1395
 2718TIP3   OH229644   3.107   0.976   1.219 -0.0109 -0.8477 -0.6175
 2718TIP3    H129645   3.084   0.932   1.301 -1.0837  0.1203 -0.3899
 2718TIP3    H229646   3.188   0.934   1.192  0.8539 -0.5829  1.4156
 2719TIP3   OH229647   5.695   4.740  12.667  0.2376 -0.5538 -0.3657
 2719TIP3    H129648   5.736   4.755  12.581 -0.4881  0.5342 -0.5273
 2719TIP3    H229649   5.602   4.728  12.648  0.0238  0.0289  0.3001
 2720TIP3   OH229650   3.045   0.866  12.772 -0.5479 -0.0380  0.8062
 2720TIP3    H129651   3.048   0.771  12.787  0.4806 -0.1514 -0.0833
 2720TIP3    H229652   3.121   0.900  12.819 -0.6494  0.2953  0.7303
 2721TIP3   OH229653   3.085   0.271  11.619 -0.0593 -0.5184 -0.3247
 2721TIP3    H129654   3.170   0.264  11.662 -0.6069 -1.1994  0.6624
 2721TIP3    H229655   3.076   0.188  11.571  0.5752  0.2596 -1.8358
 2722TIP3   OH229656   0.524   0.708   4.805 -0.0511  0.3290 -0.1516
 2722TIP3    H129657   0.501   0.622   4.771 -0.8570 -0.3737  2.0763
 2722TIP3    H229658   0.463   0.722   4.877  0.5090  2.4833 -0.0680
 2723TIP3   OH229659   3.630   3.532   6.367  0.1660  0.7021 -0.9258
 2723TIP3    H129660   3.606   3.593   6.297 -0.9730 -0.2887 -1.4257
 2723TIP3    H229661   3.550   3.481   6.382  0.2052  1.3287  1.5294
 2724TIP3   OH229662   3.974   2.643  13.878 -0.3436 -0.0851 -0.3321
 2724TIP3    H129663   3.938   2.730  13.859 -0.2262  0.3905  1.5106
 2724TIP3    H229664   3.986   2.602  13.792 -0.2036  1.8038 -1.2292
 2725TIP3   OH229665   0.893   3.584  14.392  0.2812  0.3813 -0.6318
 2725TIP3    H129666   0.957   3.532  14.442  0.7079  0.2625 -1.2965
 2725TIP3    H229667   0.947   3.640  14.336 -0.1854  1.2817 -0.1815
 2726TIP3   OH229668   5.366   4.083   5.514 -0.4689 -0.0718  0.4656
 2726TIP3    H129669   5.457   4.065   5.534 -0.6119 -3.0099 -1.1222
 2726TIP3    H229670   5.342   4.156   5.571  2.9809  1.0970  0.5345
 2727TIP3   OH229671   3.894   4.545  16.545  0.0132 -0.0867 -0.0313
 2727TIP3    H129672   3.861   4.608  16.481 -2.2706 -1.7345 -0.5488
 2727TIP3    H229673   3.834   4.551  16.619  1.7550  0.7146  1.3751
 2728TIP3   OH229674   4.982   1.373  15.093  0.6627 -0.1407 -0.5672
 2728TIP3    H129675   4.897   1.360  15.050 -0.0559 -0.3014  0.8493
 2728TIP3    H229676   4.976   1.319  15.172  1.7207  0.5982  0.0219
 2729TIP3   OH229677   4.963   3.442   0.163 -0.1377  0.4231 -0.1373
 2729TIP3    H129678   5.033   3.506   0.154  0.2157 -0.1306 -1.4517
 2729TIP3    H229679   4.987   3.391   0.241  0.6800  0.5203 -0.3205
 2730TIP3   OH229680   5.233   4.899   6.346 -0.0194 -0.0363 -0.4549
 2730TIP3    H129681   5.268   4.816   6.381 -1.4134 -0.0134  1.0400
 2730TIP3    H229682   5.300   4.964   6.368  0.1569 -0.4239  0.1675
 2731TIP3   OH229683   4.865   5.813   3.149  0.7056  0.5215 -0.4348
 2731TIP3    H129684   4.902   5.841   3.233 -0.0393  1.8717 -0.5523
 2731TIP3    H229685   4.863   5.717   3.156  1.8377  0.5545  0.5739
 2732TIP3   OH229686   3.096   0.959  15.966  0.0962  0.5598 -0.8359
 2732TIP3    H129687   3.092   0.910  16.048 -0.7368  1.8856 -0.0585
 2732TIP3    H229688   3.103   0.892  15.898 -0.6353 -0.6171  0.2288
 2733TIP3   OH229689   1.850   5.793  15.602  0.3677  0.3296 -0.4998
 2733TIP3    H129690   1.859   5.857  15.673  0.7822  2.1949 -2.1901
 2733TIP3    H229691   1.808   5.717  15.643 -0.4190  1.7976  1.4799
 2734TIP3   OH229692   5.978   2.548   2.882  0.5577 -0.4971  0.0379
 2734TIP3    H129693   6.042   2.593   2.827 -1.7123  1.1038 -1.3970
 2734TIP3    H229694   5.957   2.467   2.834  0.1245 -0.1086 -0.4345
 2735TIP3   OH229695   6.719   1.070   1.892  0.6406  0.2002  0.0050
 2735TIP3    H129696   6.813   1.061   1.877  0.5473  0.1860 -0.5608
 2735TIP3    H229697   6.712   1.100   1.983  1.2539  1.8875 -0.4890
 2736TIP3   OH229698   3.480   6.398  12.272 -0.4175 -0.6004 -0.4676
 2736TIP3    H129699   3.397   6.447  12.267 -1.3835 -2.2523 -1.0271
 2736TIP3    H229700   3.477   6.355  12.357 -0.1471 -0.7171 -0.5183
 2737TIP3   OH229701   2.347   0.133   0.331 -0.0685 -0.4740  0.4841
 2737TIP3    H129702   2.359   0.107   0.422 -1.7240  0.4502  0.9717
 2737TIP3    H229703   2.357   0.228   0.332 -1.8420 -0.2664  0.0100
 2738TIP3   OH229704   2.929   4.555  14.021 -0.6587 -0.3403  0.4102
 2738TIP3    H129705   2.841   4.526  13.998 -0.3867  0.9519 -2.4875
 2738TIP3    H229706   2.918   4.645  14.053 -0.5210 -0.6400  1.3309
 2739TIP3   OH229707   5.876   3.649   5.546  0.1638  0.2613  0.1164
 2739TIP3    H129708   5.880   3.554   5.534  0.3328  0.2880 -0.0515
 2739TIP3    H229709   5.838   3.661   5.633 -0.6964  0.0584 -0.2324
 2740TIP3   OH229710   4.070   3.888   5.653 -0.4005  0.1880  0.1406
 2740TIP3    H129711   4.161   3.897   5.681  0.3118 -0.5970 -1.8738
 2740TIP3    H229712   4.038   3.978   5.646  0.4628  0.4951  0.0531
 2741TIP3   OH229713   6.262   5.604  13.578 -0.0061  0.3155  0.3049
 2741TIP3    H129714   6.332   5.611  13.644 -1.4818  1.6128  1.7849
 2741TIP3    H229715   6.281   5.522  13.532  2.0628  0.2606  1.1683
 2742TIP3   OH229716   5.125   4.423   2.193  0.1286 -0.1980 -0.2058
 2742TIP3    H129717   5.040   4.396   2.156  0.5535 -1.0862 -0.5464
 2742TIP3    H229718   5.103   4.491   2.257 -0.7609  0.2670 -0.9839
 2743TIP3   OH229719   5.887   1.963  11.678 -0.5826 -0.1408 -0.3515
 2743TIP3    H129720   5.835   2.009  11.744 -0.3960  0.4715 -0.6202
 2743TIP3    H229721   5.825   1.908  11.631 -0.8440 -0.0225 -0.1416
 2744TIP3   OH229722   5.655   3.777  12.577 -0.8509 -0.3717  0.0676
 2744TIP3    H129723   5.689   3.788  12.665  0.9789 -0.0775 -0.6463
 2744TIP3    H229724   5.683   3.690  12.551 -0.1466  0.0847 -0.7374
 2745TIP3   OH229725   4.112   5.844   0.752  0.2384  0.5704 -1.0145
 2745TIP3    H129726   4.158   5.770   0.792  0.2227 -0.1588 -2.3129
 2745TIP3    H229727   4.081   5.810   0.668  2.7820  2.9059 -2.9718
 2746TIP3   OH229728   1.238   2.657  16.619 -0.4007  0.6617  0.5952
 2746TIP3    H129729   1.294   2.580  16.606 -0.0254  1.0814 -0.2541
 2746TIP3    H229730   1.199   2.674  16.534  0.1684  1.9254  0.5692
 2747TIP3   OH229731   0.269   1.809  16.165 -0.5963  0.4390 -0.2502
 2747TIP3    H129732   0.266   1.801  16.069 -0.8336 -0.3823 -0.1810
 2747TIP3    H229733   0.359   1.834  16.184 -0.0551 -1.2451 -0.5647
 2748TIP3   OH229734   1.369   3.958   2.933  0.1464 -0.0425  0.5818
 2748TIP3    H129735   1.394   3.865   2.940  2.0547  0.2454 -1.5226
 2748TIP3    H229736   1.317   3.962   2.852  1.0086  0.8785  0.0614
 2749TIP3   OH229737   0.136   0.056   3.994  0.2175  0.8109  0.6028
 2749TIP3    H129738   0.176   0.038   4.079  0.0725  0.1918  0.5448
 2749TIP3    H229739   0.206   0.095   3.942  0.4828  0.6073  0.8062
 2750TIP3   OH229740   3.241   5.369  12.030 -0.3642  0.1259  0.2400
 2750TIP3    H129741   3.196   5.347  12.111 -0.2609  1.0391  0.5533
 2750TIP3    H229742   3.260   5.285  11.989  1.3608 -0.4489  2.1331
 2751TIP3   OH229743   1.626   4.268  13.519  0.4468 -0.2384  0.0022
 2751TIP3    H129744   1.543   4.221  13.516 -0.6629  1.6036  0.7498
 2751TIP3    H229745   1.614   4.342  13.460  1.3606  0.3377  0.5161
 2752TIP3   OH229746   2.527   5.490   4.884 -0.3977 -0.3303  0.1552
 2752TIP3    H129747   2.448   5.437   4.894 -0.3657 -0.8242 -1.8287
 2752TIP3    H229748   2.597   5.426   4.868  0.0161  0.2085 -0.2214
 2753TIP3   OH229749   3.976   6.051  16.188  0.0880  0.3700 -0.1837
 2753TIP3    H129750   3.919   5.985  16.226 -1.3302  2.1658  0.8952
 2753TIP3    H229751   4.065   6.023  16.212 -0.4665 -1.2698  0.0115
 2754TIP3   OH229752   2.258   4.974  12.901  0.9810 -0.3100 -0.1128
 2754TIP3    H129753   2.317   4.970  12.826  1.0943 -0.4258 -0.0158
 2754TIP3    H229754   2.184   4.918  12.877  0.7179  0.1600 -0.4021
 2755TIP3   OH229755   1.629   2.834  11.490 -0.3963 -0.0325 -0.1158
 2755TIP3    H129756   1.631   2.921  11.530  0.2328  0.1665 -0.5662
 2755TIP3    H229757   1.701   2.835  11.427 -0.4950 -0.8211 -0.2492
 2756TIP3   OH229758   6.309   5.497   5.890  0.3133 -0.9008  0.0522
 2756TIP3    H129759   6.401   5.473   5.900  0.5038 -1.4002 -2.5735
 2756TIP3    H229760   6.305   5.587   5.923  1.4475 -1.3237  1.4280
 2757TIP3   OH229761   6.175   2.360   2.338 -0.4540 -0.4124  0.2574
 2757TIP3    H129762   6.081   2.349   2.349 -0.6819  0.9849 -0.1940
 2757TIP3    H229763   6.185   2.406   2.254  0.5656  0.4082  0.8101
 2758TIP3   OH229764   0.620   4.815  13.556  0.3794 -0.1787  0.1136
 2758TIP3    H129765   0.671   4.766  13.621 -0.5352 -0.3918  0.6801
 2758TIP3    H229766   0.532   4.819  13.593 -0.5040 -1.5307 -1.7721
 2759TIP3   OH229767   0.411   4.280  14.698  0.3202  0.2130  0.0714
 2759TIP3    H129768   0.355   4.255  14.771 -1.3733  0.9728 -0.9396
 2759TIP3    H229769   0.488   4.320  14.739 -0.9264  1.2551  1.4147
 2760TIP3   OH229770   4.828   5.021  14.371 -0.2140 -0.1206  0.0375
 2760TIP3    H129771   4.781   4.957  14.318 -0.4724  1.7788 -2.0895
 2760TIP3    H229772   4.760   5.072  14.415 -0.1589  1.7335 -1.9675
 2761TIP3   OH229773   3.311   0.729  11.655  0.4290  0.0940  0.5675
 2761TIP3    H129774   3.219   0.752  11.642  0.5200 -0.4035 -1.0478
 2761TIP3    H229775   3.320   0.718  11.749 -1.2338 -0.1312  0.7032
 2762TIP3   OH229776   2.002   5.492  13.906  0.3896  0.6122 -0.9771
 2762TIP3    H129777   2.041   5.545  13.837  0.2922  0.4840 -1.1302
 2762TIP3    H229778   2.019   5.401  13.880 -0.0032  0.5543 -1.0426
 2763TIP3   OH229779   1.928   1.023   0.859 -0.6551 -0.6962 -0.2224
 2763TIP3    H129780   2.019   1.009   0.833 -0.4964 -0.9547  0.4543
 2763TIP3    H229781   1.899   1.096   0.805 -0.3641 -1.2703 -1.1794
 2764TIP3   OH229782   5.678   3.663   1.869 -0.6248 -0.1460 -0.0500
 2764TIP3    H129783   5.701   3.749   1.834 -0.9734 -0.4396 -1.0153
 2764TIP3    H229784   5.645   3.680   1.957  3.4894  0.2796  1.5271
 2765TIP3   OH229785   3.870   2.761  16.939 -0.5111 -0.3610  0.2524
 2765TIP3    H129786   3.947   2.816  16.952  0.0543 -0.7112 -1.4712
 2765TIP3    H229787   3.810   2.816  16.887 -1.6069  0.0602  1.9217
 2766TIP3   OH229788   4.388   2.766  16.581 -0.4594  0.0631 -0.6658
 2766TIP3    H129789   4.413   2.674  16.586  0.8238  0.3809 -1.1048
 2766TIP3    H229790   4.468   2.814  16.601 -0.8800  1.1096 -1.4495
 2767TIP3   OH229791   1.448   6.071   2.608 -0.6937 -0.1747  0.0730
 2767TIP3    H129792   1.440   6.124   2.687 -0.7988  1.1062 -0.7762
 2767TIP3    H229793   1.531   6.024   2.619  0.1499  1.3071  0.1717
 2768TIP3   OH229794   6.432   5.008  13.007  0.0617 -0.1408  0.0291
 2768TIP3    H129795   6.512   5.048  13.043  1.1907 -1.9138 -0.4358
 2768TIP3    H229796   6.407   4.943  13.072  0.2205 -1.0563 -0.8148
 2769TIP3   OH229797   2.807   4.232   4.909 -0.6398 -0.7252  0.3848
 2769TIP3    H129798   2.744   4.161   4.923 -2.3816  0.8800  0.8720
 2769TIP3    H229799   2.761   4.311   4.938  1.6806  0.4655  0.9396
 2770TIP3   OH229800   4.696   4.084   4.445 -0.3037 -0.3120  0.6613
 2770TIP3    H129801   4.731   4.000   4.475 -0.0653  0.1627  1.7722
 2770TIP3    H229802   4.620   4.061   4.392  0.0385 -1.2497  0.5681
 2771TIP3   OH229803   3.526   6.471   1.103 -0.7597 -0.5078  0.3156
 2771TIP3    H129804   3.600   6.471   1.042 -0.7904  2.7633  0.2050
 2771TIP3    H229805   3.566   6.492   1.188 -1.6949  2.8065 -0.0087
 2772TIP3   OH229806   2.276   2.576  16.446  0.0057 -0.1621 -0.0311
 2772TIP3    H129807   2.205   2.633  16.475 -0.4702 -0.2243 -1.0734
 2772TIP3    H229808   2.352   2.634  16.439 -0.3804  0.2719 -0.6859
 2773TIP3   OH229809   0.803   6.078   4.170 -0.1641  0.3477 -0.2790
 2773TIP3    H129810   0.727   6.084   4.228  0.2358 -1.0242  0.4178
 2773TIP3    H229811   0.866   6.140   4.207  0.0133 -0.3764  0.6643
 2774TIP3   OH229812   2.027   3.349   0.016 -0.1148 -0.2804 -0.0464
 2774TIP3    H129813   1.962   3.355   0.086  0.3319  0.1974  0.3295
 2774TIP3    H229814   2.076   3.269   0.034  3.2351  2.2802  3.0079
 2775TIP3   OH229815   0.928   1.824  10.965  0.2216  0.2163  0.3889
 2775TIP3    H129816   0.921   1.909  11.008 -0.4163 -0.5203  1.7790
 2775TIP3    H229817   1.022   1.805  10.964  0.6310  2.0810 -2.2690
 2776TIP3   OH229818   0.199   0.560   5.680 -0.0366 -0.5287 -0.1575
 2776TIP3    H129819   0.152   0.641   5.659  2.5095  0.4811 -2.3181
 2776TIP3    H229820   0.252   0.583   5.757  0.7373 -0.1109 -0.8119
 2777TIP3   OH229821   4.415   6.499   5.041 -0.4549  0.0571  0.0247
 2777TIP3    H129822   4.505   6.525   5.061 -0.5969  0.5626  0.0403
 2777TIP3    H229823   4.371   6.582   5.019 -1.2435 -0.0052  1.2888
 2778TIP3   OH229824   1.926   1.285   1.993 -0.4093  0.1377  0.0388
 2778TIP3    H129825   1.929   1.363   1.937 -1.3685 -0.3711 -0.7493
 2778TIP3    H229826   1.848   1.238   1.963 -1.3801  0.2467  2.3223
 2779TIP3   OH229827   2.305   0.638  14.829 -0.1933  0.4781 -0.3166
 2779TIP3    H129828   2.268   0.675  14.908  1.0471 -1.1769  1.0718
 2779TIP3    H229829   2.236   0.583  14.792  0.5512 -2.0327  1.8801
 2780TIP3   OH229830   4.980   5.116  13.540  0.1058  0.0289 -0.1120
 2780TIP3    H129831   4.912   5.155  13.485  0.5469 -0.5050 -1.0523
 2780TIP3    H229832   4.963   5.022  13.536  2.5262 -0.3623 -2.6096
 2781TIP3   OH229833   6.780   1.584  13.648 -0.2898  0.2609  0.5501
 2781TIP3    H129834   6.810   1.591  13.739 -0.0215 -2.4537  0.7206
 2781TIP3    H229835   6.687   1.564  13.654 -0.7332  2.1739  0.1664
 2782TIP3   OH229836   0.004   6.110  15.735  0.1352  0.0363  0.2623
 2782TIP3    H129837  -0.065   6.150  15.788  0.7402  0.3486  0.8198
 2782TIP3    H229838   0.086   6.140  15.775  0.6035  0.6497 -1.1147
 2783TIP3   OH229839   1.063   4.040  16.666  0.2185  0.5506 -0.5457
 2783TIP3    H129840   1.157   4.034  16.681  0.0660  0.8949  0.5504
 2783TIP3    H229841   1.032   3.950  16.671  0.2027  0.6360  0.9988
 2784TIP3   OH229842   6.693   4.700   4.077  0.0914  0.0443 -0.0095
 2784TIP3    H129843   6.700   4.786   4.119 -1.1216  1.7072 -3.0633
 2784TIP3    H229844   6.753   4.704   4.003 -0.9936 -1.2387 -0.9819
 2785TIP3   OH229845   3.696   2.665  11.911 -0.2890  0.7825 -0.3485
 2785TIP3    H129846   3.662   2.706  11.990 -0.1331  0.4153 -0.0907
 2785TIP3    H229847   3.786   2.642  11.932 -0.8986 -1.2605  0.1082
 2786TIP3   OH229848   0.148   6.688  13.413 -0.0925  0.0065  0.1018
 2786TIP3    H129849   0.117   6.615  13.359  0.6972 -0.4958  0.3180
 2786TIP3    H229850   0.072   6.712  13.466  0.1340 -1.8524  1.3256
 2787TIP3   OH229851   0.695   3.070  14.709  0.3527 -0.0295  0.1179
 2787TIP3    H129852   0.706   3.084  14.615  0.0490  0.8920  0.2209
 2787TIP3    H229853   0.686   3.157  14.746  1.2546 -0.3531  1.1098
 2788TIP3   OH229854   4.069   1.973   6.271  0.4285  0.1901  0.0579
 2788TIP3    H129855   4.001   2.040   6.262 -0.6752 -1.0720 -1.2171
 2788TIP3    H229856   4.022   1.894   6.296  1.4344 -0.6601 -0.6810
 2789TIP3   OH229857   3.381   1.543   4.413 -1.2738  0.4217  0.1219
 2789TIP3    H129858   3.416   1.490   4.485  1.0573 -0.3826 -1.5333
 2789TIP3    H229859   3.341   1.479   4.354 -1.1217  0.8334 -0.4289
 2790TIP3   OH229860   1.029   0.084  14.903 -0.3034  0.1734 -0.1117
 2790TIP3    H129861   1.121   0.110  14.899 -0.5337  0.9260 -0.4996
 2790TIP3    H229862   0.981   0.166  14.909 -1.0519 -0.1335 -1.6270
 2791TIP3   OH229863   4.455   5.875  11.194  0.5272  0.4859 -0.2969
 2791TIP3    H129864   4.505   5.889  11.274 -0.6383  0.0636  0.5258
 2791TIP3    H229865   4.521   5.871  11.124  1.5821  0.4895  0.6849
 2792TIP3   OH229866   4.203   4.819   5.079 -0.6052 -0.2959  0.1812
 2792TIP3    H129867   4.208   4.746   5.017 -0.5695  0.2547 -0.4766
 2792TIP3    H229868   4.222   4.897   5.025  2.2067 -0.0756  1.3992
 2793TIP3   OH229869   2.844   3.505   5.020 -0.1525 -0.3380  0.3436
 2793TIP3    H129870   2.919   3.447   5.003 -0.7352 -1.9235  2.9318
 2793TIP3    H229871   2.857   3.579   4.961  1.9895 -1.9044 -1.2063
 2794TIP3   OH229872   0.186   4.498  13.505 -0.0545  0.3099 -0.4454
 2794TIP3    H129873   0.150   4.529  13.422 -0.9896 -2.1468 -1.0076
 2794TIP3    H229874   0.117   4.443  13.541  1.4068 -0.8293  0.6498
 2795TIP3   OH229875   2.053   1.507   4.031  0.4458 -0.1344 -0.5404
 2795TIP3    H129876   2.147   1.496   4.047  0.7524 -1.0597 -2.8857
 2795TIP3    H229877   2.023   1.422   3.999 -1.4692 -0.2126  1.3348
 2796TIP3   OH229878   2.861   6.732   1.007 -0.6491  0.0490  0.0640
 2796TIP3    H129879   2.894   6.731   0.917 -0.3081 -0.4038  0.1929
 2796TIP3    H229880   2.893   6.815   1.043 -0.7701  0.2235 -0.2256
 2797TIP3   OH229881   2.785   4.982  16.032 -0.3519 -0.4666 -0.0278
 2797TIP3    H129882   2.731   4.991  16.111 -2.4961 -1.2956 -1.3559
 2797TIP3    H229883   2.875   4.982  16.065 -1.0959  1.3999  2.2083
 2798TIP3   OH229884   1.771   1.115  14.222  0.4371  0.2242 -0.2709
 2798TIP3    H129885   1.689   1.118  14.271  0.1960  1.1742 -0.7165
 2798TIP3    H229886   1.814   1.035  14.251 -1.3157 -1.0284 -1.1015
 2799TIP3   OH229887   1.332   1.390   0.695  0.0639  0.5212  0.0826
 2799TIP3    H129888   1.404   1.351   0.745  0.9825  1.2535 -0.6576
 2799TIP3    H229889   1.334   1.482   0.718 -0.3516  0.6267 -0.2958
 2800TIP3   OH229890   3.850   4.844  12.994 -0.6656  0.1559 -0.4005
 2800TIP3    H129891   3.798   4.924  13.007 -0.5808 -0.0158  1.1589
 2800TIP3    H229892   3.790   4.773  13.013  0.3625 -0.0180  2.4665
 2801TIP3   OH229893   6.589   4.983   6.498  0.3777  0.6094 -0.7902
 2801TIP3    H129894   6.609   4.892   6.475 -2.1394 -0.6604  1.6804
 2801TIP3    H229895   6.631   4.995   6.584 -1.4026  0.9302  0.0531
 2802TIP3   OH229896   6.482   5.046  15.230 -0.0470  0.3814 -0.1414
 2802TIP3    H129897   6.552   5.027  15.169 -0.9936 -1.8428 -0.5781
 2802TIP3    H229898   6.405   5.064  15.175 -0.3994  0.4689  0.3661
 2803TIP3   OH229899   0.400   0.199   2.590  0.0487  0.1105  0.1291
 2803TIP3    H129900   0.493   0.216   2.608 -0.2016  0.9755  0.6719
 2803TIP3    H229901   0.366   0.284   2.562 -0.5095 -0.2767 -0.3654
 2804TIP3   OH229902   4.185   1.384  15.234 -0.3008  0.0003  0.3241
 2804TIP3    H129903   4.094   1.406  15.254 -0.9820 -2.9961  0.8014
 2804TIP3    H229904   4.184   1.360  15.141  0.1614  0.7426  0.1275
 2805TIP3   OH229905   5.200   0.313   5.855 -0.1661 -0.1070 -0.1897
 2805TIP3    H129906   5.153   0.386   5.815  0.3449  0.7798  0.7726
 2805TIP3    H229907   5.134   0.266   5.905  0.0654  1.5876  1.7907
 2806TIP3   OH229908   3.901   1.290  14.199 -0.3714 -0.4392  1.1603
 2806TIP3    H129909   3.969   1.318  14.261  0.4274 -2.6687  1.3131
 2806TIP3    H229910   3.869   1.207  14.233 -1.9250 -0.2991  0.0967
 2807TIP3   OH229911   4.748   6.606  15.983 -0.2610  0.3980  0.3526
 2807TIP3    H129912   4.711   6.570  15.903  2.0904  0.3891 -0.7546
 2807TIP3    H229913   4.788   6.689  15.956  1.0474  0.1249  1.3729
 2808TIP3   OH229914   4.522   6.632   5.772  0.5855  0.5437 -0.5881
 2808TIP3    H129915   4.435   6.669   5.786  0.6180  0.6127 -0.5694
 2808TIP3    H229916   4.564   6.636   5.858 -0.6259 -2.7125  0.2245
 2809TIP3   OH229917   3.530   6.056  14.003  0.0038 -0.7772  0.1854
 2809TIP3    H129918   3.545   5.983  14.063  1.1562  0.3088  1.2635
 2809TIP3    H229919   3.482   6.121  14.055  1.9119  0.5996  0.2832
 2810TIP3   OH229920   0.367   2.085  15.808  0.4762 -0.3074 -0.3226
 2810TIP3    H129921   0.421   2.162  15.824  0.0385 -0.0930  0.1542
 2810TIP3    H229922   0.391   2.024  15.878 -0.5170  0.1284  0.4076
 2811TIP3   OH229923   5.935   0.094  17.134 -0.1708 -0.2121  0.1002
 2811TIP3    H129924   5.888   0.028  17.186 -1.6215  1.2100  0.6150
 2811TIP3    H229925   6.002   0.044  17.087 -0.7582 -1.9471  1.0650
 2812TIP3   OH229926   4.322   5.983  15.911 -0.0432  0.4066  0.4802
 2812TIP3    H129927   4.392   5.995  15.847 -0.6295  0.2371 -0.1918
 2812TIP3    H229928   4.295   5.892  15.902 -0.3481  0.4676  0.7410
 2813TIP3   OH229929   5.145   4.459   5.069  0.3103 -0.0938  0.1786
 2813TIP3    H129930   5.176   4.550   5.070 -1.8953  0.7227 -1.2541
 2813TIP3    H229931   5.178   4.423   4.988  0.8167 -0.4395  0.5380
 2814TIP3   OH229932   0.071   1.115  12.545  0.1859  0.3890  0.3537
 2814TIP3    H129933   0.078   1.026  12.511 -0.6631  1.1495 -1.9318
 2814TIP3    H229934   0.029   1.105  12.631 -0.0777 -1.3910  0.0367
 2815TIP3   OH229935   6.711   6.060   6.012 -0.7154  0.1100 -0.1406
 2815TIP3    H129936   6.791   6.112   6.026  0.3999 -1.5301 -0.2160
 2815TIP3    H229937   6.647   6.097   6.072  0.1289  1.3925 -0.0108
 2816TIP3   OH229938   3.906   6.764   4.030  0.3840 -0.6335  0.7503
 2816TIP3    H129939   3.836   6.707   4.063 -0.7058  1.1687  1.6063
 2816TIP3    H229940   3.959   6.784   4.107  1.5203 -1.5208  0.2089
 2817TIP3   OH229941   5.673   1.646  14.221 -0.1059  0.0108  0.1986
 2817TIP3    H129942   5.680   1.609  14.309 -0.2229  0.0546  0.2270
 2817TIP3    H229943   5.585   1.685  14.218  0.4078  1.2313  0.5402
 2818TIP3   OH229944   3.175   2.972  14.578  0.2097  0.0790 -0.5756
 2818TIP3    H129945   3.084   3.001  14.582  0.8224  1.9101  2.0858
 2818TIP3    H229946   3.189   2.926  14.661  2.7555  3.3504  0.9271
 2819TIP3   OH229947   1.842   1.653  11.210 -0.1697 -0.2271  0.2383
 2819TIP3    H129948   1.935   1.676  11.204 -0.6514  1.5003 -0.7464
 2819TIP3    H229949   1.818   1.624  11.122 -1.1813  1.7754 -0.1718
 2820TIP3   OH229950   0.402   5.651  14.701  0.3532 -0.0045  0.0627
 2820TIP3    H129951   0.338   5.630  14.634 -1.2555  1.0664  1.2338
 2820TIP3    H229952   0.408   5.572  14.755  1.3117 -0.7041 -1.0580
 2821TIP3   OH229953   3.115   6.524  13.324 -0.3224 -0.0750 -0.2675
 2821TIP3    H129954   3.190   6.473  13.291 -1.4367 -0.2958 -2.5175
 2821TIP3    H229955   3.041   6.464  13.318 -0.9203  0.5461  0.8168
 2822TIP3   OH229956   2.430   1.140  14.946  0.2493  0.2590 -0.4345
 2822TIP3    H129957   2.470   1.168  14.863  3.2878  1.0791  1.2165
 2822TIP3    H229958   2.412   1.221  14.993  0.9118 -0.2507  0.7373
 2823TIP3   OH229959   6.657   4.305  11.363  0.0680  0.3824  0.0332
 2823TIP3    H129960   6.609   4.223  11.354 -0.0829  0.1349  2.5291
 2823TIP3    H229961   6.646   4.349  11.279 -0.3657 -1.8723 -1.1235
 2824TIP3   OH229962   0.057   0.795   5.759  0.1382  0.2374  0.0538
 2824TIP3    H129963   0.045   0.802   5.854  2.2985 -1.3652  0.4790
 2824TIP3    H229964   0.095   0.879   5.733 -1.7535  1.2226  0.3469
 2825TIP3   OH229965   0.210   0.381  12.927 -0.0469 -0.3558 -0.0311
 2825TIP3    H129966   0.235   0.380  13.020  0.2847  1.2421 -0.0807
 2825TIP3    H229967   0.289   0.408  12.881 -0.8357  1.2254 -0.5311
 2826TIP3   OH229968   5.337   1.111   0.991 -0.0170  0.2130  0.1423
 2826TIP3    H129969   5.364   1.200   1.010 -0.2842  0.3906 -0.2931
 2826TIP3    H229970   5.368   1.095   0.902  0.1985 -0.1947  0.2894
 2827TIP3   OH229971   6.599   5.143   2.995 -0.1216 -0.3233 -0.3024
 2827TIP3    H129972   6.681   5.098   3.012 -0.9015 -1.7542 -0.2158
 2827TIP3    H229973   6.538   5.073   2.972 -1.3094  0.7173 -0.3722
 2828TIP3   OH229974   1.102   6.079   0.702  0.3773  0.3865  0.1053
 2828TIP3    H129975   1.039   6.105   0.769 -0.0359 -1.0374  0.2833
 2828TIP3    H229976   1.176   6.043   0.752  0.1536 -0.4854 -0.1886
 2829TIP3   OH229977   2.664   4.779  15.904  0.1104  0.0633  0.5280
 2829TIP3    H129978   2.581   4.759  15.946  0.8726 -1.9678  1.1273
 2829TIP3    H229979   2.700   4.851  15.956 -0.6632  0.0715  1.0698
 2830TIP3   OH229980   2.093   5.022   2.262 -0.1838  0.0983 -0.2248
 2830TIP3    H129981   2.053   5.098   2.219 -0.1036  0.5181  0.4347
 2830TIP3    H229982   2.186   5.044   2.266 -0.3495  0.5328  1.1474
 2831TIP3   OH229983   0.683   2.443  11.862  0.0574  0.3551  0.3926
 2831TIP3    H129984   0.668   2.351  11.842 -2.7785  0.6070  1.0486
 2831TIP3    H229985   0.732   2.477  11.787  0.2954 -1.4617 -0.2858
 2832TIP3   OH229986   6.227   4.357   4.435  0.0657  0.2451  0.6906
 2832TIP3    H129987   6.221   4.389   4.525  0.0736 -0.2474  0.8642
 2832TIP3    H229988   6.318   4.328   4.426 -0.1111 -0.3251  0.7292
 2833TIP3   OH229989   0.033   3.241   5.168 -0.4652 -0.3267  0.5367
 2833TIP3    H129990   0.063   3.238   5.259  0.1600  0.0063  0.3457
 2833TIP3    H229991   0.083   3.173   5.124  0.4549  0.6323  0.0898
 2834TIP3   OH229992   0.055   2.613  16.783 -0.6254 -0.0421  0.1104
 2834TIP3    H129993   0.053   2.657  16.868 -0.2960 -0.2349  0.2199
 2834TIP3    H229994   0.127   2.550  16.790 -0.1653  0.3988 -0.5354
 2835TIP3   OH229995   0.335   5.538  13.622 -0.4302  0.2574  0.6315
 2835TIP3    H129996   0.331   5.446  13.648 -1.5332  0.3714  0.8830
 2835TIP3    H229997   0.409   5.543  13.561 -1.2522 -1.0753 -0.5060
 2836TIP3   OH229998   5.354   2.736   5.517 -0.2927  0.4146 -0.5385
 2836TIP3    H129999   5.406   2.815   5.529 -1.2134  0.7584  1.4521
 2836TIP3    H230000   5.406   2.681   5.458  0.0490  2.7538 -2.4736
 2837TIP3   OH230001   1.408   1.693   2.721  0.0750  0.1598 -0.5482
 2837TIP3    H130002   1.347   1.631   2.681  0.3106 -0.9820  0.8108
 2837TIP3    H230003   1.354   1.746   2.780 -0.0585  0.9951 -1.4106
 2838TIP3   OH230004   1.242   2.009   2.688 -0.2093 -0.1687 -0.1617
 2838TIP3    H130005   1.233   2.015   2.784 -0.5603 -3.9968  0.1645
 2838TIP3    H230006   1.313   2.069   2.666  0.8878 -0.3169  2.7215
 2839TIP3   OH230007   2.204   0.251   2.938 -0.4822  0.0427 -0.9233
 2839TIP3    H130008   2.294   0.229   2.964 -0.6349 -1.1765 -1.4382
 2839TIP3    H230009   2.169   0.299   3.013 -0.1408 -1.4436  0.2026
 2840TIP3   OH230010   3.287   4.045  13.452  0.0895 -0.3880  0.3229
 2840TIP3    H130011   3.269   4.133  13.487  0.3538 -0.9446  1.9126
 2840TIP3    H230012   3.245   4.045  13.366 -2.5087  0.3195  1.5135
 2841TIP3   OH230013   6.391   0.955  11.700  0.0331 -0.1137  0.2652
 2841TIP3    H130014   6.456   0.909  11.647 -1.0246  0.5681 -1.6424
 2841TIP3    H230015   6.377   1.038  11.655 -1.9033 -0.1185  0.8338
 2842TIP3   OH230016   3.956   2.310   2.078 -0.0107  0.0059 -0.4474
 2842TIP3    H130017   3.900   2.378   2.041 -1.1789 -0.5473  0.2635
 2842TIP3    H230018   4.008   2.355   2.145 -0.3211  0.3305 -0.4235
 2843TIP3   OH230019   4.123   5.284  12.943 -0.4523 -0.0322 -0.3890
 2843TIP3    H130020   4.200   5.332  12.975  0.0209 -0.9673 -0.1020
 2843TIP3    H230021   4.143   5.264  12.852  0.4322 -1.7836  0.1486
 2844TIP3   OH230022   3.313   6.437  12.867  0.2747  0.1984  0.4926
 2844TIP3    H130023   3.367   6.460  12.943 -0.4951  0.4430  0.9767
 2844TIP3    H230024   3.257   6.365  12.898  0.9603 -0.6855 -0.2790
 2845TIP3   OH230025   5.342   4.670  14.863 -0.8829 -0.1406 -1.0407
 2845TIP3    H130026   5.358   4.714  14.946  0.9332 -2.6781 -0.0165
 2845TIP3    H230027   5.255   4.701  14.837 -1.4913  0.6950  1.7751
 2846TIP3   OH230028   0.961   5.355   1.425 -0.4297 -0.2990  0.0009
 2846TIP3    H130029   0.917   5.397   1.352  0.3801  0.1156 -0.2527
 2846TIP3    H230030   0.895   5.352   1.495 -0.6382  0.9688 -0.1324
 2847TIP3   OH230031   1.176   4.076  15.135 -0.3107  0.1579 -0.4791
 2847TIP3    H130032   1.125   4.151  15.166  0.2224  0.5173 -0.4548
 2847TIP3    H230033   1.182   4.018  15.211 -1.2018 -0.1780 -0.6599
 2848TIP3   OH230034   4.182   2.053   4.818  0.1704 -0.2957  0.1209
 2848TIP3    H130035   4.265   2.074   4.776 -0.8452  1.0907 -1.2364
 2848TIP3    H230036   4.153   2.136   4.857 -0.7277 -0.7000  0.3297
 2849TIP3   OH230037   3.174   5.609  11.866 -0.2515  0.4844 -0.1392
 2849TIP3    H130038   3.213   5.551  11.932 -0.0080 -1.4263 -1.8903
 2849TIP3    H230039   3.249   5.649  11.822 -0.3906  1.1205  0.2080
 2850TIP3   OH230040   6.290   5.451  11.860  0.3992 -0.3388  0.2556
 2850TIP3    H130041   6.382   5.465  11.881  0.9127 -1.6440 -0.9898
 2850TIP3    H230042   6.255   5.538  11.839  1.7124 -0.0100 -0.6222
 2851TIP3   OH230043   5.418   1.512  11.528  0.5263  0.4290  0.0384
 2851TIP3    H130044   5.376   1.440  11.481 -1.3412  0.5470  1.4969
 2851TIP3    H230045   5.509   1.484  11.536  0.3927 -0.5989 -1.6649
 2852TIP3   OH230046   1.053   3.818  13.893  0.5024 -0.1414  0.4045
 2852TIP3    H130047   1.117   3.758  13.855 -0.2969 -0.5753 -0.2725
 2852TIP3    H230048   1.100   3.860  13.966  1.2048 -1.2582  0.6155
 2853TIP3   OH230049   2.860   4.073   1.601  0.3932  0.5773  0.3821
 2853TIP3    H130050   2.858   4.159   1.560  1.0871  0.2390 -0.3770
 2853TIP3    H230051   2.918   4.021   1.545  1.7593  0.2425  2.0676
 2854TIP3   OH230052   6.547   3.792   5.587 -0.4668  0.5903  0.3115
 2854TIP3    H130053   6.588   3.786   5.673 -1.4202 -2.6482  0.6066
 2854TIP3    H230054   6.618   3.774   5.526 -0.0231  1.7932  0.4633
 2855TIP3   OH230055   3.584   5.188   3.708  0.1553 -0.1823  0.2995
 2855TIP3    H130056   3.602   5.277   3.677  1.7325 -0.1629  1.2405
 2855TIP3    H230057   3.622   5.131   3.642  1.6194 -0.1423  1.0913
 2856TIP3   OH230058   0.091   4.340   3.153 -0.2278  0.0177 -0.2892
 2856TIP3    H130059   0.085   4.261   3.207  1.9468  0.1511  0.2093
 2856TIP3    H230060   0.091   4.412   3.216 -1.0573  0.3577 -0.6763
 2857TIP3   OH230061   3.171   2.704   2.056  0.0436  0.2690 -0.4424
 2857TIP3    H130062   3.137   2.617   2.035 -2.1007  0.8231  0.5061
 2857TIP3    H230063   3.093   2.755   2.079  1.5665  1.4595  2.4024
 2858TIP3   OH230064   3.628   3.587   5.086  0.6493  0.1487 -0.1169
 2858TIP3    H130065   3.721   3.576   5.064  1.2464 -0.0027  2.4005
 2858TIP3    H230066   3.599   3.501   5.114 -0.1721  0.2751 -0.5630
 2859TIP3   OH230067   1.871   2.955  11.124 -0.3192 -0.4418  0.5103
 2859TIP3    H130068   1.953   2.991  11.158 -0.3770 -0.0707  0.2658
 2859TIP3    H230069   1.830   3.029  11.079 -0.5180 -0.7754  0.1450
 2860TIP3   OH230070   6.550   3.458  12.607  0.3491  0.4609  0.3457
 2860TIP3    H130071   6.498   3.381  12.629  0.2592 -0.0627 -1.6312
 2860TIP3    H230072   6.612   3.466  12.679 -1.2313 -0.0049  1.8075
 2861TIP3   OH230073   1.545   6.097  16.437 -0.3181 -0.0963  0.0624
 2861TIP3    H130074   1.635   6.088  16.470 -0.8921  0.1925  1.7545
 2861TIP3    H230075   1.494   6.036  16.491 -1.5117  1.4476  0.6938
 2862TIP3   OH230076   4.345   2.881  15.804  0.1793  0.1485  0.2281
 2862TIP3    H130077   4.268   2.904  15.751  0.2212 -0.8892 -0.2942
 2862TIP3    H230078   4.386   2.965  15.825 -0.7811  0.6728  0.0338
 2863TIP3   OH230079   0.987   4.139   4.812 -0.2909 -0.4616  0.0045
 2863TIP3    H130080   1.011   4.197   4.884  0.2760 -1.1781  0.3994
 2863TIP3    H230081   1.068   4.129   4.761 -0.6864  0.0411 -0.7343
 2864TIP3   OH230082   5.264   1.540   2.165 -0.1022 -0.3042  0.6326
 2864TIP3    H130083   5.321   1.602   2.212 -1.2454 -0.2716  2.0120
 2864TIP3    H230084   5.260   1.574   2.076 -1.7007  2.3601  1.6464
 2865TIP3   OH230085   4.426   6.670  12.428  0.5008 -0.1853  0.0750
 2865TIP3    H130086   4.437   6.746  12.486  2.2459 -1.3342  1.2890
 2865TIP3    H230087   4.388   6.707  12.348 -0.5647  1.6503  1.3753
 2866TIP3   OH230088   5.100   3.339   3.930 -0.1543  0.4272  0.1501
 2866TIP3    H130089   5.062   3.252   3.931 -0.3529  0.4954 -0.8809
 2866TIP3    H230090   5.140   3.347   3.844  0.1412  1.2325  0.3554
 2867TIP3   OH230091   0.209   2.309  12.184  0.0749 -0.0891  0.9911
 2867TIP3    H130092   0.292   2.274  12.215 -0.9731 -1.7144  2.0386
 2867TIP3    H230093   0.195   2.388  12.236  0.6792 -0.1227  1.2059
 2868TIP3   OH230094   3.520   4.563  15.485 -0.4206  0.0668 -0.0085
 2868TIP3    H130095   3.539   4.646  15.528 -1.5823  0.7522 -0.7914
 2868TIP3    H230096   3.436   4.535  15.522 -0.0355 -0.7473  0.2514
 2869TIP3   OH230097   2.473   4.042   1.234  0.0493 -0.1696  0.4808
 2869TIP3    H130098   2.419   4.019   1.158 -1.0950 -1.9899  1.8067
 2869TIP3    H230099   2.514   3.960   1.261  0.0218  0.3362  2.1544
 2870TIP3   OH230100   4.790   3.519  13.319  0.1600  0.3668 -0.0562
 2870TIP3    H130101   4.781   3.427  13.342  0.2961  0.2597 -0.4202
 2870TIP3    H230102   4.872   3.547  13.360 -0.4464  0.6195  0.9843
 2871TIP3   OH230103   3.332   6.683   5.199 -0.2381 -0.1719  0.3399
 2871TIP3    H130104   3.355   6.686   5.107  2.2813  0.2970  0.9521
 2871TIP3    H230105   3.386   6.613   5.235 -1.4284 -0.5714  1.4210
 2872TIP3   OH230106   6.572   2.904  16.502 -0.0256 -0.0041  0.0858
 2872TIP3    H130107   6.569   2.913  16.407 -0.2771 -2.1834 -0.1386
 2872TIP3    H230108   6.656   2.862  16.520 -1.0211 -1.8345  0.5920
 2873TIP3   OH230109   3.194   3.180   1.177  0.0548  0.1930  0.3670
 2873TIP3    H130110   3.177   3.120   1.250  0.2335 -1.6494 -1.0734
 2873TIP3    H230111   3.262   3.238   1.209 -1.2970  0.7278  2.3931
 2874TIP3   OH230112   0.975   1.606  11.739 -0.0936  0.5723  0.4513
 2874TIP3    H130113   1.053   1.551  11.742 -1.8131 -1.9523  3.0410
 2874TIP3    H230114   0.956   1.625  11.831 -4.1560 -1.4570  0.1775
 2875TIP3   OH230115   2.794   6.278   3.884  0.2097  0.7516  0.6501
 2875TIP3    H130116   2.889   6.280   3.886  0.2743  1.6280 -1.6639
 2875TIP3    H230117   2.770   6.327   3.805 -2.0756 -1.0943  0.1234
 2876TIP3   OH230118   1.670   1.050  15.294  0.0908  0.2143  0.2165
 2876TIP3    H130119   1.651   1.134  15.251 -0.3692 -0.0188 -0.0302
 2876TIP3    H230120   1.594   0.995  15.275  0.1780 -0.1053  0.7768
 2877TIP3   OH230121   3.705   4.387   0.250  0.0301  0.4348 -0.0060
 2877TIP3    H130122   3.738   4.427   0.331  0.2101 -1.9991  1.1432
 2877TIP3    H230123   3.625   4.342   0.275  0.2945 -0.6832 -1.1133
 2878TIP3   OH230124   2.624   2.644   2.731 -0.4170 -0.0448  0.1824
 2878TIP3    H130125   2.595   2.735   2.720 -0.9198 -0.3912 -1.4410
 2878TIP3    H230126   2.718   2.646   2.710 -0.2938  0.1914  0.7308
 2879TIP3   OH230127   4.375   1.564   2.832  0.2936 -0.4476 -0.7583
 2879TIP3    H130128   4.430   1.552   2.910  1.4931  1.5753 -1.2627
 2879TIP3    H230129   4.340   1.653   2.842 -1.4213 -1.0535 -1.3628
 2880TIP3   OH230130   3.270   4.524  13.949 -0.4722  0.0821  0.0932
 2880TIP3    H130131   3.237   4.504  14.036 -1.2516 -2.2870 -0.7040
 2880TIP3    H230132   3.195   4.560  13.902 -0.1806  0.8968  0.2441
 2881TIP3   OH230133   2.343   6.027  15.396  0.1385 -0.3544  0.2181
 2881TIP3    H130134   2.275   6.057  15.336  0.4683 -1.1048 -0.5422
 2881TIP3    H230135   2.349   6.095  15.463  0.8018  1.2156 -1.4048
 2882TIP3   OH230136   6.571   3.911  14.024  0.2765 -0.0565  0.2621
 2882TIP3    H130137   6.662   3.942  14.026  0.4430 -0.5138 -0.0743
 2882TIP3    H230138   6.520   3.989  14.000  0.8048 -0.2654 -1.6224
 2883TIP3   OH230139   0.234   5.994  13.635  0.8726 -0.3961 -0.2650
 2883TIP3    H130140   0.181   5.953  13.566 -1.4519  1.8179  0.1235
 2883TIP3    H230141   0.258   6.079  13.600  0.8907  0.1754  1.0985
 2884TIP3   OH230142   1.862   0.748   1.880  0.0052  0.1590 -0.0758
 2884TIP3    H130143   1.802   0.822   1.879 -0.5377 -0.0597  4.0210
 2884TIP3    H230144   1.949   0.788   1.887 -0.1327  0.4425  0.0359
 2885TIP3   OH230145   0.273   1.447   4.171  0.6647  0.4865  0.1815
 2885TIP3    H130146   0.335   1.422   4.103 -1.3968 -2.2756 -0.8015
 2885TIP3    H230147   0.246   1.536   4.148  0.1155 -0.3504 -2.5602
 2886TIP3   OH230148   2.270   3.199  16.381 -0.8852  0.3015  0.2329
 2886TIP3    H130149   2.342   3.145  16.412 -0.9887 -0.3891 -0.7087
 2886TIP3    H230150   2.297   3.289  16.399 -0.8240 -0.0556  2.0492
 2887TIP3   OH230151   0.867   0.885   1.633  0.0528 -0.5433 -0.1033
 2887TIP3    H130152   0.933   0.905   1.699  0.0858 -1.5459  0.1858
 2887TIP3    H230153   0.784   0.912   1.673  0.0119 -1.6457  0.5853
 2888TIP3   OH230154   1.774   5.251   5.260 -0.1121  0.6298 -0.4052
 2888TIP3    H130155   1.785   5.182   5.194  0.1922 -0.1569  0.4601
 2888TIP3    H230156   1.854   5.246   5.312  0.4852  2.4836 -1.1140
 2889TIP3   OH230157   4.800   4.822   5.968 -0.0902  0.4993  0.0085
 2889TIP3    H130158   4.873   4.878   5.942  0.2263  0.3086  0.4805
 2889TIP3    H230159   4.790   4.838   6.062 -1.1948  1.1530 -0.2069
 2890TIP3   OH230160   1.601   0.511  13.457 -0.6476  0.1821  0.0402
 2890TIP3    H130161   1.527   0.503  13.397 -0.9832  0.0821  0.4682
 2890TIP3    H230162   1.564   0.495  13.544  0.2118 -1.7852  0.0669
 2891TIP3   OH230163   0.908   5.135   5.642 -0.2169 -0.9962 -0.2289
 2891TIP3    H130164   0.938   5.092   5.723  1.4543  0.2815 -0.1334
 2891TIP3    H230165   0.904   5.064   5.578 -0.0472 -1.7600  0.5815
 2892TIP3   OH230166   4.928   6.802   4.204  0.2917  0.3022  0.2568
 2892TIP3    H130167   4.912   6.761   4.119 -0.9511  1.9966 -0.3655
 2892TIP3    H230168   4.871   6.754   4.264 -0.8360  0.7881 -0.3884
 2893TIP3   OH230169   2.895   6.238   2.974 -0.3567 -0.4690 -0.1122
 2893TIP3    H130170   2.895   6.178   2.900  1.0144 -1.2409  0.4989
 2893TIP3    H230171   2.886   6.325   2.935  0.7281 -0.8384 -1.2135
 2894TIP3   OH230172   5.202   5.404   4.027  0.1876  1.0119  0.9458
 2894TIP3    H130173   5.248   5.419   4.110  0.2899 -2.3158  1.5421
 2894TIP3    H230174   5.126   5.350   4.051 -0.1594  0.5993 -1.0238
 2895TIP3   OH230175   1.401   5.512   4.352  0.5192 -0.5841  0.4664
 2895TIP3    H130176   1.404   5.436   4.293  0.9744  0.5060 -0.9310
 2895TIP3    H230177   1.322   5.559   4.326  1.0638  0.2438  0.3088
 2896TIP3   OH230178   5.244   0.570   3.355  0.2274 -0.3105  0.1714
 2896TIP3    H130179   5.151   0.567   3.376  0.6680 -0.2148  2.2262
 2896TIP3    H230180   5.283   0.500   3.409  1.4897  0.3368  0.1207
 2897TIP3   OH230181   5.684   5.675   2.300 -0.2020  0.8174 -0.3854
 2897TIP3    H130182   5.719   5.758   2.332 -1.0702  1.4004 -0.9215
 2897TIP3    H230183   5.643   5.635   2.377  2.1551 -0.1894  0.4111
 2898TIP3   OH230184   6.727   0.032   1.243 -0.0052 -0.1741  0.3257
 2898TIP3    H130185   6.680   0.108   1.276  1.9539  1.8781 -1.4306
 2898TIP3    H230186   6.690   0.017   1.156  0.5554 -0.3692  0.1164
 2899TIP3   OH230187   4.629   4.308   0.530  0.8342 -0.0570  0.6093
 2899TIP3    H130188   4.651   4.256   0.453  1.5156 -0.1111  0.8440
 2899TIP3    H230189   4.596   4.391   0.494 -1.8455 -1.2435  0.1943
 2900TIP3   OH230190   0.691   1.496   0.768 -0.4349  0.1591 -0.0110
 2900TIP3    H130191   0.606   1.486   0.727 -1.2330 -0.9872  1.8638
 2900TIP3    H230192   0.698   1.590   0.788 -0.0296  0.7333 -2.6761
 2901TIP3   OH230193   0.567   2.877  13.775  0.0683 -0.0844  0.1987
 2901TIP3    H130194   0.591   2.856  13.865  1.0297  1.3672  0.3064
 2901TIP3    H230195   0.580   2.972  13.768  1.3287 -0.3752 -1.8529
 2902TIP3   OH230196   2.188   6.423  16.764  0.0285  0.0833 -0.0942
 2902TIP3    H130197   2.222   6.411  16.853 -0.7912 -1.3399  0.0453
 2902TIP3    H230198   2.252   6.379  16.708 -1.8922 -3.3535  0.2356
 2903TIP3   OH230199   5.545   6.469   5.079 -0.5690  0.8483  0.1918
 2903TIP3    H130200   5.558   6.489   4.987 -0.6494 -0.4536 -0.1023
 2903TIP3    H230201   5.628   6.431   5.108 -0.8320  0.4677  0.4471
 2904TIP3   OH230202   3.666   4.890  13.741 -0.2265  0.5812 -0.4864
 2904TIP3    H130203   3.588   4.914  13.692 -0.0739  0.6940 -0.6769
 2904TIP3    H230204   3.692   4.970  13.787 -0.9561  0.2031  0.5902
 2905TIP3   OH230205   2.862   5.088   2.391  0.0158  0.1559 -0.2637
 2905TIP3    H130206   2.771   5.060   2.385  0.1428 -0.5402  0.9674
 2905TIP3    H230207   2.913   5.008   2.374  0.3903  0.2455  0.4443
 2906TIP3   OH230208   1.338   4.641   4.856 -0.5771 -0.1195  0.6056
 2906TIP3    H130209   1.342   4.737   4.858 -2.8091  0.0536 -0.8050
 2906TIP3    H230210   1.393   4.616   4.782 -0.7344  0.1428  0.3987
 2907TIP3   OH230211   6.211   6.727  10.959  0.1219 -0.3009  0.0227
 2907TIP3    H130212   6.158   6.688  10.890 -1.1040  0.1124  0.7122
 2907TIP3    H230213   6.161   6.802  10.989  1.6757  0.8192 -0.1247
 2908TIP3   OH230214   2.787   5.020  17.050  0.0666  0.3383  0.3801
 2908TIP3    H130215   2.807   5.097  17.102  0.5876 -1.2618  2.6063
 2908TIP3    H230216   2.751   4.957  17.112 -0.1717 -1.2948 -1.3518
 2909TIP3   OH230217   5.689   2.515   2.482  0.1568 -0.1278  0.3208
 2909TIP3    H130218   5.664   2.422   2.484 -2.5644  0.5425 -0.2542
 2909TIP3    H230219   5.663   2.545   2.395  0.7701  1.2591  0.5972
 2910TIP3   OH230220   4.883   1.566   3.890  1.1671 -0.4117 -0.2284
 2910TIP3    H130221   4.933   1.534   3.966  0.1900 -0.5701  0.3587
 2910TIP3    H230222   4.926   1.648   3.866  1.8339 -0.6417  0.1515
 2911TIP3   OH230223   1.499   1.011  14.696  0.5892 -0.4915  0.7198
 2911TIP3    H130224   1.479   0.992  14.788  0.2200 -1.7713  0.3949
 2911TIP3    H230225   1.426   1.066  14.667 -0.2215 -1.5309  0.7306
 2912TIP3   OH230226   5.362   0.394  14.906  0.3350  0.0091 -0.2621
 2912TIP3    H130227   5.275   0.409  14.867 -0.1145  1.1454  1.1461
 2912TIP3    H230228   5.346   0.336  14.980  0.6713  0.7373  0.3943
 2913TIP3   OH230229   1.487   1.748   6.608  0.3121  0.0582  0.1659
 2913TIP3    H130230   1.574   1.727   6.575  0.3825 -1.2525  1.1178
 2913TIP3    H230231   1.437   1.668   6.596 -0.6059  0.6285  0.1438
 2914TIP3   OH230232   4.597   4.724   2.521  0.3414 -0.6739  0.4730
 2914TIP3    H130233   4.557   4.792   2.466  0.1638  0.1950  1.6669
 2914TIP3    H230234   4.566   4.642   2.482 -1.7609 -0.0390  0.7225
 2915TIP3   OH230235   4.542   1.350  16.809 -0.2417  0.7398  0.3005
 2915TIP3    H130236   4.557   1.410  16.881 -2.5471  1.3384  0.3151
 2915TIP3    H230237   4.506   1.405  16.739 -1.8306 -0.5045  0.1140
 2916TIP3   OH230238   0.917   5.260   4.798  0.4141  0.1588 -0.3664
 2916TIP3    H130239   0.906   5.309   4.716 -0.2529 -0.5465 -0.7089
 2916TIP3    H230240   0.974   5.315   4.851  0.9070  0.5943 -1.3318
 2917TIP3   OH230241   4.129   6.306   4.189 -0.0880 -0.1586 -0.3881
 2917TIP3    H130242   4.164   6.393   4.207  0.0468 -0.3475  0.2614
 2917TIP3    H230243   4.193   6.266   4.131  0.4228 -0.2410  0.2231
 2918TIP3   OH230244   0.167   4.456  13.157  0.0690  0.4455  0.5871
 2918TIP3    H130245   0.211   4.514  13.095 -1.0025  1.1195  0.4500
 2918TIP3    H230246   0.102   4.511  13.200  0.0521 -0.2919  1.5247
 2919TIP3   OH230247   6.645   0.764   1.221  0.2018  0.4219  0.2499
 2919TIP3    H130248   6.691   0.680   1.220  2.0307  1.3858  1.0316
 2919TIP3    H230249   6.664   0.803   1.135  1.1825  0.9743  0.7039
 2920TIP3   OH230250   6.236   6.156  14.841 -0.3912 -0.4141 -0.1051
 2920TIP3    H130251   6.190   6.221  14.788  1.6436  1.4021  0.2992
 2920TIP3    H230252   6.289   6.107  14.778  1.4662  1.2692  0.0806
 2921TIP3   OH230253   5.801   6.249  11.180  0.1114 -0.0498  0.0521
 2921TIP3    H130254   5.809   6.208  11.094 -0.5874  0.0595 -0.0659
 2921TIP3    H230255   5.723   6.208  11.219 -0.6893  1.2758 -0.1342
 2922TIP3   OH230256   4.428   2.959  14.008 -0.2839 -0.3492  0.0437
 2922TIP3    H130257   4.468   2.911  13.936 -0.0263  1.6441 -1.1535
 2922TIP3    H230258   4.382   3.032  13.967 -0.3645  0.6587  1.8608
 2923TIP3   OH230259   1.556   6.412  13.215  0.2754 -0.2796 -0.2535
 2923TIP3    H130260   1.557   6.481  13.148 -0.8114 -0.4028 -0.4174
 2923TIP3    H230261   1.522   6.456  13.293  0.4982 -0.3931 -0.0952
 2924TIP3   OH230262   5.862   2.679  10.645 -0.4554  0.3099 -0.0481
 2924TIP3    H130263   5.950   2.717  10.655  0.3320 -1.2070 -0.9033
 2924TIP3    H230264   5.807   2.731  10.703  0.8506  1.8122 -0.1014
 2925TIP3   OH230265   1.613   2.984   0.166  0.2440 -0.9181 -0.1205
 2925TIP3    H130266   1.635   2.952   0.078  2.2167 -0.6216  0.2287
 2925TIP3    H230267   1.695   3.021   0.199 -1.3932  2.4542  0.3797
 2926TIP3   OH230268   3.389   4.083  16.220 -0.3668  0.1708 -0.0513
 2926TIP3    H130269   3.301   4.048  16.204 -0.0472 -1.1465  0.9612
 2926TIP3    H230270   3.401   4.074  16.315  1.1853 -0.4532 -0.2955
 2927TIP3   OH230271   6.150   6.491  14.107  0.3378 -0.6989 -0.0605
 2927TIP3    H130272   6.117   6.418  14.056 -1.5015  0.4096 -0.5261
 2927TIP3    H230273   6.239   6.504  14.077 -0.3584 -0.7658 -2.2319
 2928TIP3   OH230274   5.999   0.453   6.356 -0.2244 -0.3093 -0.0943
 2928TIP3    H130275   5.944   0.494   6.289  0.0988  0.1727 -0.0683
 2928TIP3    H230276   6.012   0.521   6.422 -1.5108 -1.1597  1.0437
 2929TIP3   OH230277   6.194   4.964  14.629  0.1996  0.0056 -0.5151
 2929TIP3    H130278   6.147   4.889  14.593  1.4219  0.1004 -2.3789
 2929TIP3    H230279   6.283   4.933  14.642  0.6684  1.0769 -1.1269
 2930TIP3   OH230280   0.213   3.538  16.153 -0.4447 -0.5882  0.4508
 2930TIP3    H130281   0.302   3.568  16.132 -0.1525 -2.0488 -0.4195
 2930TIP3    H230282   0.174   3.612  16.200  1.5428 -0.2910  1.7017
 2931TIP3   OH230283   3.206   2.247   5.263  0.6010 -0.2959 -0.6380
 2931TIP3    H130284   3.177   2.338   5.263 -0.7833 -0.6914  1.4299
 2931TIP3    H230285   3.148   2.204   5.201 -0.3805 -0.2209  0.2087
 2932TIP3   OH230286   0.854   5.506   7.018  0.0794  0.1808 -0.4750
 2932TIP3    H130287   0.774   5.480   6.971  0.6115 -1.6729 -0.3989
 2932TIP3    H230288   0.885   5.584   6.973 -0.8970 -0.0209 -1.5080
 2933TIP3   OH230289   3.894   5.788   2.768 -0.1267  0.3000 -0.2177
 2933TIP3    H130290   3.886   5.706   2.719  1.4244  0.2548 -0.4232
 2933TIP3    H230291   3.910   5.760   2.858 -0.8639  0.3807 -0.0609
 2934TIP3   OH230292   4.129   3.506  11.057 -0.3650 -0.0137 -0.2511
 2934TIP3    H130293   4.172   3.488  11.140 -2.0296  1.2202  0.9149
 2934TIP3    H230294   4.190   3.563  11.011 -0.2726  0.8771  0.9466
 2935TIP3   OH230295   5.469   2.068   4.203 -0.4937  0.5175 -0.0820
 2935TIP3    H130296   5.550   2.032   4.166 -0.1224 -0.0248  1.2173
 2935TIP3    H230297   5.413   2.085   4.128 -0.4238 -2.1916 -0.7949
 2936TIP3   OH230298   0.379   3.590  11.879  0.3733  0.3455 -0.0775
 2936TIP3    H130299   0.367   3.497  11.858 -0.0112  0.0452  1.4355
 2936TIP3    H230300   0.473   3.599  11.895  0.6017  0.4837 -1.4051
 2937TIP3   OH230301   4.020   4.075  16.045  0.2690  0.1319  0.5186
 2937TIP3    H130302   4.019   4.048  15.953  0.9700  2.2443 -0.1489
 2937TIP3    H230303   4.019   3.994  16.095 -0.0338 -1.0355 -1.3673
 2938TIP3   OH230304   4.427   0.610   2.289  0.0519 -0.3713  0.3627
 2938TIP3    H130305   4.358   0.612   2.355 -1.5935 -0.9929 -1.3004
 2938TIP3    H230306   4.506   0.637   2.336 -1.2310 -0.0555  2.3905
 2939TIP3   OH230307   0.441   6.808  14.030 -0.2299 -0.0452 -0.2754
 2939TIP3    H130308   0.421   6.751  14.104  2.8330 -0.7891  0.0186
 2939TIP3    H230309   0.450   6.748  13.956 -0.8313  0.4666 -0.7739
 2940TIP3   OH230310   4.258   2.174  16.779 -1.0165  0.6150 -0.0483
 2940TIP3    H130311   4.274   2.101  16.720 -3.7948  0.4831 -0.6935
 2940TIP3    H230312   4.193   2.228  16.735 -0.1920  2.6471  1.1338
 2941TIP3   OH230313   6.546   6.483  17.026 -0.1680 -0.5352  0.1564
 2941TIP3    H130314   6.629   6.489  17.072 -0.6599 -1.4859  1.1975
 2941TIP3    H230315   6.543   6.393  16.993 -0.7976 -0.5292  0.1821
 2942TIP3   OH230316   4.489   5.321   0.935  0.9457  0.5843 -0.6186
 2942TIP3    H130317   4.583   5.304   0.928  1.2202  1.1419  1.3759
 2942TIP3    H230318   4.482   5.389   1.002 -1.1007 -1.9605  1.8901
 2943TIP3   OH230319   1.802   0.391  16.961 -0.5177  0.0792 -0.0693
 2943TIP3    H130320   1.875   0.385  16.899 -2.1143  1.0146 -2.0712
 2943TIP3    H230321   1.741   0.323  16.932 -0.2420 -1.0411  1.9098
 2944TIP3   OH230322   3.149   1.516  11.811 -0.7081  0.1630 -0.0293
 2944TIP3    H130323   3.153   1.541  11.903 -2.2580 -0.9976  0.3727
 2944TIP3    H230324   3.213   1.573  11.768 -0.5188  1.2449  1.6307
 2945TIP3   OH230325   6.408   3.124  14.990  0.2037  0.6243  0.1020
 2945TIP3    H130326   6.492   3.135  15.035  0.9165 -0.6844 -0.8687
 2945TIP3    H230327   6.378   3.036  15.014 -0.7210  0.9463  0.1616
 2946TIP3   OH230328   6.660   6.559  12.600 -0.2481  0.0275  0.0170
 2946TIP3    H130329   6.615   6.531  12.521 -0.0087  0.8621 -0.4270
 2946TIP3    H230330   6.684   6.650  12.583 -0.1543  0.2038  1.0347
 2947TIP3   OH230331   1.782   2.154  16.099 -0.0500 -0.1953  0.2186
 2947TIP3    H130332   1.839   2.133  16.024 -0.3759 -2.1163  0.5005
 2947TIP3    H230333   1.839   2.201  16.160  0.5349  0.2717 -0.6727
 2948TIP3   OH230334   2.856   0.399   1.155 -0.0736 -0.3524 -0.1954
 2948TIP3    H130335   2.833   0.398   1.248 -1.0322  1.0845 -0.4081
 2948TIP3    H230336   2.774   0.383   1.109  0.3022 -0.4972 -0.8272
 2949TIP3   OH230337   0.024   6.465   1.226 -0.1511  0.5813  0.3546
 2949TIP3    H130338   0.010   6.377   1.264  0.0691  1.2817  2.1360
 2949TIP3    H230339   0.119   6.477   1.229 -0.1180  0.5814 -0.6083
 2950TIP3   OH230340   4.012   5.959   5.095  0.0665 -0.1990 -0.3738
 2950TIP3    H130341   4.066   5.883   5.115 -0.2755 -0.6363 -1.1000
 2950TIP3    H230342   4.070   6.034   5.108  0.1266 -0.5163  1.3064
 2951TIP3   OH230343   4.593   4.156   0.068 -0.2991  0.1633  0.7057
 2951TIP3    H130344   4.638   4.240   0.063  0.7489 -0.4126  0.2702
 2951TIP3    H230345   4.660   4.095   0.098 -0.8135 -0.6918  0.1333
 2952TIP3   OH230346   6.063   6.322  11.973  0.4873  0.1784 -0.5958
 2952TIP3    H130347   6.025   6.337  12.060  1.5310  1.3516 -0.3327
 2952TIP3    H230348   6.034   6.233  11.950 -2.1296  0.9093 -0.2798
 2953TIP3   OH230349   5.657   2.932   5.057  0.8839 -0.2888 -0.0290
 2953TIP3    H130350   5.745   2.941   5.020  0.9763  0.0937  0.2880
 2953TIP3    H230351   5.671   2.921   5.151  0.5701  0.2553  0.0833
 2954TIP3   OH230352   3.384   5.065   1.505 -0.4287  0.2669 -0.1392
 2954TIP3    H130353   3.423   5.093   1.423  1.3616 -1.4439  0.1086
 2954TIP3    H230354   3.458   5.049   1.563 -1.5916 -0.5519  1.1582
 2955TIP3   OH230355   2.900   6.629   6.464 -0.4575 -0.2851 -0.4513
 2955TIP3    H130356   2.959   6.574   6.516 -0.3152  1.1155  0.9243
 2955TIP3    H230357   2.955   6.664   6.394  0.2833  0.7229  0.6144
 2956TIP3   OH230358   2.942   1.455   4.354 -0.6045 -0.6098  0.5448
 2956TIP3    H130359   2.897   1.370   4.352 -0.2603 -0.7965  0.5145
 2956TIP3    H230360   2.879   1.515   4.392 -1.1288 -0.7175 -0.1546
 2957TIP3   OH230361   5.796   1.342  14.627 -0.0004  0.0186  0.4186
 2957TIP3    H130362   5.706   1.334  14.658 -0.5178 -0.9278 -1.2502
 2957TIP3    H230363   5.850   1.322  14.703 -1.1905  0.9128  1.5180
 2958TIP3   OH230364   3.224   2.471  11.007  0.3169 -0.1277 -0.0379
 2958TIP3    H130365   3.194   2.386  11.040 -0.5995 -0.0446 -0.6365
 2958TIP3    H230366   3.194   2.473  10.916 -0.2579  1.1307  0.1767
 2959TIP3   OH230367   5.387   6.559   0.658  0.6176  0.2915  0.5197
 2959TIP3    H130368   5.476   6.565   0.622  0.5495  1.9510  0.5881
 2959TIP3    H230369   5.392   6.601   0.744 -0.3359  0.8516  0.3135
 2960TIP3   OH230370   3.765   5.936   3.329 -0.0910  0.3657  0.9161
 2960TIP3    H130371   3.678   5.925   3.291  0.6496 -1.1093 -0.4031
 2960TIP3    H230372   3.772   5.867   3.395 -1.1360  2.5328  3.3786
 2961TIP3   OH230373   4.127   2.387   6.354  0.0186 -0.5083  0.3516
 2961TIP3    H130374   4.176   2.305   6.367  1.4028  0.3762  0.7988
 2961TIP3    H230375   4.195   2.453   6.341 -1.1160  0.3523 -1.3685
 2962TIP3   OH230376   1.841   2.498  14.057 -0.3705  0.2907  0.2742
 2962TIP3    H130377   1.848   2.506  13.962  4.1598  2.2768  0.6482
 2962TIP3    H230378   1.768   2.556  14.081 -2.6405 -1.4728 -2.0319
 2963TIP3   OH230379   0.280   2.359   3.438 -0.0642 -0.5227 -0.5140
 2963TIP3    H130380   0.245   2.449   3.434  2.4390  0.4408 -1.3565
 2963TIP3    H230381   0.372   2.370   3.461  1.4384 -2.5930 -5.0111
 2964TIP3   OH230382   5.364   5.175   2.116  0.5130  0.4669  0.0381
 2964TIP3    H130383   5.445   5.138   2.082  0.8802  0.1148  1.2696
 2964TIP3    H230384   5.295   5.120   2.079  0.7756  1.1569 -1.5253
 2965TIP3   OH230385   4.458   1.147   2.181 -0.0972  0.2282  0.2020
 2965TIP3    H130386   4.429   1.209   2.248  1.6726  0.6017  0.6339
 2965TIP3    H230387   4.378   1.102   2.154 -0.6538 -0.8991  3.5610
 2966TIP3   OH230388   6.600   1.308  14.449 -0.3283  0.4778 -0.6534
 2966TIP3    H130389   6.536   1.310  14.377  0.7232  0.8202 -1.6008
 2966TIP3    H230390   6.679   1.347  14.411  0.4003  0.1816  0.5457
 2967TIP3   OH230391   2.878   0.562  11.124  0.0618 -0.6847 -0.0312
 2967TIP3    H130392   2.915   0.563  11.036  0.7589  0.7387  0.2692
 2967TIP3    H230393   2.888   0.651  11.156  1.4383 -1.5673  2.1573
 2968TIP3   OH230394   1.342   6.390  13.938  0.3233 -0.2243  0.9192
 2968TIP3    H130395   1.254   6.373  13.973 -0.3405  1.7905  0.2709
 2968TIP3    H230396   1.392   6.420  14.014 -0.1328  0.6676  0.8714
 2969TIP3   OH230397   4.161   1.952  16.018  0.1235 -0.2555 -0.0260
 2969TIP3    H130398   4.090   1.893  15.993  0.9446 -0.8472 -1.0199
 2969TIP3    H230399   4.240   1.897  16.013  0.6952  0.4968  0.6504
 2970TIP3   OH230400   3.911   3.430   2.490 -0.0461  0.4073  0.1915
 2970TIP3    H130401   4.001   3.411   2.462  0.0040 -0.7060  1.0474
 2970TIP3    H230402   3.900   3.523   2.474  0.9380  0.3618 -0.8283
 2971TIP3   OH230403   5.318   4.285   5.764  0.5945  0.3288  0.3673
 2971TIP3    H130404   5.243   4.345   5.762  0.0648 -0.3680 -1.5703
 2971TIP3    H230405   5.299   4.226   5.837  0.9018  2.1837  2.0110
 2972TIP3   OH230406   0.763   2.953   1.049  0.1957  0.2223 -0.5169
 2972TIP3    H130407   0.737   2.960   1.141  2.4574  1.0432  0.0954
 2972TIP3    H230408   0.687   2.985   1.000 -1.1974 -0.6375  1.0360
 2973TIP3   OH230409   2.786   1.819   1.531  0.1364  0.7094 -0.7033
 2973TIP3    H130410   2.875   1.838   1.502 -0.0700  0.3893 -1.5568
 2973TIP3    H230411   2.771   1.729   1.502 -0.6941  0.9845 -1.1124
 2974TIP3   OH230412   6.743   0.129  10.433 -0.2350  0.4687 -0.4566
 2974TIP3    H130413   6.731   0.057  10.495 -0.2202  1.8740  1.1892
 2974TIP3    H230414   6.654   0.158  10.413 -0.2007  0.5768 -0.4481
 2975TIP3   OH230415   3.492   0.992  14.405 -0.1419  0.2205  0.5817
 2975TIP3    H130416   3.500   1.064  14.343  0.0086  0.2737  0.6621
 2975TIP3    H230417   3.414   1.012  14.456 -1.0810 -0.5332 -0.5128
 2976TIP3   OH230418   3.823   4.256  16.745  0.0753 -0.5744  0.1799
 2976TIP3    H130419   3.844   4.342  16.781 -1.4127  0.0052 -0.2987
 2976TIP3    H230420   3.756   4.221  16.804  0.7956 -1.4885  0.4688
 2977TIP3   OH230421   5.068   2.926  12.221 -0.1912  0.5891  0.1598
 2977TIP3    H130422   5.142   2.955  12.169 -1.0585  0.0345 -1.4051
 2977TIP3    H230423   5.092   2.837  12.248  0.0291  0.6807  0.2665
 2978TIP3   OH230424   0.290   4.228  17.097 -0.1000 -0.2341  0.5625
 2978TIP3    H130425   0.365   4.274  17.060 -2.6250  2.4527 -1.4862
 2978TIP3    H230426   0.262   4.167  17.029  0.3862 -1.4447  1.4326
 2979TIP3   OH230427   0.592   0.300   0.777 -0.0425 -0.2449 -0.7069
 2979TIP3    H130428   0.643   0.268   0.851 -1.1302  1.8143  0.9775
 2979TIP3    H230429   0.617   0.392   0.768 -1.9899  0.2737 -1.0923
 2980TIP3   OH230430   3.739   2.601   1.526 -0.4155 -0.2929 -0.3986
 2980TIP3    H130431   3.824   2.609   1.484  0.6037 -0.2159  1.6314
 2980TIP3    H230432   3.753   2.629   1.617 -2.6906  0.1458 -0.1322
 2981TIP3   OH230433   3.595   3.346  15.740 -0.5288 -0.6198  0.0127
 2981TIP3    H130434   3.558   3.332  15.827 -0.3876  0.3429  0.2309
 2981TIP3    H230435   3.546   3.421  15.705 -0.8178 -1.2081 -0.8748
 2982TIP3   OH230436   4.730   2.950  16.320 -0.3006 -0.9514 -0.5102
 2982TIP3    H130437   4.738   3.000  16.239 -0.0259 -0.6154 -0.2817
 2982TIP3    H230438   4.659   2.993  16.367  0.2244 -0.4983 -0.1219
 2983TIP3   OH230439   4.969   3.067  11.684  0.0043 -0.7055  0.2076
 2983TIP3    H130440   5.035   3.077  11.752  0.0716 -0.1009  0.0552
 2983TIP3    H230441   4.888   3.050  11.731 -0.0133  0.0567  0.4488
 2984TIP3   OH230442   6.028   1.204   5.234 -0.3317 -0.1766 -0.7180
 2984TIP3    H130443   6.015   1.241   5.147 -2.1573  1.9945  0.4281
 2984TIP3    H230444   5.951   1.149   5.249  0.1893 -0.8986 -0.6149
 2985TIP3   OH230445   3.854   2.037   1.987  0.2641  0.0559 -0.0664
 2985TIP3    H130446   3.800   1.972   1.942 -0.1049  0.9672 -0.9458
 2985TIP3    H230447   3.801   2.117   1.986  0.6958  0.3661  1.0457
 2986TIP3   OH230448   5.875   3.340   3.785 -0.3904 -0.6736 -0.1801
 2986TIP3    H130449   5.937   3.282   3.827 -0.1351  0.0686  0.4849
 2986TIP3    H230450   5.831   3.286   3.719  0.6636 -1.2988 -0.3674
 2987TIP3   OH230451   5.550   3.643   3.156  0.2516  0.0222  0.6747
 2987TIP3    H130452   5.633   3.650   3.108 -0.2418  0.4488 -0.1134
 2987TIP3    H230453   5.544   3.551   3.180  0.6028 -0.1482  0.1035
 2988TIP3   OH230454   0.499   0.927   6.782  0.4834 -0.3453 -0.2889
 2988TIP3    H130455   0.481   0.888   6.696 -1.7932  0.0220 -0.0168
 2988TIP3    H230456   0.537   0.856   6.833  1.4031 -0.7009 -1.4548
 2989TIP3   OH230457   3.840   5.701  11.988 -0.6391 -0.2661 -0.6121
 2989TIP3    H130458   3.756   5.716  12.031 -0.9079  0.1798 -1.2803
 2989TIP3    H230459   3.881   5.788  11.986 -0.6778 -0.2627 -1.3425
 2990TIP3   OH230460   1.612   6.623   2.976 -1.0675  0.0927  0.3880
 2990TIP3    H130461   1.586   6.642   3.066 -5.3477  0.8372 -0.8837
 2990TIP3    H230462   1.593   6.704   2.928 -1.2064 -1.0936 -1.6100
 2991TIP3   OH230463   0.130   2.767  16.000  0.0161  1.0513  0.0974
 2991TIP3    H130464   0.063   2.711  16.038  0.7262  1.3133  1.8192
 2991TIP3    H230465   0.196   2.706  15.966 -0.2530  0.8111  0.0084
 2992TIP3   OH230466   3.361   5.880   1.627 -0.3790 -0.0192 -0.2765
 2992TIP3    H130467   3.302   5.863   1.700  0.3846 -0.4055  0.2592
 2992TIP3    H230468   3.325   5.829   1.555 -0.8173 -0.0850 -0.0142
 2993TIP3   OH230469   3.655   2.023  13.004  0.5115  0.2555 -0.1733
 2993TIP3    H130470   3.618   1.992  12.922  0.2110 -0.3153  0.1727
 2993TIP3    H230471   3.712   1.952  13.033  0.1397  0.1960  0.4231
 2994TIP3   OH230472   0.492   1.375  12.376 -0.7738  0.2846 -0.2537
 2994TIP3    H130473   0.471   1.329  12.295 -2.1332  1.8982 -0.8581
 2994TIP3    H230474   0.413   1.366  12.430 -0.0212 -0.4442  0.7337
 2995TIP3   OH230475   2.658   4.854  13.406 -0.4006  0.2180 -0.6047
 2995TIP3    H130476   2.654   4.866  13.311 -0.2371 -1.2271 -0.7992
 2995TIP3    H230477   2.730   4.910  13.434  0.1283 -0.0272 -1.4494
 2996TIP3   OH230478   4.943   2.002  17.179  0.5963 -0.0854  0.3526
 2996TIP3    H130479   4.856   1.987  17.217  0.1678  1.6768  0.1065
 2996TIP3    H230480   4.938   1.962  17.092 -0.0476  0.2306  0.2404
 2997TIP3   OH230481   4.551   6.149   5.892 -0.4563 -0.2004  0.9494
 2997TIP3    H130482   4.545   6.178   5.801  1.1977 -0.0034  0.8857
 2997TIP3    H230483   4.506   6.217   5.942  1.0049  1.0925  0.5323
 2998TIP3   OH230484   4.973   1.359   5.938  0.0257 -0.7872  0.2882
 2998TIP3    H130485   4.975   1.264   5.951 -2.1758 -0.9173 -0.0719
 2998TIP3    H230486   4.904   1.390   5.996  0.7095  0.6093  0.3790
 2999TIP3   OH230487   6.568   3.910  13.463  0.1788  0.3849  0.2688
 2999TIP3    H130488   6.605   3.860  13.536 -2.1981  0.2826  1.4284
 2999TIP3    H230489   6.555   3.846  13.393  1.4755  0.2930  0.0951
 3000TIP3   OH230490   5.419   1.326   0.759  0.2613  0.5881  0.1157
 3000TIP3    H130491   5.327   1.301   0.747  0.1417  1.4063 -0.7792
 3000TIP3    H230492   5.415   1.405   0.813  0.3528  1.2912 -0.8778
 3001TIP3   OH230493   3.252   3.284   2.208  0.0165  0.0088 -0.2548
 3001TIP3    H130494   3.248   3.297   2.113 -1.0919  1.7997  0.0166
 3001TIP3    H230495   3.229   3.192   2.221 -0.3666 -0.1024 -1.6799
 3002TIP3   OH230496   1.004   1.965   0.152 -0.2045  0.3518  0.4093
 3002TIP3    H130497   0.911   1.954   0.171 -0.2774  1.6592  0.8488
 3002TIP3    H230498   1.040   2.006   0.231  0.4596  1.1849 -0.3152
 3003TIP3   OH230499   6.441   3.423  16.664  0.2077  0.6062  0.5622
 3003TIP3    H130500   6.534   3.438  16.685  0.6510  0.1209 -0.9833
 3003TIP3    H230501   6.440   3.335  16.626 -0.8076  0.8371  0.0613
 3004TIP3   OH230502   5.115   4.917   0.716 -0.0562 -0.6160 -0.5826
 3004TIP3    H130503   5.184   4.870   0.764 -0.5744 -1.7593 -0.9454
 3004TIP3    H230504   5.121   4.884   0.627  0.6196  1.2046 -1.2325
 3005TIP3   OH230505   4.399   6.232   5.013  0.5815 -0.9331 -0.3556
 3005TIP3    H130506   4.439   6.317   5.026 -0.4242 -0.3214 -1.1709
 3005TIP3    H230507   4.463   6.182   4.963  2.3570 -1.6285  2.4932
 3006TIP3   OH230508   2.133   3.413   4.237  0.0991 -0.7278 -0.7273
 3006TIP3    H130509   2.205   3.458   4.193 -1.2203  0.3928 -1.7699
 3006TIP3    H230510   2.054   3.448   4.196 -1.1982  0.5553  2.6463
 3007TIP3   OH230511   4.214   3.697  15.166  0.2182  0.2345 -0.6231
 3007TIP3    H130512   4.227   3.722  15.257 -0.5484  0.3373 -0.5383
 3007TIP3    H230513   4.302   3.682  15.132  0.5822  1.4454 -0.2238
 3008TIP3   OH230514   0.405   3.975   6.528  0.2135 -0.0610  0.2532
 3008TIP3    H130515   0.389   3.896   6.476  1.5321  0.6007 -1.1938
 3008TIP3    H230516   0.372   4.046   6.473 -0.3532  0.4693  1.2682
 3009TIP3   OH230517   0.249   6.646  16.330 -0.4268  0.3179 -0.2530
 3009TIP3    H130518   0.290   6.704  16.395  0.5409  0.6520 -1.1340
 3009TIP3    H230519   0.276   6.683  16.245 -0.2774 -1.0843 -0.8340
 3010TIP3   OH230520   3.644   3.904   1.178 -0.4099  0.8278  0.0796
 3010TIP3    H130521   3.644   3.843   1.105 -0.8555  1.5284 -0.5100
 3010TIP3    H230522   3.648   3.848   1.256 -1.5474  0.0164 -0.4268
 3011TIP3   OH230523   1.539   4.409   1.927  0.3951  0.0384 -0.3603
 3011TIP3    H130524   1.586   4.454   1.998 -0.3769  0.9875 -0.4412
 3011TIP3    H230525   1.606   4.391   1.861  1.2700 -1.4898  0.9059
 3012TIP3   OH230526   1.319   1.834   3.252 -0.4256 -0.6058 -0.1044
 3012TIP3    H130527   1.314   1.841   3.347  0.1998 -0.3663 -0.0912
 3012TIP3    H230528   1.359   1.916   3.223  0.3701 -1.1291 -0.4931
 3013TIP3   OH230529   4.104   1.905   0.392 -0.6697  0.2362  0.1459
 3013TIP3    H130530   4.052   1.930   0.316 -0.2346  0.0138 -0.2291
 3013TIP3    H230531   4.089   1.811   0.401 -0.1698  0.1360 -0.0861
 3014TIP3   OH230532   0.802   3.585   1.865 -0.1939 -0.3688 -0.1173
 3014TIP3    H130533   0.784   3.669   1.825 -0.2032  0.0815  0.8265
 3014TIP3    H230534   0.740   3.525   1.824 -0.3691  0.1328 -0.5869
 3015TIP3   OH230535   3.837   0.383   3.377 -0.0256 -0.5939 -0.0443
 3015TIP3    H130536   3.926   0.368   3.409  1.0800  1.1149 -2.2251
 3015TIP3    H230537   3.811   0.298   3.340  0.4415 -1.2600  1.0965
 3016TIP3   OH230538   4.126   2.252   5.455  0.0388  0.0419 -0.0448
 3016TIP3    H130539   4.064   2.322   5.475  0.3774 -0.1171  1.6853
 3016TIP3    H230540   4.071   2.179   5.426 -0.3907  0.6926 -0.8655
 3017TIP3   OH230541   1.456   5.599  16.847 -1.0539 -0.3826  0.2192
 3017TIP3    H130542   1.374   5.648  16.855 -1.6268 -1.5241  1.6943
 3017TIP3    H230543   1.437   5.515  16.889  1.1707 -0.2950  1.4804
 3018TIP3   OH230544   3.435   4.216   2.811 -0.6558  0.4660 -0.8768
 3018TIP3    H130545   3.357   4.162   2.820 -0.3864  0.1687 -0.3112
 3018TIP3    H230546   3.473   4.191   2.727 -0.5035 -0.2510 -0.5907
 3019TIP3   OH230547   4.151   3.847   4.935 -0.0377  0.4966  0.5761
 3019TIP3    H130548   4.168   3.884   5.021 -0.0967 -1.0450  1.2577
 3019TIP3    H230549   4.230   3.866   4.884  0.5528  0.2123  1.3803
 3020TIP3   OH230550   5.726   0.514   1.821 -0.5418 -0.4505 -0.5791
 3020TIP3    H130551   5.773   0.464   1.888 -0.2022  0.7214  0.0653
 3020TIP3    H230552   5.778   0.501   1.741  0.4386  0.1862 -0.0494
 3021TIP3   OH230553   1.627   2.497   4.427 -0.1049 -0.1119 -0.2343
 3021TIP3    H130554   1.680   2.577   4.418 -1.6239  1.1905  1.8423
 3021TIP3    H230555   1.602   2.496   4.519  0.3878 -3.3586 -0.0723
 3022TIP3   OH230556   4.026   2.132  16.442 -0.3945  0.0716 -0.1401
 3022TIP3    H130557   3.959   2.190  16.478  0.3892 -0.4168  2.1732
 3022TIP3    H230558   4.105   2.185  16.440 -0.6199  0.3678 -2.0195
 3023TIP3   OH230559   6.107   2.262   2.052  0.3785 -0.2328 -0.5614
 3023TIP3    H130560   6.195   2.284   2.022  0.7408  1.1967  1.4063
 3023TIP3    H230561   6.053   2.337   2.025  0.4845  0.5271  1.2631
 3024TIP3   OH230562   2.633   4.312   3.310 -0.1240 -0.1246  0.5637
 3024TIP3    H130563   2.723   4.318   3.277  0.7492  1.4951  3.0828
 3024TIP3    H230564   2.599   4.401   3.305 -1.3679 -0.5960  0.3048
 3025TIP3   OH230565   5.602   5.195   0.147  0.0138  0.4794  0.3162
 3025TIP3    H130566   5.561   5.108   0.144 -0.1744  0.5040  1.9712
 3025TIP3    H230567   5.695   5.177   0.156 -0.0151  0.4470  0.5594
 3026TIP3   OH230568   1.275   1.655   1.077  0.2350 -0.3287  0.3431
 3026TIP3    H130569   1.307   1.699   1.156 -0.3115 -1.1338  1.0089
 3026TIP3    H230570   1.264   1.564   1.103 -0.1407 -0.5548 -0.6084
 3027TIP3   OH230571   2.886   6.117   1.293  0.5638  0.3502  0.2785
 3027TIP3    H130572   2.967   6.166   1.277 -0.0998  1.6066  0.7269
 3027TIP3    H230573   2.827   6.144   1.223  0.6866 -0.9652 -0.3599
 3028TIP3   OH230574   2.296   6.765   1.907 -0.0277  0.6491  0.0719
 3028TIP3    H130575   2.222   6.704   1.898  1.0845 -0.7664  0.3884
 3028TIP3    H230576   2.298   6.786   2.000  0.6916 -0.2276  0.2532
 3029TIP3   OH230577   4.151   5.847   1.612 -0.2826  0.2121 -0.3608
 3029TIP3    H130578   4.070   5.896   1.626 -0.5663 -0.2641 -0.3198
 3029TIP3    H230579   4.154   5.784   1.684  0.4592  0.6612  0.0121
 3030TIP3   OH230580   3.219   2.431  14.772  0.0428  0.1533 -0.5552
 3030TIP3    H130581   3.204   2.337  14.760 -0.7082  0.2856 -0.6850
 3030TIP3    H230582   3.140   2.472  14.738 -0.1785  0.7695  0.6804
 3031TIP3   OH230583   0.807   5.797  13.972  0.0047 -0.1646 -0.2332
 3031TIP3    H130584   0.845   5.875  13.931 -1.1615  1.1968  1.2057
 3031TIP3    H230585   0.868   5.774  14.042  0.3159 -0.5211 -0.6171
 3032TIP3   OH230586   6.143   6.259  12.306 -0.1365  0.2881 -0.2007
 3032TIP3    H130587   6.174   6.219  12.387  0.4593 -1.1928 -1.1311
 3032TIP3    H230588   6.048   6.268  12.318 -0.0146  0.3529  0.7600
 3033TIP3   OH230589   6.492   4.032  15.942 -0.9114 -0.2884 -0.4446
 3033TIP3    H130590   6.545   4.014  15.865  1.2933  1.7226  0.5196
 3033TIP3    H230591   6.535   3.983  16.012 -1.9873 -0.8758 -0.1905
 3034TIP3   OH230592   6.128   1.153  11.349  0.5182  0.4337 -0.3928
 3034TIP3    H130593   6.133   1.062  11.318 -0.6510  0.3623 -0.3706
 3034TIP3    H230594   6.053   1.190  11.302  0.1966  1.0164  0.5784
 3035TIP3   OH230595   4.383   0.275   4.310  0.1735  0.0696 -0.0089
 3035TIP3    H130596   4.462   0.235   4.345  0.5250  1.0362  0.3031
 3035TIP3    H230597   4.324   0.280   4.384  0.4512  0.9392  0.1524
 3036TIP3   OH230598   3.209   3.984  14.439 -0.2109 -0.1840  0.0054
 3036TIP3    H130599   3.220   3.950  14.528  0.2212 -1.2396 -0.4484
 3036TIP3    H230600   3.262   3.927  14.384  0.2488  1.0195 -0.8216
 3037TIP3   OH230601   2.979   4.867  14.816  0.3298  0.4810 -0.7399
 3037TIP3    H130602   2.891   4.895  14.843  0.4550  0.5477 -0.4041
 3037TIP3    H230603   2.969   4.843  14.723  0.2593  1.7753 -1.0717
 3038TIP3   OH230604   6.715   5.707   0.751 -0.4972  0.1511 -0.1372
 3038TIP3    H130605   6.634   5.757   0.755 -1.0630 -0.7095 -0.8137
 3038TIP3    H230606   6.696   5.625   0.796  1.1639  1.4719  3.2041
 3039TIP3   OH230607   5.745   4.837   4.841 -0.1251  0.2873  0.1229
 3039TIP3    H130608   5.658   4.873   4.827 -0.5584 -0.6939  0.2278
 3039TIP3    H230609   5.805   4.898   4.798 -0.9331  0.5473 -0.6218
 3040TIP3   OH230610   5.235   0.503   0.813  0.2296 -0.0953 -0.1293
 3040TIP3    H130611   5.173   0.449   0.765 -0.8508  0.8401  0.1848
 3040TIP3    H230612   5.196   0.590   0.814  1.6288  0.5497 -0.0614
 3041TIP3   OH230613   5.497   3.406   0.813 -0.3562 -0.1557 -0.1216
 3041TIP3    H130614   5.464   3.317   0.826  0.5942 -0.7256 -1.5218
 3041TIP3    H230615   5.539   3.429   0.896  0.5657 -1.5299 -0.1998
 3042TIP3   OH230616   3.035   6.332  17.037 -0.3089  0.7218 -0.0807
 3042TIP3    H130617   3.014   6.324  17.130 -2.5859 -2.7218 -0.7827
 3042TIP3    H230618   2.959   6.375  16.999  0.4736  1.8088 -0.4432
 3043TIP3   OH230619   5.399   2.320  14.084 -0.0835  0.6352  0.0308
 3043TIP3    H130620   5.309   2.355  14.083  0.1383  1.2208  0.2056
 3043TIP3    H230621   5.399   2.257  14.155 -1.2550 -1.8235 -2.0654
 3044TIP3   OH230622   3.644   1.251   2.937 -0.0149 -0.1645  0.6952
 3044TIP3    H130623   3.580   1.241   3.007 -0.5613  0.2637  0.2596
 3044TIP3    H230624   3.678   1.163   2.923  1.3854  0.0123  2.6984
 3045TIP3   OH230625   0.103   6.489  15.678 -0.3113  0.4650 -0.0650
 3045TIP3    H130626   0.023   6.495  15.624 -0.6474 -0.8791  0.2595
 3045TIP3    H230627   0.075   6.515  15.765 -0.4680 -0.2814  0.1105
 3046TIP3   OH230628   2.003   5.447   4.627 -0.2110 -0.1000 -0.0291
 3046TIP3    H130629   1.947   5.523   4.644 -1.5481 -0.3214 -3.1466
 3046TIP3    H230630   2.084   5.485   4.593  0.7212  0.0987  2.3239
 3047TIP3   OH230631   4.069   3.946   1.036 -0.0858  0.6157  0.2650
 3047TIP3    H130632   4.127   3.955   0.960 -0.4795 -0.6278 -0.1956
 3047TIP3    H230633   4.026   4.031   1.044  0.9577  1.1938 -0.0716
 3048TIP3   OH230634   2.716   0.316   2.153  0.0547  0.2143  0.2050
 3048TIP3    H130635   2.712   0.221   2.167 -0.4952  0.4355  1.6509
 3048TIP3    H230636   2.809   0.338   2.161 -0.0023  0.0264  1.6229
 3049TIP3   OH230637   2.800   4.131  14.470 -0.5646 -0.4590  0.4505
 3049TIP3    H130638   2.882   4.179  14.477 -0.7976  0.1241 -0.6046
 3049TIP3    H230639   2.734   4.189  14.509 -0.8500  0.1258 -0.8439
 3050TIP3   OH230640   4.433   6.802   0.138 -0.8285  0.5892  0.0813
 3050TIP3    H130641   4.412   6.732   0.199 -0.1198  1.6679  1.6057
 3050TIP3    H230642   4.353   6.814   0.087 -0.9632 -1.2856 -0.1651
 3051TIP3   OH230643   0.956   1.798  13.180  0.3132 -0.3415 -0.4127
 3051TIP3    H130644   0.993   1.737  13.244  1.6245  0.5125 -0.3182
 3051TIP3    H230645   1.032   1.848  13.150 -0.8067  1.5871 -0.0905
 3052TIP3   OH230646   6.745   2.869   6.870  0.0570 -0.2109 -0.1153
 3052TIP3    H130647   6.698   2.909   6.797 -1.8097 -0.6064  0.8327
 3052TIP3    H230648   6.676   2.842   6.931  1.5528 -0.2350  1.6175
 3053TIP3   OH230649   0.744   0.960   2.771  0.5631  0.0665  0.6142
 3053TIP3    H130650   0.839   0.947   2.777  0.8868  0.8729 -2.2069
 3053TIP3    H230651   0.731   1.051   2.797  0.7056  0.2976 -0.1136
 3054TIP3   OH230652   1.638   2.691  14.167 -0.4865  0.5800 -0.5123
 3054TIP3    H130653   1.641   2.777  14.126 -1.4915  0.8227 -0.0838
 3054TIP3    H230654   1.589   2.636  14.106  0.9224  0.0825 -1.2011
 3055TIP3   OH230655   0.306   0.489   0.074 -0.0530  0.0118  0.1680
 3055TIP3    H130656   0.255   0.468  -0.005 -1.7647  1.0574  0.9575
 3055TIP3    H230657   0.307   0.584   0.077  2.0331  0.0028  0.1565
 3056TIP3   OH230658   0.555   6.250  11.078  0.3435 -0.4204 -0.0998
 3056TIP3    H130659   0.518   6.205  11.154  0.5819 -1.8411 -0.8139
 3056TIP3    H230660   0.482   6.253  11.015  0.0593  1.0060  0.2663
 3057TIP3   OH230661   2.292   2.405  14.438 -0.2966 -1.0938  0.0520
 3057TIP3    H130662   2.267   2.384  14.528  0.1616 -0.4495  0.3351
 3057TIP3    H230663   2.211   2.436  14.397 -0.4072 -0.9447  0.3786
 3058TIP3   OH230664   1.227   6.793   5.763 -0.4137  0.5144  0.2578
 3058TIP3    H130665   1.297   6.842   5.807  0.1085  0.6215 -0.6864
 3058TIP3    H230666   1.161   6.860   5.743 -0.5464  0.5067  0.6671
 3059TIP3   OH230667   0.813   4.703  16.836  0.0242 -0.2804  0.1469
 3059TIP3    H130668   0.858   4.619  16.847 -1.1117 -0.5697  2.9051
 3059TIP3    H230669   0.861   4.763  16.893  1.5133  1.2970 -2.6295
 3060TIP3   OH230670   6.287   4.296   6.668  0.0075 -0.0095 -0.4721
 3060TIP3    H130671   6.339   4.333   6.740 -0.6864  1.7735 -0.8567
 3060TIP3    H230672   6.237   4.370   6.635  1.8686 -0.2950 -4.1528
 3061TIP3   OH230673   1.370   5.022  10.806 -0.2341 -0.0646  0.3470
 3061TIP3    H130674   1.458   4.987  10.787  0.2221  0.4496  1.4660
 3061TIP3    H230675   1.371   5.110  10.769 -0.7657 -0.5638 -0.8761
 3062TIP3   OH230676   0.896   1.365  15.262  0.0269 -0.0724 -0.1889
 3062TIP3    H130677   0.831   1.371  15.192  0.1246 -1.1342 -0.3877
 3062TIP3    H230678   0.894   1.450  15.304 -0.6515  0.2957 -0.9442
 3063TIP3   OH230679   4.069   2.360  14.899 -0.1850 -0.4313  0.5492
 3063TIP3    H130680   4.009   2.326  14.965  2.4120 -2.3319  2.0121
 3063TIP3    H230681   4.038   2.322  14.817 -2.4358  0.6045  0.8971
 3064TIP3   OH230682   4.452   1.242  14.669  0.4195  0.3684 -0.1031
 3064TIP3    H130683   4.473   1.283  14.585  0.5889  2.0575  0.7585
 3064TIP3    H230684   4.537   1.218  14.706  0.4785  1.5002  0.5163
 3065TIP3   OH230685   4.946   1.703  16.344  0.0516  0.1104  0.0044
 3065TIP3    H130686   4.923   1.612  16.327  0.9709 -0.0515 -0.4017
 3065TIP3    H230687   5.037   1.700  16.374 -0.3998  0.7507  1.4761
 3066TIP3   OH230688   2.186   3.481   2.424 -0.1542 -0.2756 -0.4166
 3066TIP3    H130689   2.120   3.546   2.397 -2.7288 -2.0870  1.3275
 3066TIP3    H230690   2.218   3.444   2.341 -0.4529  1.4334 -1.3287
 3067TIP3   OH230691   3.530   3.701   1.888  0.1589  0.7177 -0.7772
 3067TIP3    H130692   3.456   3.725   1.944 -1.0226 -2.3286 -0.8896
 3067TIP3    H230693   3.515   3.749   1.807 -1.4883  0.5064 -0.6251
 3068TIP3   OH230694   5.001   6.459   2.049 -0.0210 -0.0254 -0.8474
 3068TIP3    H130695   4.944   6.523   2.091  0.1146 -0.7691  0.5011
 3068TIP3    H230696   4.982   6.468   1.955 -1.0462  0.9720 -0.5583
 3069TIP3   OH230697   3.075   6.415  11.703 -0.4084 -0.0328  0.0765
 3069TIP3    H130698   3.104   6.371  11.624 -0.8040 -2.8852  1.4425
 3069TIP3    H230699   2.983   6.438  11.686 -0.1708  0.3690 -0.6814
 3070TIP3   OH230700   1.481   3.353   4.015 -0.4238 -0.5191 -0.2842
 3070TIP3    H130701   1.428   3.376   3.938 -1.4857 -1.7175  0.0874
 3070TIP3    H230702   1.472   3.258   4.023 -1.2615 -0.2693  2.0137
 3071TIP3   OH230703   5.423   3.538  16.531  0.2124  0.1470  0.3377
 3071TIP3    H130704   5.392   3.521  16.442 -0.1592 -2.1055  0.8658
 3071TIP3    H230705   5.417   3.454  16.575  0.2341  1.2685  2.5621
 3072TIP3   OH230706   1.182   0.707   6.730 -0.6753  0.3497  0.0823
 3072TIP3    H130707   1.148   0.646   6.664 -0.0877  0.8116 -0.6649
 3072TIP3    H230708   1.108   0.763   6.752 -0.9087  0.1123 -0.0994
 3073TIP3   OH230709   6.241   4.193   5.816 -0.2303 -0.4937 -0.0528
 3073TIP3    H130710   6.313   4.183   5.755  0.3650  0.9197  0.3992
 3073TIP3    H230711   6.232   4.107   5.857  1.8380 -0.4243  0.5781
 3074TIP3   OH230712   3.792   6.114   4.054 -0.5291  0.1017  0.0242
 3074TIP3    H130713   3.828   6.025   4.059  0.8823  0.6563  0.1198
 3074TIP3    H230714   3.698   6.101   4.042 -0.1125 -1.4484 -2.0194
 3075TIP3   OH230715   2.579   1.372  10.661 -0.0358 -0.6968 -0.1350
 3075TIP3    H130716   2.645   1.432  10.697 -0.5545  0.4770 -1.1347
 3075TIP3    H230717   2.499   1.393  10.709  0.5986 -3.1245  2.1316
 3076TIP3   OH230718   0.362   1.714  12.895  0.3237  0.3424  0.3418
 3076TIP3    H130719   0.300   1.659  12.943 -0.7986  2.0397  0.8818
 3076TIP3    H230720   0.447   1.694  12.934 -0.0796 -0.9473  0.5778
 3077TIP3   OH230721   5.408   1.977  11.176 -0.3748 -0.3161  0.2002
 3077TIP3    H130722   5.405   1.884  11.199  0.0200 -0.3105  0.2695
 3077TIP3    H230723   5.364   1.982  11.091 -0.0742 -0.6236  0.0230
 3078TIP3   OH230724   0.039   2.542  14.337 -0.3315  0.3936  0.1757
 3078TIP3    H130725  -0.021   2.583  14.275  0.2566  0.4866 -0.3395
 3078TIP3    H230726   0.087   2.478  14.285  0.4140  0.7176  0.4559
 3079TIP3   OH230727   1.085   5.285   2.914  0.1875  0.3278  0.0912
 3079TIP3    H130728   1.014   5.245   2.863  0.3221  1.0527 -0.6741
 3079TIP3    H230729   1.050   5.293   3.003 -0.1247 -0.7585  0.0749
 3080TIP3   OH230730   1.079   0.267  15.328  0.0977  0.9334 -0.3778
 3080TIP3    H130731   1.108   0.296  15.242 -1.0565  1.0916 -0.7225
 3080TIP3    H230732   0.985   0.251  15.318  0.4110 -1.5160  0.1780
 3081TIP3   OH230733   0.387   0.652  12.529 -0.6884 -0.6630  0.3274
 3081TIP3    H130734   0.388   0.670  12.435 -2.0683 -0.5310  0.3211
 3081TIP3    H230735   0.415   0.734  12.569 -2.6284  0.1327  0.1207
 3082TIP3   OH230736   0.933   4.950   6.976  0.2929  0.3267 -0.1070
 3082TIP3    H130737   0.938   4.961   7.071 -1.7979  0.7392 -0.0295
 3082TIP3    H230738   0.898   4.862   6.963 -2.9226  1.6098 -0.4127
 3083TIP3   OH230739   5.271   2.714   4.701 -0.1996  0.3804  0.2123
 3083TIP3    H130740   5.321   2.749   4.774  0.5521  0.6531 -0.4251
 3083TIP3    H230741   5.185   2.756   4.707  0.1110  0.9761  0.4880
 3084TIP3   OH230742   5.663   1.827  12.893  0.1050  0.1284 -0.3591
 3084TIP3    H130743   5.685   1.764  12.963  0.3430  0.6251  0.0171
 3084TIP3    H230744   5.663   1.912  12.937 -1.5999  0.2450 -0.5714
 3085TIP3   OH230745   2.140   6.366  12.894  0.7873  0.0864 -0.4806
 3085TIP3    H130746   2.046   6.352  12.903  0.7968 -0.3763 -1.0457
 3085TIP3    H230747   2.169   6.392  12.982  0.3764 -1.2132  0.0596
 3086TIP3   OH230748   2.824   5.255  17.181 -0.2262  0.0485  0.2084
 3086TIP3    H130749   2.849   5.310  17.255 -0.4793  0.9159 -0.3463
 3086TIP3    H230750   2.899   5.258  17.122  0.2591 -1.2141  0.7480
 3087TIP3   OH230751   1.971   1.353   0.044 -0.1856 -0.0190  0.0968
 3087TIP3    H130752   2.031   1.397   0.104 -1.1035  0.5665  0.6150
 3087TIP3    H230753   1.928   1.286   0.098  0.2976 -0.7166 -0.3743
 3088TIP3   OH230754   5.423   3.398   6.462 -0.0282 -0.5977  0.2744
 3088TIP3    H130755   5.366   3.453   6.515  0.3142 -0.9708  1.0464
 3088TIP3    H230756   5.511   3.413   6.499  0.1583 -1.1455  0.0591
 3089TIP3   OH230757   2.137   4.352   5.742 -0.0226  0.3247 -0.7474
 3089TIP3    H130758   2.140   4.291   5.816 -0.4782  1.9416  0.6315
 3089TIP3    H230759   2.149   4.439   5.781  3.7579  0.9576 -3.0170
 3090TIP3   OH230760   5.183   0.515   0.210  0.0487  0.4106  0.0182
 3090TIP3    H130761   5.091   0.516   0.235  0.6743  0.9888  2.3831
 3090TIP3    H230762   5.196   0.596   0.161 -0.4685  0.7546  0.4584
 3091TIP3   OH230763   6.180   6.683   2.327  0.1467 -0.2928 -0.0416
 3091TIP3    H130764   6.098   6.709   2.285  1.3466 -0.4462 -2.5496
 3091TIP3    H230765   6.195   6.750   2.394  0.5694  2.6689 -2.9739
 3092TIP3   OH230766   1.865   1.927  13.730  0.2951  0.7847 -0.6026
 3092TIP3    H130767   1.823   1.852  13.688 -1.6854  1.0356  0.8485
 3092TIP3    H230768   1.959   1.914  13.715 -0.1414 -0.9792 -1.9718
 3093TIP3   OH230769   2.228   0.712   3.005 -0.6963 -0.4491 -0.1996
 3093TIP3    H130770   2.287   0.713   2.929  0.3286  0.0029  0.5890
 3093TIP3    H230771   2.260   0.641   3.060 -0.7881 -0.1094  0.3014
 3094TIP3   OH230772   1.051   5.570  13.696 -0.1382 -0.2574 -0.1964
 3094TIP3    H130773   1.008   5.655  13.683 -0.7989 -0.4043  0.9739
 3094TIP3    H230774   1.062   5.563  13.791  2.1571 -0.3857 -0.4442
 3095TIP3   OH230775   5.457   6.748   2.176  0.2293 -0.0267 -0.4188
 3095TIP3    H130776   5.378   6.695   2.166  0.0453 -0.2130  1.8121
 3095TIP3    H230777   5.424   6.839   2.176  0.0622 -0.0844 -0.0457
 3096TIP3   OH230778   4.896   4.739   2.858  0.2718 -0.0035  0.2074
 3096TIP3    H130779   4.929   4.649   2.863  0.4766  0.1508  1.8441
 3096TIP3    H230780   4.801   4.729   2.851  0.1813 -0.3359  1.7417
 3097TIP3   OH230781   2.098   5.415  17.267 -0.1140  0.4449 -0.5303
 3097TIP3    H130782   2.141   5.375  17.343  0.4190  0.0745 -1.0297
 3097TIP3    H230783   2.071   5.341  17.213  0.3124  0.7366 -1.1503
 3098TIP3   OH230784   0.655   1.173  12.008  0.7363  0.2117  0.1203
 3098TIP3    H130785   0.744   1.153  11.978  0.2883  0.5897 -1.5154
 3098TIP3    H230786   0.598   1.127  11.946 -0.2137 -0.5563  1.5389
 3099TIP3   OH230787   0.095   1.563  11.183 -0.6331 -0.9658 -0.3403
 3099TIP3    H130788   0.094   1.658  11.190  1.1261 -0.8698 -1.0169
 3099TIP3    H230789   0.003   1.537  11.189 -0.9955  0.6516  1.3194
 3100TIP3   OH230790   1.148   2.915  15.359 -0.0796  0.3860  0.1076
 3100TIP3    H130791   1.064   2.955  15.382 -0.5755 -1.3043  1.3844
 3100TIP3    H230792   1.179   2.877  15.442  1.5482  0.2910 -0.5375
 3101TIP3   OH230793   0.490   1.436  16.409  0.1903 -0.3261 -0.5704
 3101TIP3    H130794   0.423   1.503  16.394 -0.4097 -0.8461 -0.2296
 3101TIP3    H230795   0.573   1.480  16.389 -0.1068  0.8398  0.7017
 3102TIP3   OH230796   2.646   0.383  12.064  0.1714 -0.2957 -0.3927
 3102TIP3    H130797   2.704   0.457  12.048 -0.0267  0.1993  1.0622
 3102TIP3    H230798   2.624   0.389  12.157  0.6099 -2.5239 -0.1077
 3103TIP3   OH230799   5.609   4.359  10.537  0.8090 -0.0197  0.0901
 3103TIP3    H130800   5.626   4.401  10.453 -0.2348 -1.0354 -0.6514
 3103TIP3    H230801   5.692   4.318  10.561  0.9287 -0.3079 -0.7953
 3104TIP3   OH230802   2.208   2.334  16.983  0.0003 -0.0773  0.0277
 3104TIP3    H130803   2.258   2.291  17.052  0.5851 -0.4726 -0.6343
 3104TIP3    H230804   2.266   2.332  16.906 -0.4936  0.6758 -0.3775
 3105TIP3   OH230805   4.228   5.200   1.853 -0.3403 -0.0521  0.3135
 3105TIP3    H130806   4.308   5.252   1.842 -0.5944  0.6626  1.7661
 3105TIP3    H230807   4.164   5.243   1.796  0.2575 -0.5652 -0.7768
 3106TIP3   OH230808   1.057   2.223   4.557 -0.1891  0.2978  0.0930
 3106TIP3    H130809   1.017   2.137   4.546 -0.2587  0.3510 -0.0789
 3106TIP3    H230810   0.996   2.271   4.612 -0.4716  0.4511 -0.3493
 3107TIP3   OH230811   1.645   4.121   1.360  0.5660  0.1318 -0.2622
 3107TIP3    H130812   1.687   4.135   1.275  0.4418  4.1546  0.2097
 3107TIP3    H230813   1.718   4.117   1.423  0.6182 -2.0939 -0.4188
 3108TIP3   OH230814   6.112   1.777  14.120 -0.0882 -0.2145  0.6422
 3108TIP3    H130815   6.148   1.688  14.116  1.3187  0.2491  2.1308
 3108TIP3    H230816   6.033   1.769  14.172  0.3237 -0.5228  1.2292
 3109TIP3   OH230817   3.068   4.968  11.496 -0.1349 -0.2015  0.4725
 3109TIP3    H130818   3.104   4.920  11.422  1.0029  1.1019  0.1564
 3109TIP3    H230819   3.138   4.969  11.561 -1.7636 -2.9313  2.3633
 3110TIP3   OH230820   3.030   6.329   0.524  1.0298 -0.2037  0.4116
 3110TIP3    H130821   2.977   6.408   0.535  1.1494  0.7524 -4.5442
 3110TIP3    H230822   2.975   6.258   0.556 -1.8368  1.2031 -1.1636
 3111TIP3   OH230823   0.856   0.985  15.136 -0.5061  0.2187 -0.1002
 3111TIP3    H130824   0.822   1.038  15.064  0.1539 -0.5676 -0.9985
 3111TIP3    H230825   0.797   0.910  15.140 -0.0789 -0.1319 -0.3363
 3112TIP3   OH230826   0.167   6.511   2.670 -0.0614 -0.2330  0.2868
 3112TIP3    H130827   0.187   6.604   2.658  0.2838 -0.3922 -0.4033
 3112TIP3    H230828   0.082   6.500   2.626  0.2239 -0.3911 -0.2167
 3113TIP3   OH230829   4.881   1.410  12.541  0.0260 -0.1629 -0.6515
 3113TIP3    H130830   4.964   1.445  12.574  0.2655 -0.4626 -0.9187
 3113TIP3    H230831   4.813   1.456  12.590  0.3662 -0.3021 -0.0525
 3114TIP3   OH230832   6.593   5.482  11.087 -0.5642 -0.0699 -0.0268
 3114TIP3    H130833   6.665   5.542  11.065 -0.4835 -0.2576 -0.2701
 3114TIP3    H230834   6.619   5.398  11.048 -0.6598 -0.2731  0.3509
 3115TIP3   OH230835   3.033   5.812   2.521  0.7081  0.4399  0.1892
 3115TIP3    H130836   3.031   5.908   2.527  0.5001  0.4081  0.6821
 3115TIP3    H230837   3.050   5.783   2.611 -0.1917 -0.0123  0.2138
 3116TIP3   OH230838   1.972   1.680  16.346  0.0281  0.0522 -0.2626
 3116TIP3    H130839   2.016   1.762  16.371 -2.2504  1.0623  0.5807
 3116TIP3    H230840   1.892   1.708  16.302 -0.7216 -1.7209 -0.0760
 3117TIP3   OH230841   3.837   0.774  16.989  0.0600  0.2942  0.1751
 3117TIP3    H130842   3.755   0.811  16.953  1.1403  1.1489 -1.4907
 3117TIP3    H230843   3.860   0.705  16.927  0.9076  0.4625  0.3060
 3118TIP3   OH230844   1.016   5.395  13.983  0.0074 -0.2383  0.1332
 3118TIP3    H130845   1.035   5.433  14.069  1.0768 -0.1512 -0.1312
 3118TIP3    H230846   1.046   5.304  13.990  0.3497 -0.1536 -0.2322
 3119TIP3   OH230847   0.916   5.147  16.085  0.1300  0.4136  0.5174
 3119TIP3    H130848   0.936   5.065  16.041  0.9992  0.5094  0.7320
 3119TIP3    H230849   0.863   5.121  16.161 -0.2286  0.1247  0.1712
 3120TIP3   OH230850   4.417   5.810   0.511 -0.1708  0.5555  0.2903
 3120TIP3    H130851   4.352   5.878   0.492 -1.2804 -0.6003 -0.0892
 3120TIP3    H230852   4.386   5.770   0.592  0.7911  0.8666  0.8158
 3121TIP3   OH230853   4.085   4.336   2.834 -0.1486 -0.4357  0.3448
 3121TIP3    H130854   4.150   4.313   2.767  0.2511  0.0994  0.5562
 3121TIP3    H230855   4.010   4.367   2.784 -0.4378 -1.5516  0.0783
 3122TIP3   OH230856   0.989   2.345  13.311  0.3971 -0.3672  0.1614
 3122TIP3    H130857   0.896   2.366  13.305  0.6241  1.3185  2.1855
 3122TIP3    H230858   1.026   2.375  13.229 -0.2431  2.2326  0.7970
 3123TIP3   OH230859   2.441   0.192   4.605  0.4488 -0.6712 -0.0370
 3123TIP3    H130860   2.497   0.160   4.675  0.0689 -0.4920  0.3518
 3123TIP3    H230861   2.467   0.284   4.594 -0.4104 -0.3212  0.7887
 3124TIP3   OH230862   5.702   1.472  11.428  0.4233 -0.4787 -0.2990
 3124TIP3    H130863   5.744   1.476  11.514  0.6242  0.1811 -0.4219
 3124TIP3    H230864   5.686   1.564  11.406  0.2373 -0.6578 -0.8984
 3125TIP3   OH230865   5.988   3.471   0.257 -0.9562 -0.2262 -0.5802
 3125TIP3    H130866   6.048   3.426   0.316 -0.8192  1.8004  0.8906
 3125TIP3    H230867   6.034   3.476   0.174  1.2904  2.0234  0.7536
 3126TIP3   OH230868   2.013   5.810  15.393 -0.3125  0.9018 -0.0627
 3126TIP3    H130869   1.953   5.792  15.464  0.0512 -0.7177 -0.1499
 3126TIP3    H230870   1.961   5.800  15.313 -0.0548 -0.0646 -0.1208
 3127TIP3   OH230871   0.532   0.982   4.857  0.3804  0.1362 -0.2908
 3127TIP3    H130872   0.510   0.951   4.945 -0.7172 -0.0479 -0.6156
 3127TIP3    H230873   0.510   0.909   4.800 -0.4984  0.8352 -0.8778
 3128TIP3   OH230874   2.279   5.196   0.450 -0.3811  0.2470 -0.1443
 3128TIP3    H130875   2.274   5.280   0.405 -1.1557  0.3400  0.1016
 3128TIP3    H230876   2.188   5.177   0.474 -0.1827 -0.5629 -0.0223
 3129TIP3   OH230877   5.400   6.488   4.323  0.0731  0.1534 -0.2644
 3129TIP3    H130878   5.396   6.393   4.329 -3.0397  0.2812  0.1533
 3129TIP3    H230879   5.457   6.514   4.396 -1.2442 -1.2345  1.3018
 3130TIP3   OH230880   5.777   2.989   0.964  1.0736 -0.9558  0.0633
 3130TIP3    H130881   5.743   3.025   1.046  0.5752 -0.3933 -0.3784
 3130TIP3    H230882   5.869   3.015   0.963  0.4307  1.3673 -0.8057
 3131TIP3   OH230883   3.630   4.821  16.158  0.0299  0.3525 -0.1849
 3131TIP3    H130884   3.643   4.839  16.251  0.8042  2.9759 -0.7779
 3131TIP3    H230885   3.707   4.771  16.131  1.2664  2.1658 -0.0743
 3132TIP3   OH230886   4.531   0.205  13.249 -0.2351  1.2173  0.2670
 3132TIP3    H130887   4.603   0.260  13.220  1.3611 -0.7626  0.3101
 3132TIP3    H230888   4.453   0.244  13.210  1.0501  2.5002 -1.0748
 3133TIP3   OH230889   3.712   4.509  14.952 -0.2656  0.5374  0.2692
 3133TIP3    H130890   3.761   4.428  14.962 -1.6821 -0.2435  1.1267
 3133TIP3    H230891   3.772   4.577  14.982 -0.0496 -0.5112  2.3187
 3134TIP3   OH230892   1.994   0.939  11.345  0.2573 -0.3213 -0.0632
 3134TIP3    H130893   2.077   0.984  11.354 -0.0203 -0.2034  2.2148
 3134TIP3    H230894   1.968   0.917  11.435 -1.8968 -0.8317 -0.7641
 3135TIP3   OH230895   4.509   6.743   4.488  0.2966 -0.1348 -0.0530
 3135TIP3    H130896   4.584   6.692   4.518  1.0777 -0.1079 -1.8489
 3135TIP3    H230897   4.531   6.767   4.398 -2.2097 -0.7911 -0.8888
 3136TIP3   OH230898   4.832   2.463   5.314 -0.0154  0.2764  0.1399
 3136TIP3    H130899   4.821   2.439   5.222 -2.4565  0.5466  0.3260
 3136TIP3    H230900   4.775   2.403   5.361  0.7467  0.5510  1.4345
 3137TIP3   OH230901   1.961   2.238  12.226  0.2432 -0.1906 -0.0521
 3137TIP3    H130902   2.004   2.298  12.287  0.6900 -1.0051  0.4455
 3137TIP3    H230903   1.919   2.173  12.282  1.1366 -1.2672 -0.6122
 3138TIP3   OH230904   3.754   3.715  16.379 -0.0942  0.2096 -0.6237
 3138TIP3    H130905   3.803   3.657  16.436  0.8461  1.1071 -0.5080
 3138TIP3    H230906   3.696   3.764  16.438  1.4772  1.7385 -0.3180
 3139TIP3   OH230907   0.637   1.083   6.323 -0.0331  0.5629  0.2278
 3139TIP3    H130908   0.586   1.003   6.323 -0.9096  1.1115  1.3567
 3139TIP3    H230909   0.717   1.061   6.371 -0.1354  0.2851  0.2696
 3140TIP3   OH230910   6.411   0.979  13.437  0.3994 -0.0795 -0.5737
 3140TIP3    H130911   6.325   0.938  13.442 -0.0062  0.9760  1.6396
 3140TIP3    H230912   6.425   0.993  13.344 -2.0554  0.2100 -0.9405
 3141TIP3   OH230913   4.417   5.707   3.957  0.0879  0.1355 -0.1506
 3141TIP3    H130914   4.421   5.797   3.924 -0.5947  0.4518  0.6336
 3141TIP3    H230915   4.454   5.655   3.886 -1.1622  0.8306 -1.3468
 3142TIP3   OH230916   4.828   1.517  10.103 -0.1343 -0.5518  0.6488
 3142TIP3    H130917   4.844   1.427  10.077  0.4111 -0.4519  0.6264
 3142TIP3    H230918   4.796   1.511  10.193  0.3705 -0.7338  0.8162
 3143TIP3   OH230919   4.935   2.572  11.265  0.0304  0.0516 -0.0763
 3143TIP3    H130920   5.010   2.559  11.207  1.0246  0.7205  1.0405
 3143TIP3    H230921   4.905   2.483  11.285  0.1638 -0.2050 -0.9851
 3144TIP3   OH230922   0.860   0.433   3.869 -0.3480  0.1724  0.1905
 3144TIP3    H130923   0.765   0.421   3.861 -0.0984 -0.9459 -1.3224
 3144TIP3    H230924   0.870   0.522   3.902 -1.9295  0.3415  0.2444
 3145TIP3   OH230925   3.922   5.884  17.283  0.1156 -0.2485 -0.5098
 3145TIP3    H130926   3.992   5.818  17.279  1.2455  0.7566  1.7672
 3145TIP3    H230927   3.859   5.847  17.345 -0.2747 -0.1222 -0.8315
 3146TIP3   OH230928   0.878   0.631  17.029  0.1638  0.3744 -0.0023
 3146TIP3    H130929   0.933   0.618  17.107 -0.3159 -1.4533  0.0466
 3146TIP3    H230930   0.875   0.726  17.018  3.5783  0.5336 -0.1657
 3147TIP3   OH230931   4.823   5.206  14.098 -0.2729  0.2738 -0.1962
 3147TIP3    H130932   4.766   5.276  14.130 -0.6619  0.5937 -1.5973
 3147TIP3    H230933   4.788   5.127  14.140  0.1985  0.8965  1.4243
 3148TIP3   OH230934   2.425   3.651  14.165 -0.0085  0.4127 -0.3575
 3148TIP3    H130935   2.462   3.564  14.180 -0.8949 -0.0801 -1.0018
 3148TIP3    H230936   2.352   3.657  14.228  0.3642  0.8904  0.0351
 3149TIP3   OH230937   5.727   4.981   5.127 -1.0336 -0.1959 -0.6242
 3149TIP3    H130938   5.742   4.937   5.043 -2.3221  0.6737 -1.3323
 3149TIP3    H230939   5.781   5.059   5.123  0.0925 -0.9335  0.0071
 3150TIP3   OH230940   5.676   0.777   5.479 -0.0908 -1.0618  0.2365
 3150TIP3    H130941   5.703   0.695   5.437 -0.2803 -0.5640 -0.8659
 3150TIP3    H230942   5.748   0.837   5.462  0.1685 -1.0635  1.2792
 3151TIP3   OH230943   5.763   3.441   1.746  0.2334  0.2764  0.0178
 3151TIP3    H130944   5.758   3.527   1.786  0.0437 -0.6871  2.1111
 3151TIP3    H230945   5.853   3.436   1.712  0.8899  0.5153  1.6989
 3152TIP3   OH230946   4.704   4.735  13.528 -0.5973 -0.6970 -0.3404
 3152TIP3    H130947   4.667   4.802  13.470  0.5491 -1.9536 -2.5865
 3152TIP3    H230948   4.786   4.774  13.558 -0.6905 -0.4563 -0.3929
 3153TIP3   OH230949   5.726   5.380  17.235 -1.0307  0.3570  0.4943
 3153TIP3    H130950   5.668   5.452  17.259 -2.7153 -0.7062 -0.2540
 3153TIP3    H230951   5.711   5.313  17.302 -2.5644 -0.9045 -1.0353
 3154TIP3   OH230952   6.436   3.482  11.573  0.0528  0.1292 -0.5655
 3154TIP3    H130953   6.427   3.391  11.600 -0.7233  0.0434 -1.1069
 3154TIP3    H230954   6.399   3.485  11.485 -1.3152  1.2849  0.0347
 3155TIP3   OH230955   1.625   5.059   3.235 -0.1667  0.3477  0.3204
 3155TIP3    H130956   1.721   5.057   3.243  0.0461  1.9423 -1.3449
 3155TIP3    H230957   1.602   4.975   3.197  0.6835  0.3025 -0.1176
 3156TIP3   OH230958   2.508   3.857  11.755 -0.2558  0.0137  0.1403
 3156TIP3    H130959   2.572   3.913  11.800 -0.6351 -0.3257  1.1257
 3156TIP3    H230960   2.560   3.789  11.713  0.1799  0.8753 -0.7398
 3157TIP3   OH230961   4.311   3.277   5.688  0.3902  0.0559  0.5901
 3157TIP3    H130962   4.292   3.371   5.690  1.5858  0.3901 -1.5803
 3157TIP3    H230963   4.326   3.258   5.595 -1.1844 -2.5693  0.8253
 3158TIP3   OH230964   1.984   4.553   5.478  0.0104  0.6037 -0.4276
 3158TIP3    H130965   1.932   4.617   5.429 -2.2813 -1.5883 -0.9472
 3158TIP3    H230966   1.952   4.561   5.568  1.9898  2.3945  0.1563
 3159TIP3   OH230967   0.646   2.176  15.492 -0.1006  0.1170  0.0357
 3159TIP3    H130968   0.664   2.145  15.403 -1.1813  0.9403 -0.4845
 3159TIP3    H230969   0.580   2.115  15.525 -1.5611  1.3013 -0.6579
 3160TIP3   OH230970   2.072   0.356  15.233 -0.0136  0.1554 -0.0921
 3160TIP3    H130971   2.058   0.304  15.312  0.4739 -1.3684 -0.9722
 3160TIP3    H230972   1.990   0.402  15.219 -0.8109 -1.1565  0.1727
 3161TIP3   OH230973   3.192   0.624  15.456 -0.1340 -0.5692 -0.5023
 3161TIP3    H130974   3.126   0.689  15.480 -1.1925 -1.7789 -0.1592
 3161TIP3    H230975   3.143   0.553  15.415  0.9614 -1.4452 -0.3064
 3162TIP3   OH230976   6.259   5.393  13.362  0.1584 -0.6112 -0.3927
 3162TIP3    H130977   6.318   5.318  13.356 -1.5116 -1.9108 -1.1171
 3162TIP3    H230978   6.214   5.395  13.277 -1.7224 -0.4368  0.5769
 3163TIP3   OH230979   4.779   1.895   5.444 -0.5842 -0.2791 -0.0339
 3163TIP3    H130980   4.835   1.948   5.501 -1.1987 -0.1595  0.4570
 3163TIP3    H230981   4.692   1.901   5.482 -1.1079  0.1990 -1.2680
 3164TIP3   OH230982   4.210   2.726  13.010  0.4723 -0.1426  0.5367
 3164TIP3    H130983   4.117   2.733  12.989  0.4945  0.9916  0.7904
 3164TIP3    H230984   4.215   2.742  13.104  1.0716  1.2113  0.2805
 3165TIP3   OH230985   0.654   5.289   3.520  0.5196 -0.0101 -0.3792
 3165TIP3    H130986   0.596   5.366   3.528  2.3031  1.3659 -0.4198
 3165TIP3    H230987   0.613   5.223   3.575 -0.7295  1.1650  0.1552
 3166TIP3   OH230988   4.827   2.149  15.633 -0.5630  0.4941 -0.5009
 3166TIP3    H130989   4.809   2.166  15.726  2.0892  1.0282 -0.0199
 3166TIP3    H230990   4.882   2.071  15.634  1.7951  2.0911 -1.3841
 3167TIP3   OH230991   3.518   3.037   2.196  0.0423 -0.2782 -0.1944
 3167TIP3    H130992   3.488   3.056   2.286 -0.3919 -1.2611 -0.1296
 3167TIP3    H230993   3.569   3.114   2.172  1.4225 -0.6505  1.4545
 3168TIP3   OH230994   4.536   5.079   0.301 -0.5849 -0.0873 -0.3327
 3168TIP3    H130995   4.599   5.069   0.372  0.6750 -0.1149 -1.4376
 3168TIP3    H230996   4.480   5.151   0.329  2.4158  2.6417 -1.1084
 3169TIP3   OH230997   6.128   4.254   6.314  0.8545  0.4725  0.0592
 3169TIP3    H130998   6.089   4.275   6.398  1.5776  1.6815  0.1059
 3169TIP3    H230999   6.075   4.302   6.250 -0.3040 -1.2227 -0.2888
 3170TIP3   OH231000   4.029   0.312   3.852  0.3720  0.8058  0.0755
 3170TIP3    H131001   4.001   0.292   3.941  1.4530 -1.9467 -0.1598
 3170TIP3    H231002   4.119   0.345   3.862  0.6398  0.1133 -0.0141
 3171TIP3   OH231003   4.161   3.374  12.154 -0.6912 -0.1779  0.5286
 3171TIP3    H131004   4.143   3.421  12.236 -0.3048  0.2885  0.3442
 3171TIP3    H231005   4.137   3.283  12.173 -0.1028 -0.1740  1.3386
 3172TIP3   OH231006   2.932   1.680  14.669  0.3438  0.0869 -0.0572
 3172TIP3    H131007   2.874   1.695  14.743 -1.2710  0.6316 -1.3966
 3172TIP3    H231008   2.921   1.587  14.648 -1.0722  0.4890 -1.1389
 3173TIP3   OH231009   5.716   2.000  16.815  0.0890  0.1699  0.2035
 3173TIP3    H131010   5.749   2.033  16.898  2.7379 -0.3583 -0.6073
 3173TIP3    H231011   5.792   1.961  16.772 -1.7286 -1.6697 -1.4548
 3174TIP3   OH231012   0.146   5.851   3.331 -0.0324 -0.0005 -0.2065
 3174TIP3    H131013   0.102   5.858   3.246 -0.2362 -0.9951 -0.1798
 3174TIP3    H231014   0.128   5.935   3.374 -1.4336 -0.1778 -0.4180
 3175TIP3   OH231015   5.762   1.676   0.203  0.1468  0.5976  0.6080
 3175TIP3    H131016   5.699   1.703   0.270 -1.2169  1.1207 -0.8471
 3175TIP3    H231017   5.824   1.620   0.249 -3.2214 -2.6220  1.4550
 3176TIP3   OH231018   3.190   4.281  17.077  0.1502  0.3626  0.4078
 3176TIP3    H131019   3.221   4.198  17.042  1.9253  0.8372  0.8109
 3176TIP3    H231020   3.152   4.259  17.162 -0.1736 -0.1588  0.1281
 3177TIP3   OH231021   2.846   5.877  16.670  0.0054  0.2272  0.4036
 3177TIP3    H131022   2.858   5.968  16.699  0.7061 -0.1831  1.4226
 3177TIP3    H231023   2.785   5.884  16.596 -0.2784  1.4864  0.7327
 3178TIP3   OH231024   5.117   1.261  14.241  0.4521  0.5527 -0.2899
 3178TIP3    H131025   5.109   1.208  14.161 -1.8912 -0.4198  0.5471
 3178TIP3    H231026   5.132   1.350  14.209 -0.9499  0.2543 -1.8324
 3179TIP3   OH231027   1.588   3.020   0.891  0.1973  0.3618  0.0191
 3179TIP3    H131028   1.572   2.964   0.967  1.1348  0.4360  0.2766
 3179TIP3    H231029   1.522   3.089   0.898  1.8421  1.7913  2.1662
 3180TIP3   OH231030   5.278   5.828   3.940  0.4131  0.6958  0.7130
 3180TIP3    H131031   5.359   5.828   3.889  1.1100  0.7423  1.7871
 3180TIP3    H231032   5.226   5.900   3.905  1.1873  1.1694  0.5467
 3181TIP3   OH231033   4.615   3.933  15.836  0.2054 -0.1874 -0.2122
 3181TIP3    H131034   4.524   3.907  15.821  0.6504 -0.4982 -2.6280
 3181TIP3    H231035   4.632   4.001  15.770  1.5504  0.2446  0.5589
 3182TIP3   OH231036   0.691   1.912  13.100  0.0246 -0.0944 -0.1994
 3182TIP3    H131037   0.755   1.844  13.121 -0.8305 -1.0293 -0.5846
 3182TIP3    H231038   0.607   1.875  13.127 -0.6910  0.0030 -2.2549
 3183TIP3   OH231039   0.115   2.507   1.329 -0.6362 -0.2035 -0.0129
 3183TIP3    H131040   0.054   2.451   1.280 -0.8669 -0.5180  0.6256
 3183TIP3    H231041   0.166   2.551   1.262  1.7936 -3.6199 -0.5763
 3184TIP3   OH231042   5.993   3.874   2.211  0.6969  0.1272  0.2117
 3184TIP3    H131043   6.066   3.934   2.196 -0.2108  1.3155  0.5015
 3184TIP3    H231044   6.014   3.832   2.294  0.1145  1.8902  1.2798
 3185TIP3   OH231045   4.512   4.292  16.244 -0.2319 -0.1957 -0.5129
 3185TIP3    H131046   4.467   4.314  16.325 -0.3360  0.0659 -0.6390
 3185TIP3    H231047   4.540   4.377  16.209 -1.8973 -0.1251 -1.7421
 3186TIP3   OH231048   0.728   5.551  16.845 -0.4845  0.4836 -0.0253
 3186TIP3    H131049   0.720   5.646  16.838  0.6446  0.7162  1.6686
 3186TIP3    H231050   0.643   5.518  16.815 -1.2602  2.0792  0.3497
 3187TIP3   OH231051   0.564   6.179   5.804 -0.0486 -0.0243  0.1530
 3187TIP3    H131052   0.596   6.258   5.761  0.2027  1.0357  2.2122
 3187TIP3    H231053   0.644   6.132   5.831 -0.1982 -0.5149 -0.2620
 3188TIP3   OH231054   2.834   0.316  17.057 -0.1201  0.0513 -0.1312
 3188TIP3    H131055   2.850   0.325  16.963  0.7189 -2.1723 -0.2492
 3188TIP3    H231056   2.755   0.262  17.062 -0.2570  0.3071  0.4288
 3189TIP3   OH231057   6.778   0.273   4.025 -0.2225 -0.0701 -0.2349
 3189TIP3    H131058   6.843   0.209   3.998  1.3829  1.7057 -0.6943
 3189TIP3    H231059   6.829   0.343   4.066 -1.7306  1.8162 -1.4791
 3190TIP3   OH231060   5.658   2.723   4.618  0.7300 -0.0608 -0.2972
 3190TIP3    H131061   5.615   2.652   4.666  0.8927 -0.9599 -1.4712
 3190TIP3    H231062   5.614   2.726   4.533  0.4677  1.5024 -0.1297
 3191TIP3   OH231063   2.124   1.070  15.525 -0.3805  0.0256 -0.1874
 3191TIP3    H131064   2.214   1.069  15.556 -0.6530  0.9832  0.6774
 3191TIP3    H231065   2.071   1.049  15.602 -1.0254  1.8514 -0.0949
 3192TIP3   OH231066   5.309   4.084  11.005 -0.5752 -0.1044 -0.0295
 3192TIP3    H131067   5.403   4.087  10.985 -0.3059 -1.5219  0.9246
 3192TIP3    H231068   5.267   4.122  10.928  0.6221 -2.1118 -1.7330
 3193TIP3   OH231069   1.984   6.731   1.255  0.0773 -0.4277  0.0160
 3193TIP3    H131070   1.978   6.676   1.333  1.2079  3.9596  3.4207
 3193TIP3    H231071   2.078   6.733   1.235 -0.2837 -2.1972 -2.0849
 3194TIP3   OH231072   0.633   1.201  17.132  0.0752  0.6089  0.1375
 3194TIP3    H131073   0.631   1.260  17.207 -0.4206  0.8078 -0.0380
 3194TIP3    H231074   0.658   1.256  17.058  2.0410  0.1412  0.4117
 3195TIP3   OH231075   0.242   3.195  14.358 -0.3937 -0.0129 -0.2319
 3195TIP3    H131076   0.238   3.102  14.380  1.9052 -0.4196 -1.3728
 3195TIP3    H231077   0.304   3.232  14.421 -0.3978  0.5216 -0.5368
 3196TIP3   OH231078   5.870   4.255   0.744 -0.1667  0.4660 -0.3244
 3196TIP3    H131079   5.791   4.283   0.790 -0.8556  0.3258 -1.3878
 3196TIP3    H231080   5.910   4.337   0.713  0.0495  0.5310  0.1253
 3197TIP3   OH231081   5.860   3.346  15.258 -0.2873  0.0562 -0.9184
 3197TIP3    H131082   5.781   3.343  15.312 -1.1543  1.2356 -2.0938
 3197TIP3    H231083   5.868   3.437  15.230  1.4214 -0.0745 -0.9478
 3198TIP3   OH231084   5.803   6.662   5.246  0.8386  0.1708 -0.3269
 3198TIP3    H131085   5.715   6.641   5.278  1.2731 -1.0019  0.1148
 3198TIP3    H231086   5.787   6.712   5.166 -0.2417  1.7595  0.8477
 3199TIP3   OH231087   0.999   0.295   1.640 -0.3667  0.6248  0.0666
 3199TIP3    H131088   0.919   0.282   1.590  0.5012 -0.1379 -1.1536
 3199TIP3    H231089   0.981   0.255   1.725 -0.7753 -0.8819 -0.7103
 3200TIP3   OH231090   2.902   5.778   5.646  0.2915 -0.6819  0.0117
 3200TIP3    H131091   2.829   5.733   5.603 -0.2111  1.7037 -1.7060
 3200TIP3    H231092   2.864   5.859   5.680  2.3039  1.0523 -1.7266
 3201TIP3   OH231093   5.870   1.758  15.477 -0.2192 -0.1967  0.1853
 3201TIP3    H131094   5.924   1.813  15.534 -1.8461  2.0814 -0.4204
 3201TIP3    H231095   5.859   1.676  15.526  1.0851  0.5126  1.6973
 3202TIP3   OH231096   3.400   5.704   0.079 -0.6752  0.3935 -0.2131
 3202TIP3    H131097   3.357   5.745   0.154  0.9804 -0.0717  1.0173
 3202TIP3    H231098   3.403   5.774   0.013  0.6122  1.7804  1.2707
 3203TIP3   OH231099   6.075   0.721  14.611  0.1807  1.4306  0.2720
 3203TIP3    H131100   6.007   0.655  14.622  0.0432  1.6702  0.8692
 3203TIP3    H231101   6.089   0.726  14.517 -1.2487  2.0150  0.0898
 3204TIP3   OH231102   5.451   0.964   0.737 -0.0130 -0.0367 -0.6843
 3204TIP3    H131103   5.544   0.942   0.739  0.3746  1.6502  0.3204
 3204TIP3    H231104   5.442   1.019   0.659 -0.0182  0.4548 -0.3364
 3205TIP3   OH231105   4.109   3.736   0.569 -0.1249  0.5901  0.3821
 3205TIP3    H131106   4.026   3.752   0.614 -0.5278  0.8748 -0.4542
 3205TIP3    H231107   4.140   3.654   0.607 -1.5616 -0.3451 -0.4137
 3206TIP3   OH231108   6.353   5.265  13.628 -0.2237  0.3251 -0.3886
 3206TIP3    H131109   6.258   5.266  13.631 -0.2153  1.0067 -0.3717
 3206TIP3    H231110   6.380   5.302  13.712  0.0712 -1.3851  0.3100
 3207TIP3   OH231111   2.767   5.033  14.443  0.8025 -0.0353  0.2351
 3207TIP3    H131112   2.703   4.974  14.404 -0.2279  0.9368  0.4317
 3207TIP3    H231113   2.831   4.975  14.484  0.3442 -1.0235 -0.4215
 3208TIP3   OH231114   6.259   0.511   3.968  0.4585  0.1481  0.5029
 3208TIP3    H131115   6.226   0.572   4.034 -1.8835 -0.5051 -0.0033
 3208TIP3    H231116   6.327   0.461   4.012 -0.7653  0.0219  2.2789
 3209TIP3   OH231117   3.694   5.439   5.608 -0.2266  0.2537  0.3031
 3209TIP3    H131118   3.716   5.420   5.700 -2.2762 -0.0014  0.7685
 3209TIP3    H231119   3.676   5.354   5.570 -0.0097  0.4211 -0.1732
 3210TIP3   OH231120   1.000   3.117   0.781  0.6458 -0.3091 -0.4272
 3210TIP3    H131121   0.995   3.150   0.870  1.0311  1.3047 -0.9873
 3210TIP3    H231122   0.911   3.087   0.762  0.3185  0.2977  0.1358
 3211TIP3   OH231123   2.153   5.983  16.612 -0.3193  0.4251  0.6039
 3211TIP3    H131124   2.087   5.918  16.635 -0.7175 -0.0475 -1.7421
 3211TIP3    H231125   2.104   6.065  16.605 -0.2437  0.5177  1.1356
 3212TIP3   OH231126   0.230   5.139   1.194  0.0926 -0.2461 -0.0457
 3212TIP3    H131127   0.184   5.059   1.219 -0.4003 -0.1105 -0.5029
 3212TIP3    H231128   0.252   5.125   1.102  1.3852 -0.5072  0.2926
 3213TIP3   OH231129   6.550   3.789  14.270 -0.1699  0.2449  0.2501
 3213TIP3    H131130   6.574   3.834  14.189  2.0148  0.7082  1.1031
 3213TIP3    H231131   6.457   3.769  14.260  0.0289  0.4041 -2.3010
 3214TIP3   OH231132   5.809   2.541  16.949  0.0919 -0.1802  0.1675
 3214TIP3    H131133   5.819   2.625  16.994  1.0787 -0.5107  0.5871
 3214TIP3    H231134   5.826   2.560  16.857  0.4402  0.0568  0.2812
 3215TIP3   OH231135   6.058   3.807  11.821 -0.3222  0.0915  0.1025
 3215TIP3    H131136   6.149   3.794  11.792 -0.1407  1.0827  0.2046
 3215TIP3    H231137   6.048   3.747  11.895 -0.2768 -1.2457 -0.9520
 3216TIP3   OH231138   0.811   1.585  13.637 -0.3822 -0.5176  0.4475
 3216TIP3    H131139   0.841   1.668  13.599 -0.3441 -0.6095  0.2767
 3216TIP3    H231140   0.729   1.608  13.681 -0.2173 -0.3290  0.6594
 3217TIP3   OH231141   2.689   6.179   1.115  0.3590  0.2219  0.2179
 3217TIP3    H131142   2.625   6.110   1.098  0.8212  0.0394 -0.8310
 3217TIP3    H231143   2.642   6.260   1.097  0.2012  0.1204  0.1742
 3218TIP3   OH231144   4.201   3.651  12.956 -0.3993 -0.3026  0.0632
 3218TIP3    H131145   4.208   3.738  12.916 -1.1809  0.2266  1.0575
 3218TIP3    H231146   4.263   3.598  12.907  0.7289  1.0256  0.0099
 3219TIP3   OH231147   1.408   5.048   3.460 -0.0693 -0.4871  0.1672
 3219TIP3    H131148   1.336   5.100   3.425  0.8122  1.8675  1.7225
 3219TIP3    H231149   1.479   5.061   3.397  0.0393 -0.0607  0.3724
 3220TIP3   OH231150   3.636   1.620   2.169  0.0346 -0.0145  0.1188
 3220TIP3    H131151   3.549   1.657   2.163 -0.9522 -2.0321  1.2550
 3220TIP3    H231152   3.686   1.682   2.222 -1.5823 -0.3414  2.0578
 3221TIP3   OH231153   4.554   4.462  15.180  0.5767 -0.0066  0.4326
 3221TIP3    H131154   4.605   4.526  15.131 -1.0150  1.3662  0.5259
 3221TIP3    H231155   4.473   4.508  15.203 -0.5191 -1.9865  0.6723
 3222TIP3   OH231156   5.385   5.030  17.169  0.2178 -0.9321  1.0351
 3222TIP3    H131157   5.325   4.999  17.101  0.6991  1.1851 -0.3853
 3222TIP3    H231158   5.472   5.012  17.134  0.4845  1.0326  0.6668
 3223TIP3   OH231159   6.322   3.941  16.216  0.3246 -0.0321 -0.6477
 3223TIP3    H131160   6.282   4.025  16.237  0.8420  0.4179 -1.4484
 3223TIP3    H231161   6.394   3.963  16.157 -0.2879 -1.1496 -1.8328
 3224TIP3   OH231162   5.362   6.501   4.682  0.1667 -0.3489 -0.8019
 3224TIP3    H131163   5.374   6.580   4.630  2.4528 -0.9357 -1.2404
 3224TIP3    H231164   5.305   6.445   4.629 -0.6853  0.6218 -0.9093
 3225TIP3   OH231165   3.343   5.139  15.195 -0.8936  0.0351 -0.0131
 3225TIP3    H131166   3.374   5.053  15.168 -1.1010  0.0418 -0.2714
 3225TIP3    H231167   3.253   5.144  15.162 -0.3767  0.9463 -1.3200
 3226TIP3   OH231168   4.953   3.130   3.539 -0.3519 -0.0369 -0.4328
 3226TIP3    H131169   4.977   3.210   3.494  1.7458 -0.3109  0.1861
 3226TIP3    H231170   4.954   3.063   3.470 -0.3363  0.1270 -0.5926
 3227TIP3   OH231171   5.627   2.663   1.466 -0.8805  0.2530 -0.0287
 3227TIP3    H131172   5.543   2.648   1.421 -0.1966  1.9189 -1.9712
 3227TIP3    H231173   5.607   2.732   1.530 -0.3421  3.1754 -2.8457
 3228TIP3   OH231174   5.517   6.332  11.708 -0.2547  0.1255  0.4100
 3228TIP3    H131175   5.435   6.287  11.728 -0.7131  0.2301 -1.1509
 3228TIP3    H231176   5.508   6.417  11.752 -1.7142  0.7920 -1.1191
 3229TIP3   OH231177   4.182   3.084  13.218  0.0199 -0.1916  0.3736
 3229TIP3    H131178   4.099   3.038  13.206 -0.0095 -0.2065  0.6163
 3229TIP3    H231179   4.193   3.089  13.313  0.9843 -1.4284  0.3367
 3230TIP3   OH231180   1.631   3.064  16.437  0.3238 -0.4002 -0.0914
 3230TIP3    H131181   1.575   3.030  16.367  1.2508  0.6966 -1.3938
 3230TIP3    H231182   1.623   3.159  16.430  1.4394 -0.2571  0.4636
 3231TIP3   OH231183   3.175   5.205  11.099 -0.2441 -0.1169 -0.6654
 3231TIP3    H131184   3.199   5.216  11.007  0.7604 -0.1964 -0.4261
 3231TIP3    H231185   3.220   5.277  11.144 -1.7300  0.6575 -0.3894
 3232TIP3   OH231186   5.920   5.178   3.032 -0.2439  1.1932  0.3879
 3232TIP3    H131187   5.996   5.214   3.077  0.4102  1.9354 -1.3081
 3232TIP3    H231188   5.956   5.123   2.963 -1.2489  0.3404  0.5239
 3233TIP3   OH231189   0.630   1.800  16.051 -0.1427  0.2846 -0.4494
 3233TIP3    H131190   0.614   1.869  16.115  1.5737 -0.4960  0.8768
 3233TIP3    H231191   0.543   1.769  16.026 -0.8646  1.5672  0.4442
 3234TIP3   OH231192   6.533   1.140   2.732  0.3795  0.1014 -0.6876
 3234TIP3    H131193   6.539   1.160   2.638  0.1395  3.1373 -0.0972
 3234TIP3    H231194   6.606   1.187   2.771 -0.2640 -0.1252  0.8119
 3235TIP3   OH231195   4.743   4.045  13.194 -0.0689  0.1677  0.2363
 3235TIP3    H131196   4.733   4.041  13.289 -0.9648 -2.1964  0.0779
 3235TIP3    H231197   4.749   3.953  13.167  2.4167  0.8992 -1.7804
 3236TIP3   OH231198   0.725   2.146  13.544 -0.6852  0.7761 -0.8872
 3236TIP3    H131199   0.743   2.131  13.451 -2.1874  1.1859 -1.2526
 3236TIP3    H231200   0.790   2.211  13.571  1.7603 -1.5849 -0.8612
 3237TIP3   OH231201   5.933   3.037   2.583  0.5230 -0.2832 -0.2216
 3237TIP3    H131202   6.025   3.018   2.603  0.6565 -1.5507 -1.9352
 3237TIP3    H231203   5.931   3.048   2.488 -1.2601 -1.1586 -0.2971
 3238TIP3   OH231204   3.221   4.743   6.562  0.2410  0.3373 -0.1886
 3238TIP3    H131205   3.291   4.773   6.620 -1.6266  1.1124  1.7369
 3238TIP3    H231206   3.167   4.686   6.617 -1.3346  0.7584 -1.2661
 3239TIP3   OH231207   0.435   4.957   1.236 -0.3541  0.1396  0.1212
 3239TIP3    H131208   0.379   4.900   1.288  0.4824  0.9200  1.9517
 3239TIP3    H231209   0.383   5.036   1.222 -0.8055 -0.3145 -0.7496
 3240TIP3   OH231210   6.794   1.675  15.646 -0.4107 -0.0856 -0.3193
 3240TIP3    H131211   6.806   1.591  15.689 -1.4784 -0.2761 -0.3826
 3240TIP3    H231212   6.799   1.739  15.718  0.5913 -0.1849 -0.2976
 3241TIP3   OH231213   1.736   6.253   5.523 -0.4058 -0.4496  0.0598
 3241TIP3    H131214   1.761   6.297   5.605 -1.8613  0.0673  0.2396
 3241TIP3    H231215   1.666   6.193   5.548  1.3698 -2.7041 -0.2415
 3242TIP3   OH231216   5.031   6.128   1.727  0.7575 -0.1515 -0.1955
 3242TIP3    H131217   5.065   6.089   1.647 -1.1482  0.1351 -1.1771
 3242TIP3    H231218   4.993   6.054   1.775 -0.5268  0.0614 -0.8479
 3243TIP3   OH231219   3.616   6.082   5.480 -0.2102 -0.5411 -0.6284
 3243TIP3    H131220   3.621   6.014   5.547  1.9598 -0.8240 -1.0240
 3243TIP3    H231221   3.597   6.162   5.529 -0.3429 -1.0315  0.1336
 3244TIP3   OH231222   5.927   4.604   5.830  0.5241  0.0347  0.6465
 3244TIP3    H131223   5.977   4.669   5.880  0.3296  0.1966  0.6342
 3244TIP3    H231224   5.876   4.557   5.896  1.8779 -1.1908  0.8281
 3245TIP3   OH231225   5.850   2.095   5.626  0.1643 -0.4818 -0.2397
 3245TIP3    H131226   5.917   2.030   5.604 -0.0471 -0.5290 -0.7555
 3245TIP3    H231227   5.891   2.179   5.606  1.1265 -0.3296  2.2248
 3246TIP3   OH231228   4.343   6.098  13.145 -0.0266 -0.1156 -0.1688
 3246TIP3    H131229   4.338   6.122  13.237  1.0824 -1.9617  0.3866
 3246TIP3    H231230   4.279   6.028  13.135  0.6451 -0.6794 -0.5475
 3247TIP3   OH231231   5.764   6.011   1.587 -0.0397 -0.1305 -0.2407
 3247TIP3    H131232   5.762   5.933   1.642  3.7611 -1.6514 -2.0648
 3247TIP3    H231233   5.697   5.995   1.520 -1.0387 -0.6371  0.8642
 3248TIP3   OH231234   1.308   1.525   0.092 -0.2582 -0.5234  0.4352
 3248TIP3    H131235   1.273   1.440   0.118  1.5731 -1.3210  0.3653
 3248TIP3    H231236   1.277   1.586   0.160 -3.0876 -0.8617 -0.4740
 3249TIP3   OH231237   1.593   5.024   2.339 -0.0719  0.1386 -0.4585
 3249TIP3    H131238   1.572   5.116   2.327  1.7465  0.5786 -0.3824
 3249TIP3    H231239   1.568   4.983   2.256 -2.1633  0.4275 -0.0076
 3250TIP3   OH231240   5.124   2.486  10.445 -0.6925 -0.0837  0.3332
 3250TIP3    H131241   5.196   2.423  10.451  0.2837  0.8868 -0.9602
 3250TIP3    H231242   5.161   2.559  10.396 -3.0431 -0.2460 -1.7182
 3251TIP3   OH231243   1.188   6.653  13.953  0.0735  0.4269  0.5939
 3251TIP3    H131244   1.134   6.723  13.989  0.7243  0.9468  0.5699
 3251TIP3    H231245   1.274   6.666  13.993 -0.0465 -0.9343  1.3408
 3252TIP3   OH231246   0.213   2.535  16.243 -0.1018  0.4538 -0.1283
 3252TIP3    H131247   0.295   2.538  16.195  0.6081  2.0006  1.1219
 3252TIP3    H231248   0.222   2.460  16.302  0.7521  1.1058  0.5741
 3253TIP3   OH231249   0.558   3.035  11.915 -0.3574  0.9092  0.1532
 3253TIP3    H131250   0.646   3.071  11.918  0.4226 -0.9325 -0.0547
 3253TIP3    H231251   0.555   2.984  11.834 -2.0101  1.9365 -0.4513
 3254TIP3   OH231252   4.656   4.219  16.016 -0.2485 -0.4240 -0.2117
 3254TIP3    H131253   4.637   4.248  16.105  0.4408 -0.3368 -0.0856
 3254TIP3    H231254   4.578   4.172  15.989 -1.4848  1.7469 -0.5027
 3255TIP3   OH231255   3.497   1.049   3.392 -0.5370 -0.0678 -0.3547
 3255TIP3    H131256   3.407   1.020   3.405  0.1322 -2.6080 -1.1575
 3255TIP3    H231257   3.546   0.969   3.374  1.7584  1.3560 -0.6708
 3256TIP3   OH231258   0.215   1.808  16.631  0.7639 -0.7850 -0.2672
 3256TIP3    H131259   0.123   1.817  16.605  0.8122  0.5698 -0.0015
 3256TIP3    H231260   0.213   1.803  16.726  1.0661  1.0013 -0.1347
 3257TIP3   OH231261   4.442   5.026  13.925 -0.3657 -0.0362  0.8330
 3257TIP3    H131262   4.472   4.957  13.984 -0.2675 -1.2368 -0.6010
 3257TIP3    H231263   4.385   5.081  13.980  1.9469  0.5107  2.7765
 3258TIP3   OH231264   4.577   5.755   0.246  0.2718  0.2149  0.9343
 3258TIP3    H131265   4.577   5.836   0.196 -0.4360  0.9125  2.0520
 3258TIP3    H231266   4.512   5.768   0.314  2.0303 -0.2606  2.7616
 3259TIP3   OH231267   2.450   6.580   0.132  0.2379  0.7136 -0.3495
 3259TIP3    H131268   2.373   6.634   0.151  0.4750  0.9116  0.0750
 3259TIP3    H231269   2.514   6.642   0.096 -0.9539 -0.0317 -3.9384
 3260TIP3   OH231270   1.808   0.140  12.688  0.1922  0.0133 -0.3312
 3260TIP3    H131271   1.792   0.231  12.662  1.1282  0.6496  1.2824
 3260TIP3    H231272   1.756   0.128  12.767  1.3251 -0.3687  0.3574
 3261TIP3   OH231273   3.905   3.553   5.001 -0.4808 -0.3862  0.3894
 3261TIP3    H131274   3.968   3.573   5.070  0.7078 -1.7012 -0.2767
 3261TIP3    H231275   3.902   3.457   4.999  0.1661 -0.3877 -1.9539
 3262TIP3   OH231276   3.269   3.541   4.749 -0.0308  1.5274 -0.3374
 3262TIP3    H131277   3.177   3.555   4.771  0.0357 -0.2906  1.2843
 3262TIP3    H231278   3.293   3.462   4.797  1.8581  0.8632 -2.2673
 3263TIP3   OH231279   5.866   3.810  11.514 -0.4340 -0.5644 -0.2174
 3263TIP3    H131280   5.961   3.804  11.528 -0.0617  1.5421 -1.6781
 3263TIP3    H231281   5.829   3.806  11.602  1.3317  3.3764  0.7872
 3264TIP3   OH231282   4.278   2.570   2.057 -0.0376  0.0536 -0.5409
 3264TIP3    H131283   4.318   2.646   2.099  0.6910  0.0192 -1.1572
 3264TIP3    H231284   4.262   2.508   2.128  1.9486 -0.3490 -0.4008
 3265TIP3   OH231285   4.931   5.657   5.741  0.3621 -0.1219  0.1143
 3265TIP3    H131286   4.878   5.714   5.798 -0.4240 -0.3465 -0.3875
 3265TIP3    H231287   4.946   5.578   5.793  0.7535  0.2032  0.5014
 3266TIP3   OH231288   2.639   4.978   4.880  0.3245 -0.4929 -0.2066
 3266TIP3    H131289   2.669   4.888   4.870  1.3361 -0.3071  1.0523
 3266TIP3    H231290   2.565   4.985   4.820  0.5265 -2.0207 -0.6637
 3267TIP3   OH231291   6.219   6.405   3.615  0.3346 -0.4628 -0.2005
 3267TIP3    H131292   6.141   6.351   3.602  0.2727 -0.6547  0.9372
 3267TIP3    H231293   6.291   6.348   3.588  0.0804 -0.2572 -1.3309
 3268TIP3   OH231294   3.473   3.071  14.844  0.2609 -0.1104  0.1709
 3268TIP3    H131295   3.489   3.080  14.938  1.0050  0.3468  0.0074
 3268TIP3    H231296   3.385   3.108  14.831 -0.2018 -0.9701  0.8157
 3269TIP3   OH231297   4.854   3.153   4.616 -0.4287  0.2137  0.0484
 3269TIP3    H131298   4.910   3.179   4.689  0.3107  0.3330 -0.5555
 3269TIP3    H231299   4.914   3.134   4.545 -1.1834  1.1206 -0.8549
 3270TIP3   OH231300   1.932   5.526  15.124 -0.1612  0.3330  0.3436
 3270TIP3    H131301   1.904   5.615  15.146 -0.3018 -0.1363  2.1291
 3270TIP3    H231302   1.855   5.487  15.084  0.2985  1.4060 -1.6483
 3271TIP3   OH231303   2.504   3.383   6.100  0.4520 -0.1995 -0.3667
 3271TIP3    H131304   2.544   3.393   6.014  0.4560 -2.0249 -0.5978
 3271TIP3    H231305   2.413   3.411   6.087  0.3858 -0.6946 -1.0390
 3272TIP3   OH231306   1.085   3.106   1.583 -0.7522 -0.2346  0.1854
 3272TIP3    H131307   1.106   3.130   1.673 -0.9384  0.4389  0.0540
 3272TIP3    H231308   1.144   3.160   1.530 -0.1712 -1.1237 -0.0766
 3273TIP3   OH231309   5.578   2.327  16.900  0.3956  0.3031  0.2156
 3273TIP3    H131310   5.504   2.276  16.867  0.4626  0.9196 -0.9000
 3273TIP3    H231311   5.646   2.317  16.833  1.8169 -1.3241  1.8263
 3274TIP3   OH231312   4.655   5.100  16.544  0.1958  0.1976 -0.2192
 3274TIP3    H131313   4.599   5.122  16.619  0.3734  1.5672 -0.4723
 3274TIP3    H231314   4.617   5.148  16.471  1.0865  0.3198 -0.6156
 3275TIP3   OH231315   6.231   6.799   4.849  0.1342 -0.8357 -0.1268
 3275TIP3    H131316   6.307   6.847   4.817 -0.2709 -0.8835 -1.1973
 3275TIP3    H231317   6.264   6.746   4.921  0.6951  0.6565  0.7361
 3276TIP3   OH231318   3.593   0.562   1.389  0.8846  0.0767 -0.2275
 3276TIP3    H131319   3.515   0.612   1.366  1.0929  0.3463 -0.3500
 3276TIP3    H231320   3.645   0.559   1.308 -0.4531 -2.8036 -1.0385
 3277TIP3   OH231321   6.264   5.925   2.626  0.2222 -0.2293  0.3526
 3277TIP3    H131322   6.341   5.869   2.634  0.4890  0.2997  1.6583
 3277TIP3    H231323   6.243   5.951   2.716 -0.3429  1.1436 -0.1508
 3278TIP3   OH231324   5.197   3.528  14.957 -0.0115 -0.0289  0.3626
 3278TIP3    H131325   5.224   3.449  15.003 -0.4709  0.8817  2.2510
 3278TIP3    H231326   5.118   3.557  15.003 -0.1063  1.2695 -0.5772
 3279TIP3   OH231327   3.987   0.266  17.132  0.5450 -0.2654 -0.5182
 3279TIP3    H131328   3.892   0.259  17.116  0.5122 -2.1091  0.4144
 3279TIP3    H231329   3.995   0.262  17.227  1.5258  0.6758 -0.5563
 3280TIP3   OH231330   1.963   1.787   2.187  0.2192 -0.7773  0.8292
 3280TIP3    H131331   2.027   1.785   2.258  0.0132 -1.7256  1.0011
 3280TIP3    H231332   2.005   1.839   2.118  0.1922  0.6164  1.8461
 3281TIP3   OH231333   1.028   6.785   3.632 -0.1308  0.3529 -0.2048
 3281TIP3    H131334   0.935   6.799   3.654  0.0162 -0.9893  1.3773
 3281TIP3    H231335   1.072   6.863   3.666 -0.4582  0.1797  0.6357
 3282TIP3   OH231336   1.692   6.749   1.246 -1.0633  0.4123 -0.2682
 3282TIP3    H131337   1.663   6.697   1.320  1.6903 -1.7997 -0.6776
 3282TIP3    H231338   1.647   6.711   1.170  0.5019 -1.0761 -0.4849
 3283TIP3   OH231339   5.654   2.343  12.956 -0.3271 -0.3362  0.1786
 3283TIP3    H131340   5.707   2.398  13.013 -2.1035 -0.1683  1.7018
 3283TIP3    H231341   5.586   2.401  12.922 -0.9985 -1.1009  0.1809
 3284TIP3   OH231342   6.226   6.504  14.985 -0.5339  0.5321 -0.1423
 3284TIP3    H131343   6.233   6.593  15.021 -0.6914  0.0015  1.2214
 3284TIP3    H231344   6.135   6.479  15.001 -0.5629  0.2198 -0.7649
 3285TIP3   OH231345   1.982   1.590   3.657 -0.4558  0.0862  0.0942
 3285TIP3    H131346   1.988   1.546   3.573  0.8274  1.3454 -0.5089
 3285TIP3    H231347   2.066   1.637   3.665 -1.2421  1.3257  1.2946
 3286TIP3   OH231348   6.188   3.400   0.436 -0.3270  0.1694  0.2985
 3286TIP3    H131349   6.269   3.378   0.389 -1.0901 -0.9970 -0.4745
 3286TIP3    H231350   6.211   3.390   0.528  0.5982  0.5042  0.1116
 3287TIP3   OH231351   5.546   5.973  15.885 -0.5787 -0.0680  0.1069
 3287TIP3    H131352   5.638   5.954  15.869 -0.3931 -1.5163  2.8165
 3287TIP3    H231353   5.530   6.052  15.833  2.2383  0.3701 -0.1957
 3288TIP3   OH231354   0.010   1.068   4.487 -0.2740  0.1484  0.0826
 3288TIP3    H131355  -0.025   1.057   4.398  0.7823  1.7958 -0.5800
 3288TIP3    H231356   0.102   1.042   4.480  0.5365  2.8334 -0.0004
 3289TIP3   OH231357   2.469   1.885   1.922 -0.3333 -0.0208  0.2562
 3289TIP3    H131358   2.456   1.816   1.987 -2.1682  1.4228  1.4859
 3289TIP3    H231359   2.514   1.842   1.849 -2.9352 -2.9324  0.2575
 3290TIP3   OH231360   1.940   2.147   4.407  0.1124  0.5183 -0.6406
 3290TIP3    H131361   1.989   2.156   4.489 -1.3980  0.9499  0.2346
 3290TIP3    H231362   2.003   2.107   4.346  1.4081  0.6532  0.5695
 3291TIP3   OH231363   1.575   3.078   1.346  0.6267  0.4123 -0.0750
 3291TIP3    H131364   1.522   3.144   1.303  0.4327  0.8264  0.7837
 3291TIP3    H231365   1.570   3.100   1.439  2.1363  0.3478  0.0461
 3292TIP3   OH231366   1.601   3.643  14.618  0.4740  0.2397  0.1219
 3292TIP3    H131367   1.673   3.633  14.680 -0.3781  0.6644  1.1998
 3292TIP3    H231368   1.543   3.707  14.658 -0.3630  0.1195 -0.8663
 3293TIP3   OH231369   5.960   5.856   5.688  0.1451  0.1146 -0.5880
 3293TIP3    H131370   5.877   5.827   5.651  0.4334  0.1391 -1.2675
 3293TIP3    H231371   5.936   5.904   5.767 -0.5264  0.6499 -1.1149
 3294TIP3   OH231372   3.947   0.109   5.786  0.5383  0.1769  0.0061
 3294TIP3    H131373   3.946   0.204   5.797  1.7743  0.0408  1.4584
 3294TIP3    H231374   3.881   0.076   5.847  0.0226  0.0928 -0.5842
 3295TIP3   OH231375   4.881   2.402   5.625  0.6588  0.4400 -0.6589
 3295TIP3    H131376   4.951   2.427   5.564  3.4766  0.9478  2.6117
 3295TIP3    H231377   4.857   2.484   5.668  0.2011 -0.2471  0.3954
 3296TIP3   OH231378   5.687   0.448  14.801 -0.0634 -0.1273 -0.0780
 3296TIP3    H131379   5.773   0.413  14.778  0.3006  0.8728 -0.2570
 3296TIP3    H231380   5.639   0.373  14.837  1.7536 -0.1328  2.4488
 3297TIP3   OH231381   1.501   3.891   3.607 -0.0632  0.1491 -0.0113
 3297TIP3    H131382   1.533   3.855   3.690  1.0688  0.6973 -0.1950
 3297TIP3    H231383   1.413   3.855   3.597 -0.9262  1.4933  2.3348
 3298TIP3   OH231384   3.822   4.794  13.346 -0.1331 -0.1738 -0.1625
 3298TIP3    H131385   3.867   4.830  13.423 -0.0515 -0.4084 -0.0987
 3298TIP3    H231386   3.731   4.822  13.356 -0.0294  0.1923 -0.2258
 3299TIP3   OH231387   6.523   0.107  12.227 -0.5221 -0.4552  0.2534
 3299TIP3    H131388   6.595   0.044  12.237  0.9405  1.5036  2.6517
 3299TIP3    H231389   6.523   0.129  12.134  1.5096 -1.0808  0.0799
 3300TIP3   OH231390   2.187   1.330  17.093  0.9091 -0.0164  0.3214
 3300TIP3    H131391   2.119   1.368  17.037 -0.2769 -2.5189 -0.0172
 3300TIP3    H231392   2.231   1.266  17.036  0.7508 -1.4304  1.7625
 3301TIP3   OH231393   0.646   6.465   2.627  0.0665 -0.0714  0.5889
 3301TIP3    H131394   0.609   6.385   2.589  1.0039  0.4087 -1.4236
 3301TIP3    H231395   0.579   6.532   2.611  0.2365  0.0148  0.2165
 3302TIP3   OH231396   1.017   6.206  15.644  0.0310 -0.6256 -0.0103
 3302TIP3    H131397   1.006   6.172  15.733 -0.9398 -1.0443 -0.2814
 3302TIP3    H231398   0.933   6.247  15.624 -0.6351 -2.6841 -1.6402
 3303TIP3   OH231399   5.798   2.585  12.270 -0.4672  0.1261 -0.4838
 3303TIP3    H131400   5.725   2.560  12.214 -0.5635  0.2308 -0.4042
 3303TIP3    H231401   5.848   2.505  12.281 -0.6880  0.0067 -0.3598
 3304TIP3   OH231402   6.074   4.746  14.508  1.2817  0.3476  0.6383
 3304TIP3    H131403   5.997   4.694  14.529  0.8449  0.9203  0.4735
 3304TIP3    H231404   6.084   4.735  14.413  1.8953 -0.3933  0.7871
 3305TIP3   OH231405   3.250   4.350   1.854 -0.1013 -0.1548 -0.4574
 3305TIP3    H131406   3.249   4.354   1.758  0.1319 -0.3056 -0.4674
 3305TIP3    H231407   3.173   4.298   1.877 -0.4168  0.2735 -0.5425
 3306TIP3   OH231408   2.748   0.337  11.645 -0.0529 -0.2807 -0.5522
 3306TIP3    H131409   2.784   0.249  11.658  0.9712  0.1304 -0.5885
 3306TIP3    H231410   2.665   0.335  11.693  0.9554 -0.6099  1.2585
 3307TIP3   OH231411   0.689   2.954  12.617 -0.0936  0.2813 -1.0574
 3307TIP3    H131412   0.607   2.923  12.577  0.6737 -0.4109 -2.1056
 3307TIP3    H231413   0.754   2.888  12.594  0.3908 -0.1043  1.3348
 3308TIP3   OH231414   1.802   6.061   1.395 -0.0715  0.3696 -0.1540
 3308TIP3    H131415   1.887   6.070   1.438 -0.0009 -0.5701 -0.0827
 3308TIP3    H231416   1.790   5.967   1.387 -0.4464  0.5229 -1.4662
 3309TIP3   OH231417   2.563   2.453   2.244 -0.0458 -0.0651 -0.4303
 3309TIP3    H131418   2.541   2.374   2.294 -3.3847  0.2790 -1.2638
 3309TIP3    H231419   2.591   2.516   2.311 -0.9705 -0.7721  0.6413
 3310TIP3   OH231420   5.660   2.089  13.530  0.2175 -0.0936  0.4324
 3310TIP3    H131421   5.658   2.184  13.533  0.7211 -0.1024  1.6465
 3310TIP3    H231422   5.702   2.064  13.612  1.5613 -1.3205 -0.6093
 3311TIP3   OH231423   4.725   0.264   3.367 -0.1072  0.1968  0.0887
 3311TIP3    H131424   4.764   0.270   3.454  0.6907  1.0060 -0.3155
 3311TIP3    H231425   4.682   0.179   3.365  0.9411 -0.3525  0.8410
 3312TIP3   OH231426   6.258   5.830  15.389  0.4047  0.0488 -0.1670
 3312TIP3    H131427   6.193   5.813  15.457  0.1143 -0.8510 -0.6643
 3312TIP3    H231428   6.341   5.838  15.437  0.1370 -0.1504  0.3355
 3313TIP3   OH231429   1.114   5.823   5.409 -0.2260 -0.3928 -0.1207
 3313TIP3    H131430   1.136   5.828   5.502  1.0366  1.0154 -0.4735
 3313TIP3    H231431   1.019   5.810   5.407 -0.2149 -0.7302  1.3709
 3314TIP3   OH231432   1.954   6.222  12.274 -0.4806  0.0099 -0.4489
 3314TIP3    H131433   1.873   6.236  12.322 -0.4522 -1.1932 -0.0298
 3314TIP3    H231434   1.997   6.149  12.320  1.8128  1.9454  0.5665
 3315TIP3   OH231435   0.811   0.614  11.676  0.4081  0.3639 -0.6900
 3315TIP3    H131436   0.754   0.622  11.753  0.6166  0.0846 -0.5057
 3315TIP3    H231437   0.822   0.704  11.645  1.3089  0.6205  0.3316
 3316TIP3   OH231438   2.716   2.458  12.247 -0.4306 -0.6040 -0.0713
 3316TIP3    H131439   2.635   2.434  12.292  0.1820 -0.8143  0.9181
 3316TIP3    H231440   2.764   2.376  12.237  0.0939 -0.3352  0.2065
 3317TIP3   OH231441   6.321   3.941   3.058  0.3388 -0.0056 -0.9166
 3317TIP3    H131442   6.263   4.017   3.056  0.4693  0.1573  0.5847
 3317TIP3    H231443   6.407   3.975   3.034  0.3415  0.2849 -0.5084
 3318TIP3   OH231444   6.039   1.099   2.019 -0.3221  0.0827 -0.3568
 3318TIP3    H131445   5.996   1.176   1.982 -1.4428 -1.1771 -1.7067
 3318TIP3    H231446   6.098   1.069   1.950  1.6024  0.8399  0.8860
 3319TIP3   OH231447   3.291   1.213   2.846 -0.3410 -0.4874 -0.2029
 3319TIP3    H131448   3.377   1.175   2.829 -0.2901  0.5155 -2.3580
 3319TIP3    H231449   3.246   1.147   2.898  0.0416 -3.1500 -3.0807
 3320TIP3   OH231450   1.597   3.181   3.723 -0.2565  0.7446  0.0901
 3320TIP3    H131451   1.536   3.226   3.664 -1.3830  2.1604  2.2589
 3320TIP3    H231452   1.667   3.150   3.665 -2.0189  0.8174 -2.1842
 3321TIP3   OH231453   0.110   2.210   2.933  0.4303 -0.0240  0.3850
 3321TIP3    H131454   0.141   2.231   2.845 -0.6422  1.3281  0.3186
 3321TIP3    H231455   0.018   2.187   2.921  0.2156  0.3959  1.1720
 3322TIP3   OH231456   3.219   1.743  12.229 -0.1310 -0.4853  0.2309
 3322TIP3    H131457   3.137   1.698  12.209 -1.9660  0.9682  3.9793
 3322TIP3    H231458   3.212   1.828  12.185 -0.7401 -0.2876  0.7068
 3323TIP3   OH231459   0.278   2.285  14.464  0.1063 -0.0902  0.1995
 3323TIP3    H131460   0.237   2.310  14.382 -0.0644  2.0701  0.9080
 3323TIP3    H231461   0.347   2.351  14.478  1.3346 -1.4747  0.8954
 3324TIP3   OH231462   4.201   0.482  14.803  0.6244 -0.0604  0.0346
 3324TIP3    H131463   4.285   0.437  14.793  0.9555  0.7603 -0.9453
 3324TIP3    H231464   4.225   0.573  14.819 -0.0958  0.4125 -1.4916
 3325TIP3   OH231465   0.702   3.623   5.277  0.4613 -0.0820  0.4426
 3325TIP3    H131466   0.704   3.592   5.187 -0.5890  0.3850  0.2479
 3325TIP3    H231467   0.692   3.544   5.329  1.8419 -0.4233  0.2055
 3326TIP3   OH231468   0.811   3.922   5.806 -0.1420  0.8998  0.2043
 3326TIP3    H131469   0.817   3.864   5.882  0.5995 -1.8907 -1.9064
 3326TIP3    H231470   0.733   3.891   5.759  0.4889  1.3283 -1.1526
 3327TIP3   OH231471   1.570   6.473   5.951 -0.3970 -0.1715 -0.4886
 3327TIP3    H131472   1.568   6.564   5.921  2.2488 -0.5704 -2.0233
 3327TIP3    H231473   1.592   6.478   6.044 -2.0388  0.8205 -0.1491
 3328TIP3   OH231474   1.959   1.987  13.349 -0.0761  0.3660  0.5013
 3328TIP3    H131475   1.957   1.965  13.442  3.6953  0.8963  0.8180
 3328TIP3    H231476   1.995   1.909  13.307 -0.4327  0.6362 -0.3109
 3329TIP3   OH231477   6.340   3.561  11.318 -0.4388 -0.2483  0.1418
 3329TIP3    H131478   6.355   3.632  11.254  2.2773 -0.4226  0.5035
 3329TIP3    H231479   6.255   3.525  11.294  0.2141  0.1185 -2.9799
 3330TIP3   OH231480   0.720   3.763  16.112  0.3225 -0.7388 -0.4314
 3330TIP3    H131481   0.748   3.801  16.195 -0.2178  2.9369 -1.8126
 3330TIP3    H231482   0.776   3.686  16.100  1.5803 -0.3243  2.4786
 3331TIP3   OH231483   1.978   4.891  17.063  0.4159  0.2703 -0.2168
 3331TIP3    H131484   1.906   4.931  17.113  0.4242  2.6556 -2.0052
 3331TIP3    H231485   1.964   4.921  16.973  3.1169 -0.0177 -0.7763
 3332TIP3   OH231486   3.234   2.804  14.797  0.1553  0.6301 -0.3980
 3332TIP3    H131487   3.250   2.731  14.738  1.6133  0.6351 -0.0402
 3332TIP3    H231488   3.294   2.788  14.871 -2.1099  0.2407  1.4253
 3333TIP3   OH231489   1.760   1.203   3.074  1.1210 -0.0099 -0.2888
 3333TIP3    H131490   1.693   1.135   3.079  0.2695  0.7688 -1.0161
 3333TIP3    H231491   1.765   1.239   3.162 -0.0269  0.5021 -0.4290
 3334TIP3   OH231492   2.236   2.438  13.729  0.3581  0.1065  0.0533
 3334TIP3    H131493   2.303   2.495  13.692  0.0587 -0.5672 -1.5540
 3334TIP3    H231494   2.153   2.474  13.696 -0.0199  0.3687  1.2587
 3335TIP3   OH231495   1.177   5.535   1.279 -0.3040 -0.0829  0.3821
 3335TIP3    H131496   1.249   5.475   1.259  1.1891  1.6960  0.2545
 3335TIP3    H231497   1.102   5.498   1.234  1.1663 -0.5001 -1.7982
 3336TIP3   OH231498   4.209   5.557   6.354  0.4243 -0.2400 -0.2972
 3336TIP3    H131499   4.253   5.474   6.372  0.3093 -0.8837 -2.8315
 3336TIP3    H231500   4.171   5.583   6.438  0.1579 -2.9291  0.4537
 3337TIP3   OH231501   5.450   1.873   4.940  0.0035 -0.5197  0.1201
 3337TIP3    H131502   5.543   1.890   4.955 -0.4842  1.1356  1.4690
 3337TIP3    H231503   5.437   1.782   4.967  1.4289 -1.1204 -1.1398
 3338TIP3   OH231504   4.603   0.622  10.748 -0.0813 -0.0799  0.8199
 3338TIP3    H131505   4.513   0.607  10.776  0.0224 -0.6561  0.8642
 3338TIP3    H231506   4.645   0.667  10.822 -1.1426  3.0637 -0.4136
 3339TIP3   OH231507   0.172   3.920   5.152  0.5923  0.1568  0.3054
 3339TIP3    H131508   0.098   3.977   5.133  0.5470 -0.0259 -0.0780
 3339TIP3    H231509   0.190   3.933   5.245 -0.1309 -0.0435  0.4764
 3340TIP3   OH231510   5.416   1.417   1.388  0.2487  0.3400  0.2968
 3340TIP3    H131511   5.407   1.359   1.463  1.2885  1.1635  1.0636
 3340TIP3    H231512   5.481   1.481   1.414  1.5069 -0.0550 -1.7426
 3341TIP3   OH231513   0.579   0.472   0.515 -0.4099 -0.3293 -0.1558
 3341TIP3    H131514   0.497   0.519   0.531  0.3269  0.7065  0.6614
 3341TIP3    H231515   0.565   0.428   0.431 -2.3170 -1.3287  0.6424
 3342TIP3   OH231516   2.769   3.373  13.059 -0.9970 -0.0055 -0.2286
 3342TIP3    H131517   2.734   3.386  12.970 -0.4068 -0.3821 -0.5222
 3342TIP3    H231518   2.839   3.438  13.066 -0.3482 -0.6702 -0.4298
 3343TIP3   OH231519   3.019   6.448   5.914  0.4538  0.6014  0.1887
 3343TIP3    H131520   3.001   6.466   5.822  0.7771  0.4473  0.0949
 3343TIP3    H231521   3.023   6.535   5.955 -1.9058  0.5954  0.4780
 3344TIP3   OH231522   6.789   2.403   1.739 -0.0935  0.1013  0.3308
 3344TIP3    H131523   6.769   2.347   1.664 -2.3481  2.9779 -1.3172
 3344TIP3    H231524   6.863   2.456   1.711  1.0266 -0.9302  1.3014
 3345TIP3   OH231525   1.866   6.500   3.117 -0.0495  0.6404 -0.2975
 3345TIP3    H131526   1.940   6.560   3.107 -0.4710  1.3049  0.5236
 3345TIP3    H231527   1.791   6.548   3.082 -0.1906  0.1612 -0.6605
 3346TIP3   OH231528   5.899   6.210   3.453 -0.6291 -0.0529 -0.3638
 3346TIP3    H131529   5.877   6.193   3.544 -0.0624  0.6381 -0.0908
 3346TIP3    H231530   5.815   6.212   3.408 -0.7638 -2.9279 -0.3176
 3347TIP3   OH231531   3.039   0.133  12.949 -0.2278 -0.0617 -0.2524
 3347TIP3    H131532   2.996   0.158  13.030 -2.3689 -2.3253 -0.6423
 3347TIP3    H231533   2.977   0.158  12.880 -0.4169 -2.2787 -0.8959
 3348TIP3   OH231534   2.388   1.399  13.531  0.1607 -0.6885 -0.3116
 3348TIP3    H131535   2.334   1.417  13.454  0.4028  1.1475 -0.0761
 3348TIP3    H231536   2.419   1.309  13.519  0.7812 -0.1730 -2.6894
 3349TIP3   OH231537   2.653   1.578   5.867  0.1675  0.2529 -0.6714
 3349TIP3    H131538   2.558   1.570   5.873  0.2853 -1.0544 -0.4279
 3349TIP3    H231539   2.677   1.520   5.795  1.0405 -1.4804  0.9710
 3350TIP3   OH231540   6.750   5.909  15.221 -0.1104  0.1014 -0.4872
 3350TIP3    H131541   6.803   5.842  15.178  0.5984  2.0890 -2.7843
 3350TIP3    H231542   6.812   5.962  15.272 -0.6414 -0.7865  1.1422
 3351TIP3   OH231543   5.952   2.786   5.309  0.0285  0.1185 -0.2386
 3351TIP3    H131544   5.869   2.815   5.270  0.4052 -0.2469 -1.3371
 3351TIP3    H231545   6.002   2.867   5.321 -0.7683  0.4339  1.1527
 3352TIP3   OH231546   0.590   1.022   3.068 -0.1640  0.5989 -0.6000
 3352TIP3    H131547   0.599   1.111   3.033  1.4530  0.3291 -0.9405
 3352TIP3    H231548   0.678   1.001   3.100 -0.2941 -1.2172 -1.3678
 3353TIP3   OH231549   0.955   5.586  14.187 -0.1495 -0.7105  0.4112
 3353TIP3    H131550   0.937   5.581  14.093 -0.8175  2.4735  0.3054
 3353TIP3    H231551   0.868   5.597  14.227  0.3605  0.8737  1.1205
 3354TIP3   OH231552   4.606   4.404  14.628 -0.8585 -0.0582  0.0417
 3354TIP3    H131553   4.658   4.361  14.697 -0.8407 -1.5645 -0.9037
 3354TIP3    H231554   4.597   4.495  14.659  0.7795 -0.2288  1.1056
 3355TIP3   OH231555   0.719   3.558  12.803 -0.6666 -0.1531 -0.9203
 3355TIP3    H131556   0.711   3.491  12.735 -0.4565 -0.8328 -0.2788
 3355TIP3    H231557   0.652   3.534  12.868 -0.8355  0.4662 -0.8632
 3356TIP3   OH231558   0.109   2.978  10.864  0.1329 -0.3732 -0.7010
 3356TIP3    H131559   0.149   2.895  10.891  0.4096 -0.2915 -0.8577
 3356TIP3    H231560   0.028   2.983  10.915  0.2697 -0.5871 -0.4591
 3357TIP3   OH231561   2.281   4.438   6.245 -0.4785  0.6271  0.2576
 3357TIP3    H131562   2.199   4.481   6.271 -1.3403 -0.6766 -0.2377
 3357TIP3    H231563   2.254   4.350   6.220  1.1975 -0.0571  0.8170
 3358TIP3   OH231564   4.364   5.900   0.956 -0.0546 -0.1711  0.2083
 3358TIP3    H131565   4.323   5.823   0.994  0.5181 -0.4058  0.3546
 3358TIP3    H231566   4.401   5.870   0.873  1.3390 -0.3818  0.8867
 3359TIP3   OH231567   3.731   0.104   2.288 -0.1935 -0.4910 -0.5920
 3359TIP3    H131568   3.704   0.195   2.291  0.0421 -0.4360  0.0791
 3359TIP3    H231569   3.717   0.077   2.197  1.2096  0.6729 -1.1722
 3360TIP3   OH231570   1.881   6.261  11.755 -0.5793  0.0293 -0.3820
 3360TIP3    H131571   1.907   6.351  11.734 -1.3999  0.3875  0.1013
 3360TIP3    H231572   1.788   6.268  11.777 -0.2848 -0.6889  1.1289
 3361TIP3   OH231573   2.779   4.829   0.111  0.3468 -0.3232  0.5687
 3361TIP3    H131574   2.861   4.871   0.084  0.5657 -1.7602 -1.1219
 3361TIP3    H231575   2.710   4.879   0.068  0.3257  0.7520  1.8168
 3362TIP3   OH231576   1.615   4.837   6.296 -0.6026 -0.2309  0.4230
 3362TIP3    H131577   1.547   4.785   6.338  0.5483 -1.9127  0.2350
 3362TIP3    H231578   1.573   4.875   6.219 -1.5804 -0.4531  0.8440
 3363TIP3   OH231579   3.088   4.787  11.776 -0.7987  0.1372 -0.0846
 3363TIP3    H131580   3.082   4.722  11.846  1.3472  0.5997  0.5742
 3363TIP3    H231581   3.029   4.858  11.805 -0.2304  0.1527  1.0874
 3364TIP3   OH231582   1.120   5.564   4.090 -0.1259 -0.2119 -0.4215
 3364TIP3    H131583   1.204   5.547   4.049  0.3192 -0.8416  0.7262
 3364TIP3    H231584   1.141   5.615   4.168 -0.8046 -0.3774 -0.1229
 3365TIP3   OH231585   6.615   4.845  12.007 -0.2681 -0.2296 -0.2048
 3365TIP3    H131586   6.528   4.869  11.976  0.1267  0.1114 -1.0823
 3365TIP3    H231587   6.601   4.808  12.094 -1.2498  0.1276 -0.2080
 3366TIP3   OH231588   2.314   4.193   4.127  0.0926  0.1434 -0.3313
 3366TIP3    H131589   2.316   4.281   4.089 -3.6094  0.8290  0.8063
 3366TIP3    H231590   2.228   4.159   4.103  1.1285 -2.8609 -0.0217
 3367TIP3   OH231591   0.285   2.824   5.325  0.5173 -0.1825  0.0254
 3367TIP3    H131592   0.225   2.760   5.287 -0.1272  0.1411  0.4922
 3367TIP3    H231593   0.356   2.832   5.261  0.4930 -1.2072 -0.1259
 3368TIP3   OH231594   5.604   1.400   3.070  0.0378 -0.2571 -0.0239
 3368TIP3    H131595   5.681   1.390   3.125  0.7560  2.5814 -0.4544
 3368TIP3    H231596   5.540   1.338   3.107  2.1247 -1.8573  0.9836
 3369TIP3   OH231597   2.041   2.592   2.212 -0.2761  0.3996  0.6211
 3369TIP3    H131598   2.013   2.654   2.280 -0.2969  1.3434 -0.2341
 3369TIP3    H231599   1.980   2.606   2.140  0.4846  0.2589 -0.0567
 3370TIP3   OH231600   4.967   3.065   4.876 -0.1153  0.4361  0.1030
 3370TIP3    H131601   5.009   2.984   4.850  0.5494  0.3899  1.3136
 3370TIP3    H231602   5.028   3.107   4.936 -0.9591  1.2752  0.4044
 3371TIP3   OH231603   0.063   3.736  12.819 -0.1080 -0.0188  0.2809
 3371TIP3    H131604   0.086   3.645  12.837  0.6518  0.4764  1.9017
 3371TIP3    H231605  -0.032   3.736  12.812 -0.2132 -0.7301  1.5830
 3372TIP3   OH231606   6.430   4.186   6.472  0.3094  0.1660  0.2206
 3372TIP3    H131607   6.360   4.128   6.443  0.2262 -0.0023  0.7484
 3372TIP3    H231608   6.386   4.252   6.525  0.5189  0.2028  0.3489
 3373TIP3   OH231609   5.520   2.131   4.822 -0.0894  0.3273 -0.4053
 3373TIP3    H131610   5.442   2.158   4.871  0.0707  0.4526 -0.2226
 3373TIP3    H231611   5.525   2.036   4.835 -0.6044  0.2143 -0.9790
 3374TIP3   OH231612   1.185   5.689   4.351  0.1627  0.2437 -0.0900
 3374TIP3    H131613   1.195   5.780   4.325  2.0100  0.1419  0.2500
 3374TIP3    H231614   1.200   5.690   4.446  0.9450 -0.5357 -0.2097
 3375TIP3   OH231615   6.263   0.124  13.650 -0.2437 -0.3601  0.0082
 3375TIP3    H131616   6.357   0.125  13.668 -0.2941 -0.9192  0.3438
 3375TIP3    H231617   6.256   0.090  13.561 -0.0681  0.8893 -0.4919
 3376TIP3   OH231618   3.222   5.964   0.126  0.7317  0.0143 -0.0397
 3376TIP3    H131619   3.241   6.004   0.211  2.5565  1.3151 -1.0296
 3376TIP3    H231620   3.127   5.970   0.118  0.5299 -0.1259  1.9111
 3377TIP3   OH231621   1.094   3.673  16.992  0.0343 -0.3046 -0.5024
 3377TIP3    H131622   1.152   3.730  17.041  0.2140  0.7388 -1.8707
 3377TIP3    H231623   1.076   3.599  17.050  1.1916  0.3035  0.6383
 3378TIP3   OH231624   5.983   0.295   1.016 -0.0511  0.3770 -0.1269
 3378TIP3    H131625   5.888   0.289   1.006 -0.0972 -0.9126  0.8995
 3378TIP3    H231626   6.014   0.208   0.994  0.5874 -0.1124  2.5309
 3379TIP3   OH231627   1.725   6.457  13.739 -0.0914  0.0605 -0.1015
 3379TIP3    H131628   1.805   6.433  13.786 -0.2310  0.8375  0.5432
 3379TIP3    H231629   1.755   6.507  13.663  0.0815 -0.4375 -0.3665
 3380TIP3   OH231630   0.631   5.257  11.831 -0.6564 -0.1108 -0.3310
 3380TIP3    H131631   0.550   5.307  11.840 -1.3253 -1.2745  0.2805
 3380TIP3    H231632   0.622   5.211  11.747 -0.9681 -0.8138  0.0799
 3381TIP3   OH231633   0.734   3.775   1.671 -0.1219 -0.2156 -0.5064
 3381TIP3    H131634   0.804   3.812   1.617  0.7468 -2.6597 -1.0815
 3381TIP3    H231635   0.659   3.769   1.612  0.0785 -0.4607 -0.7390
 3382TIP3   OH231636   4.220   4.072  13.189 -0.1311 -0.7786 -0.1186
 3382TIP3    H131637   4.283   4.118  13.134  0.9187 -0.0990  1.6218
 3382TIP3    H231638   4.195   4.137  13.255 -3.1250 -0.8442 -1.1366
 3383TIP3   OH231639   2.749   6.478   0.354  0.4981 -0.1261  0.2257
 3383TIP3    H131640   2.816   6.521   0.301 -0.5856 -0.5838 -1.5533
 3383TIP3    H231641   2.700   6.549   0.395  1.4025  0.2281  0.7002
 3384TIP3   OH231642   0.656   1.989   0.801  0.2806  0.1970 -0.3382
 3384TIP3    H131643   0.678   2.063   0.858  1.7472 -0.7186  0.2905
 3384TIP3    H231644   0.681   2.019   0.713  0.2741  0.6805 -0.1802
 3385TIP3   OH231645   5.656   4.686  16.012 -0.5979  0.0233  1.0371
 3385TIP3    H131646   5.685   4.699  16.102  1.5627 -0.4544  0.4382
 3385TIP3    H231647   5.726   4.725  15.958 -2.3934  1.3488 -0.4332
 3386TIP3   OH231648   0.220   5.884   2.432  0.5722 -0.2669 -0.2489
 3386TIP3    H131649   0.234   5.823   2.504 -0.3140  0.8372  0.8964
 3386TIP3    H231650   0.164   5.837   2.371  0.0412 -0.6687  0.5383
 3387TIP3   OH231651   6.129   2.780   0.529 -0.1076  0.1270 -0.0879
 3387TIP3    H131652   6.212   2.825   0.549 -0.1349  0.6600 -1.1248
 3387TIP3    H231653   6.062   2.848   0.542 -0.3599 -0.2136  0.4226
 3388TIP3   OH231654   5.090   2.454  14.695  0.0331  0.2655  0.3165
 3388TIP3    H131655   5.133   2.478  14.777 -0.6527  1.7853  0.2381
 3388TIP3    H231656   5.161   2.450  14.631  0.5182 -0.5607  0.8969
 3389TIP3   OH231657   5.549   0.681   0.343 -0.2127 -0.0380  0.3519
 3389TIP3    H131658   5.576   0.621   0.412 -0.4825  1.5746  1.8743
 3389TIP3    H231659   5.603   0.758   0.355 -1.7641  1.1156  0.1331
 3390TIP3   OH231660   3.379   2.574  17.237 -0.5159  0.3929 -0.8760
 3390TIP3    H131661   3.475   2.571  17.234 -0.5120  0.6793 -1.0755
 3390TIP3    H231662   3.359   2.603  17.326 -0.3814  1.7365 -1.2808
 3391TIP3   OH231663   2.938   2.450  17.199  0.1546 -0.5066 -0.5983
 3391TIP3    H131664   2.868   2.469  17.137  1.6202  0.1654 -2.0850
 3391TIP3    H231665   2.917   2.502  17.277  0.3757  1.7368 -2.0006
 3392TIP3   OH231666   6.014   4.335  13.504  0.0207 -0.4166 -0.2405
 3392TIP3    H131667   5.944   4.306  13.446  2.0937 -0.6818 -2.6960
 3392TIP3    H231668   6.031   4.425  13.477  0.9190 -0.5079  0.0246
 3393TIP3   OH231669   5.438   5.704  12.577  0.3692  0.3231 -0.2332
 3393TIP3    H131670   5.490   5.631  12.543  1.8146  1.6556 -0.9317
 3393TIP3    H231671   5.347   5.680  12.556  0.4740 -2.8309  2.5083
 3394TIP3   OH231672   0.702   5.321  14.266 -0.3164 -0.4999 -0.4283
 3394TIP3    H131673   0.697   5.293  14.174 -0.0486  0.8083 -0.8456
 3394TIP3    H231674   0.626   5.379  14.277  0.7686  0.9396 -0.3885
 3395TIP3   OH231675   6.618   3.500   2.131  0.3872  0.1310  0.3464
 3395TIP3    H131676   6.658   3.426   2.176  0.5902  0.4277  0.6584
 3395TIP3    H231677   6.594   3.561   2.201  1.3455  0.9058  0.0121
 3396TIP3   OH231678   2.657   4.699  11.855 -0.0697  0.0440 -0.1144
 3396TIP3    H131679   2.646   4.651  11.937 -0.3463  0.2856 -0.0100
 3396TIP3    H231680   2.698   4.782  11.881 -0.6642  0.3519 -0.1505
 3397TIP3   OH231681   1.223   4.981   6.925 -0.7612  0.6765 -0.1906
 3397TIP3    H131682   1.237   5.040   7.000 -0.6415  1.9676 -1.2030
 3397TIP3    H231683   1.130   4.958   6.931 -0.2693 -0.9341  1.5593
 3398TIP3   OH231684   5.174   6.527   2.753  0.1189 -0.2134 -0.4990
 3398TIP3    H131685   5.186   6.456   2.691  1.4580 -0.5462  0.1216
 3398TIP3    H231686   5.238   6.592   2.729  0.3244 -0.1357  0.2302
 3399TIP3   OH231687   5.332   1.839  14.982 -0.5608  0.0684  0.2321
 3399TIP3    H131688   5.396   1.866  15.047  0.0445  1.6579 -0.9661
 3399TIP3    H231689   5.366   1.874  14.899 -2.9357  0.9344 -0.4270
 3400TIP3   OH231690   5.714   3.976  14.252  0.1403 -0.4058  0.3278
 3400TIP3    H131691   5.728   4.057  14.301 -0.8754  0.5016 -0.8499
 3400TIP3    H231692   5.623   3.952  14.271  0.2720 -0.9651  0.2481
 3401TIP3   OH231693   3.120   3.456  16.527 -0.0327 -0.1288  0.5422
 3401TIP3    H131694   3.103   3.390  16.460 -0.9230  1.3791 -0.7228
 3401TIP3    H231695   3.034   3.473  16.566  0.0564  0.8663  0.3176
 3402TIP3   OH231696   0.670   6.480   4.342 -0.2637  0.3800  0.1832
 3402TIP3    H131697   0.728   6.405   4.332  0.5267  0.9945  0.1274
 3402TIP3    H231698   0.585   6.442   4.364 -0.0257 -0.5630 -0.5083
 3403TIP3   OH231699   0.805   3.649   3.866  0.6209  0.4769  0.1294
 3403TIP3    H131700   0.831   3.633   3.957 -0.1684 -0.3916  0.2148
 3403TIP3    H231701   0.741   3.720   3.871  1.0245  0.8382  0.1881
 3404TIP3   OH231702   2.506   5.870  11.831  0.0113 -0.0989 -0.1921
 3404TIP3    H131703   2.529   5.952  11.875  0.1150 -0.4952  0.5023
 3404TIP3    H231704   2.495   5.894  11.739 -2.5321  1.1737  0.4300
 3405TIP3   OH231705   4.861   1.075  10.643 -0.4283 -0.1949 -0.2891
 3405TIP3    H131706   4.875   0.980  10.643 -0.8526 -0.2587 -0.8026
 3405TIP3    H231707   4.949   1.112  10.644 -0.2530 -0.5961 -0.8777
 3406TIP3   OH231708   3.676   4.917   2.168  0.2082  0.5112 -0.5726
 3406TIP3    H131709   3.653   4.826   2.188 -0.5308  0.1993 -2.7493
 3406TIP3    H231710   3.622   4.939   2.092  1.1053  2.4666 -0.6605
 3407TIP3   OH231711   4.748   2.873   5.319 -0.5331  0.2198 -0.0185
 3407TIP3    H131712   4.730   2.893   5.227  3.3729  1.9622 -0.5155
 3407TIP3    H231713   4.755   2.959   5.361  2.9796 -0.3501  0.7152
 3408TIP3   OH231714   2.236   3.633  16.682 -0.1414 -0.7815 -0.1392
 3408TIP3    H131715   2.183   3.572  16.631  1.1809 -1.2416 -1.0075
 3408TIP3    H231716   2.324   3.595  16.680  0.5758  0.8330 -0.1706
 3409TIP3   OH231717   6.043   2.476  11.560 -0.3343  0.4285  0.1892
 3409TIP3    H131718   5.997   2.493  11.477 -1.4156 -0.5482  0.5762
 3409TIP3    H231719   5.999   2.399  11.596  1.2445 -0.1771  0.8547
 3410TIP3   OH231720   1.531   1.701   1.312  0.2224  0.0116 -0.2379
 3410TIP3    H131721   1.583   1.725   1.389  1.3217  1.9256 -1.5280
 3410TIP3    H231722   1.444   1.735   1.331  0.3286 -0.0926  0.4405
 3411TIP3   OH231723   2.632   5.523   0.192  0.4688 -0.1437  0.0810
 3411TIP3    H131724   2.688   5.583   0.242  1.4332  0.2654 -1.4735
 3411TIP3    H231725   2.556   5.509   0.249  2.5957 -1.5335  2.6874
 3412TIP3   OH231726   0.788   6.119   2.496 -0.7752 -0.1800 -0.6235
 3412TIP3    H131727   0.705   6.158   2.525 -1.0756  0.2734 -2.0704
 3412TIP3    H231728   0.824   6.078   2.575 -1.4280  1.2965  0.4746
 3413TIP3   OH231729   3.947   1.185  16.820 -0.4140 -0.0238  0.2724
 3413TIP3    H131730   4.021   1.125  16.815 -1.2930 -1.1284  0.4810
 3413TIP3    H231731   3.870   1.131  16.806 -1.1436  1.2943 -1.0266
 3414TIP3   OH231732   4.182   5.441   1.209 -0.4174 -0.1627  0.5227
 3414TIP3    H131733   4.209   5.417   1.121 -1.2414 -1.4377  0.5981
 3414TIP3    H231734   4.161   5.534   1.204 -2.5705 -0.6817 -1.1853
 3415TIP3   OH231735   2.897   4.740   3.772  0.3280  0.3113 -0.3048
 3415TIP3    H131736   2.981   4.776   3.801  0.6919 -0.7779  0.0204
 3415TIP3    H231737   2.833   4.810   3.789  0.5766 -0.1503  2.8542
 3416TIP3   OH231738   0.057   4.629   1.512 -0.6152 -0.8201 -0.1849
 3416TIP3    H131739   0.051   4.538   1.540 -0.2930 -0.6075  0.5854
 3416TIP3    H231740   0.075   4.678   1.592  1.4860 -0.3351 -0.9124
 3417TIP3   OH231741   5.319   2.613   0.146  0.3064 -0.1772 -0.2036
 3417TIP3    H131742   5.300   2.623   0.240  0.5734 -2.6109  0.1300
 3417TIP3    H231743   5.394   2.554   0.143  0.4941  0.1290 -1.9633
 3418TIP3   OH231744   0.460   0.935   0.687  0.4526 -0.0024  0.1751
 3418TIP3    H131745   0.421   0.856   0.649 -1.4809 -0.6370  3.2574
 3418TIP3    H231746   0.402   1.006   0.660  1.6762  0.2905 -1.8206
 3419TIP3   OH231747   1.427   5.030  14.368  0.5729  0.1601  0.0199
 3419TIP3    H131748   1.409   5.095  14.300 -1.7659  0.4671  0.8716
 3419TIP3    H231749   1.522   5.024  14.372  0.7986  2.7125 -0.8482
 3420TIP3   OH231750   6.300   0.291   5.626  0.7581 -0.1766 -0.3702
 3420TIP3    H131751   6.296   0.380   5.592 -1.4427 -0.0838  0.0321
 3420TIP3    H231752   6.213   0.276   5.664  1.9620 -1.5654  1.9410
 3421TIP3   OH231753   6.232   5.074   2.907  0.5354  0.5363  0.0875
 3421TIP3    H131754   6.193   5.071   2.819 -1.0341  1.2699  0.7498
 3421TIP3    H231755   6.262   4.984   2.922 -2.0428 -0.3690  0.0679
 3422TIP3   OH231756   4.338   4.617  13.586  1.0294 -0.5041  0.2565
 3422TIP3    H131757   4.393   4.660  13.521  1.5084  0.3765  1.2240
 3422TIP3    H231758   4.275   4.566  13.535  0.6356  1.1202 -0.9228
 3423TIP3   OH231759   5.168   3.325  14.752  0.5220  0.1146  0.8018
 3423TIP3    H131760   5.112   3.321  14.674  1.8729  0.9648 -0.2373
 3423TIP3    H231761   5.174   3.419  14.771  0.6385 -0.0581  1.6100
 3424TIP3   OH231762   2.866   6.121   0.613 -0.1106 -0.0327  0.1497
 3424TIP3    H131763   2.921   6.069   0.671 -1.0680  0.5933  1.6516
 3424TIP3    H231764   2.797   6.155   0.669 -0.1421  1.9358 -1.0020
 3425TIP3   OH231765   4.014   6.143   0.631 -0.1104  0.0304 -0.1510
 3425TIP3    H131766   3.947   6.142   0.563  1.1589  0.4243 -1.4387
 3425TIP3    H231767   3.967   6.167   0.710 -1.3481  1.1344 -1.1913
 3426TIP3   OH231768   5.312   3.429   3.088 -0.0944 -0.3416 -0.5027
 3426TIP3    H131769   5.342   3.437   2.998  1.1417 -2.6154 -0.3264
 3426TIP3    H231770   5.230   3.379   3.081  0.2300 -0.9007 -0.3402
 3427TIP3   OH231771   4.608   1.906   2.691  0.6459 -0.0568 -0.0697
 3427TIP3    H131772   4.614   1.825   2.742 -1.8854 -0.7316 -0.7862
 3427TIP3    H231773   4.619   1.975   2.756  2.2638 -0.9221  0.6303
 3428TIP3   OH231774   3.266   6.123   6.285  0.3958 -0.8782 -0.1772
 3428TIP3    H131775   3.304   6.182   6.349 -1.4741 -0.7309  0.8183
 3428TIP3    H231776   3.225   6.054   6.337 -1.7642 -0.3716 -1.1446
 3429TIP3   OH231777   1.247   5.744   1.441 -0.7316 -0.1516  0.3057
 3429TIP3    H131778   1.206   5.677   1.387 -0.6016  0.0288 -0.0181
 3429TIP3    H231779   1.340   5.723   1.439 -0.5549  0.6815 -0.7056
 3430TIP3   OH231780   0.048   4.681  13.698 -0.5657 -0.9956 -0.0283
 3430TIP3    H131781   0.056   4.587  13.683  2.5967 -0.7453 -0.1745
 3430TIP3    H231782   0.061   4.692  13.792 -1.5779 -0.7306  0.0948
 3431TIP3   OH231783   2.310   2.057   1.180 -0.0213 -0.6449 -0.3123
 3431TIP3    H131784   2.326   2.126   1.115 -2.8871  0.4083 -0.0114
 3431TIP3    H231785   2.386   2.061   1.239  1.6673 -0.3057 -2.4709
 3432TIP3   OH231786   2.135   5.424   0.346  0.1623 -0.4879 -0.0621
 3432TIP3    H131787   2.068   5.356   0.335 -1.0330  0.3607  1.8066
 3432TIP3    H231788   2.097   5.502   0.305  0.4128 -0.2473  0.1642
 3433TIP3   OH231789   5.941   1.914   6.091 -0.5822  0.3368  0.5023
 3433TIP3    H131790   5.904   1.978   6.030  4.2324 -0.2855 -3.3876
 3433TIP3    H231791   6.006   1.963   6.141  1.1448 -0.8359 -0.5423
 3434TIP3   OH231792   2.060   1.061   5.957  0.4544  1.1422  0.4486
 3434TIP3    H131793   2.126   1.128   5.940  0.0109  1.1532 -1.3179
 3434TIP3    H231794   2.045   1.020   5.872  0.3738 -0.8918  1.4206
 3435TIP3   OH231795   0.996   3.748   0.149 -0.6862  0.0925 -0.3238
 3435TIP3    H131796   1.082   3.751   0.190 -0.1157 -0.8085 -1.4245
 3435TIP3    H231797   0.941   3.703   0.213 -0.8700  2.4589  1.2530
 3436TIP3   OH231798   1.232   1.323   2.447 -0.1040 -0.5684 -0.2296
 3436TIP3    H131799   1.140   1.349   2.452 -0.3201 -0.9442 -1.8091
 3436TIP3    H231800   1.229   1.230   2.426  0.6398 -0.5950 -0.2319
 3437TIP3   OH231801   3.957   1.463   5.072 -0.2707  0.0300  0.4970
 3437TIP3    H131802   3.928   1.548   5.039  1.0154 -0.4462 -2.0380
 3437TIP3    H231803   4.035   1.481   5.123 -0.1997  0.4203  0.2513
 3438TIP3   OH231804   0.512   2.339   3.021  0.7200 -0.1946  0.6883
 3438TIP3    H131805   0.602   2.348   2.990  1.5154 -0.5906  2.8225
 3438TIP3    H231806   0.480   2.429   3.028 -0.3889 -0.1039 -3.6609
 3439TIP3   OH231807   3.232   1.941  14.999  0.2181  0.1435  0.2717
 3439TIP3    H131808   3.226   1.865  14.941 -0.8320  0.3983  0.0400
 3439TIP3    H231809   3.202   1.909  15.084 -0.4500  0.3514  0.1171
 3440TIP3   OH231810   0.851   4.212  13.943 -0.1841  0.6071 -0.0850
 3440TIP3    H131811   0.797   4.141  13.977 -1.4245  1.4517 -0.2528
 3440TIP3    H231812   0.883   4.180  13.859  0.4299 -0.3043  0.4854
 3441TIP3   OH231813   6.408   1.814   0.109  0.5396 -0.0535  0.2157
 3441TIP3    H131814   6.461   1.871   0.054  2.5496 -1.7359  0.3666
 3441TIP3    H231815   6.450   1.816   0.195  0.3188 -1.3256  0.3668
 3442TIP3   OH231816   6.567   1.793  15.555  0.3719  0.4053 -0.3260
 3442TIP3    H131817   6.643   1.738  15.575  1.8613  2.2434 -0.8122
 3442TIP3    H231818   6.568   1.861  15.623 -1.4699 -0.1597  0.2938
 3443TIP3   OH231819   0.189   4.556   5.416 -0.1921 -0.3383 -0.0897
 3443TIP3    H131820   0.213   4.649   5.420 -1.0966 -0.1497  1.1903
 3443TIP3    H231821   0.185   4.537   5.322 -0.0654  0.9341 -0.3682
 3444TIP3   OH231822   2.839   4.785   1.898 -0.6296 -0.0663  0.0308
 3444TIP3    H131823   2.874   4.775   1.810 -0.8700  0.3873 -0.1193
 3444TIP3    H231824   2.770   4.851   1.889  0.9392  1.7431  0.9828
 3445TIP3   OH231825   0.069   0.312  16.058  0.6324  0.5444  0.3832
 3445TIP3    H131826   0.159   0.326  16.086  0.7802  0.3197  0.0244
 3445TIP3    H231827   0.025   0.278  16.136  0.8896  0.5335  0.5243
 3446TIP3   OH231828   4.798   2.040   4.577  0.3175  0.3320 -0.2978
 3446TIP3    H131829   4.733   1.970   4.587 -0.6482  1.3581  0.7077
 3446TIP3    H231830   4.851   2.013   4.502 -1.4996 -0.3438 -1.3634
 3447TIP3   OH231831   0.509   3.732   5.473  0.3394 -0.6526  0.3901
 3447TIP3    H131832   0.555   3.703   5.395  1.0064 -3.3114  1.7167
 3447TIP3    H231833   0.419   3.747   5.444  0.8947 -0.3014 -1.1612
 3448TIP3   OH231834   6.026   6.322   5.190  0.4528 -0.1045 -1.1111
 3448TIP3    H131835   5.933   6.345   5.183 -0.5215 -1.7836  3.9908
 3448TIP3    H231836   6.066   6.398   5.231  0.8257 -0.3697 -0.9843
 3449TIP3   OH231837   2.828   2.518  16.745 -0.1592 -0.0673 -0.2761
 3449TIP3    H131838   2.763   2.477  16.801 -0.7021 -1.0808 -1.6108
 3449TIP3    H231839   2.778   2.549  16.669  0.6736  0.5811 -0.5720
 3450TIP3   OH231840   1.107   4.287  16.547  0.3450 -0.2876  0.0768
 3450TIP3    H131841   1.090   4.330  16.630 -1.6555  1.6994 -1.2843
 3450TIP3    H231842   1.058   4.205  16.551 -0.3004  0.1210  0.6006
 3451TIP3   OH231843   5.631   0.812  16.124  0.1451 -0.2917  1.0588
 3451TIP3    H131844   5.608   0.819  16.216  0.2087  3.6597  0.8356
 3451TIP3    H231845   5.705   0.871  16.112  1.1074 -1.8613 -1.2447
 3452TIP3   OH231846   1.715   6.461   2.750  0.1659 -0.4893 -0.0489
 3452TIP3    H131847   1.746   6.523   2.684  0.4689 -1.8094 -1.1794
 3452TIP3    H231848   1.725   6.507   2.833  0.1055  1.0779 -0.8975
 3453TIP3   OH231849   4.057   0.810  13.652 -0.9575 -0.3196 -0.3544
 3453TIP3    H131850   3.977   0.800  13.599 -0.5897  0.4722 -1.0766
 3453TIP3    H231851   4.120   0.850  13.592 -0.1158 -0.6483  0.3089
 3454TIP3   OH231852   1.454   0.559   3.083 -0.5222 -0.4869 -0.2883
 3454TIP3    H131853   1.395   0.583   3.011 -1.2167  0.4960  0.5895
 3454TIP3    H231854   1.395   0.524   3.150  0.2987 -3.1959 -0.8926
 3455TIP3   OH231855   2.886   2.521  15.013 -0.0041  0.1715 -0.0818
 3455TIP3    H131856   2.922   2.477  15.090 -0.7109 -0.2698  0.0045
 3455TIP3    H231857   2.847   2.451  14.961  4.3483 -0.2098 -3.1206
 3456TIP3   OH231858   4.406   6.024  10.808  0.0384 -0.2440  0.1316
 3456TIP3    H131859   4.326   6.033  10.859  0.0201  1.7081 -0.1894
 3456TIP3    H231860   4.414   5.930  10.792 -1.8528 -0.5274  0.6863
 3457TIP3   OH231861   1.535   6.217   2.825 -0.1792 -0.4818  0.2731
 3457TIP3    H131862   1.472   6.283   2.855 -1.3061 -1.6687  0.5726
 3457TIP3    H231863   1.608   6.268   2.789 -1.3733  0.9258 -0.2254
 3458TIP3   OH231864   6.260   3.216   1.296 -0.2957 -0.4071  0.2267
 3458TIP3    H131865   6.171   3.182   1.308 -1.0210  1.8015  1.3918
 3458TIP3    H231866   6.259   3.255   1.209 -0.4889 -0.3291  0.2628
 3459TIP3   OH231867   3.439   5.921   5.745 -0.3428  0.2182 -0.4472
 3459TIP3    H131868   3.475   5.839   5.779  1.4641  0.8593 -0.7797
 3459TIP3    H231869   3.460   5.986   5.812 -0.0206  0.7934 -1.1061
 3460TIP3   OH231870   2.016   0.626   4.381  0.2037  0.6568 -0.5233
 3460TIP3    H131871   1.973   0.658   4.459  1.3702  0.9373  0.0164
 3460TIP3    H231872   2.108   0.616   4.406  0.4875  0.2036 -1.6855
 3461TIP3   OH231873   2.613   5.324  13.509 -0.0745  0.7392  0.4981
 3461TIP3    H131874   2.616   5.419  13.521  0.2761  0.7688  0.1949
 3461TIP3    H231875   2.679   5.291  13.570  0.1725  0.7313  0.2299
 3462TIP3   OH231876   0.970   5.092  12.334  0.1014 -0.5734 -0.1013
 3462TIP3    H131877   1.027   5.028  12.292  2.1243  1.5924 -0.7255
 3462TIP3    H231878   1.016   5.117  12.414 -0.0199  1.1235 -0.5560
 3463TIP3   OH231879   4.398   5.522  16.013  0.0427  0.4386 -0.2194
 3463TIP3    H131880   4.419   5.464  16.086 -0.7310 -0.3860 -0.6440
 3463TIP3    H231881   4.472   5.583  16.009  1.1390 -0.8575 -0.1348
 3464TIP3   OH231882   4.477   0.748  11.569  0.2454  0.2472  0.7325
 3464TIP3    H131883   4.438   0.739  11.482  2.2920  1.8885 -0.4199
 3464TIP3    H231884   4.430   0.685  11.624  0.6797 -2.7049 -2.1524
 3465TIP3   OH231885   6.611   0.574   0.376 -0.1579  0.0941 -0.6819
 3465TIP3    H131886   6.680   0.623   0.332 -0.3624  1.8221  0.8646
 3465TIP3    H231887   6.585   0.507   0.313  4.0731 -1.6984 -0.6366
 3466TIP3   OH231888   1.503   6.633  16.801  0.2862  0.7656  0.3613
 3466TIP3    H131889   1.486   6.689  16.725  0.2922  0.6418  0.2689
 3466TIP3    H231890   1.597   6.617  16.798  0.2331  0.4843  0.2023
 3467TIP3   OH231891   2.574   1.781  14.473 -0.1428 -0.0586 -0.1307
 3467TIP3    H131892   2.525   1.789  14.392 -1.4871  0.5320  0.7279
 3467TIP3    H231893   2.572   1.869  14.512  0.6438 -0.2888  0.4515
 3468TIP3   OH231894   1.956   4.031  11.073  0.3510 -0.2801  0.1706
 3468TIP3    H131895   1.909   4.114  11.069  0.3026 -0.2641  1.0444
 3468TIP3    H231896   1.923   3.982  10.997  0.9777  0.7997 -0.8152
 3469TIP3   OH231897   1.370   4.710   1.958 -0.0332 -0.4160 -0.3497
 3469TIP3    H131898   1.425   4.705   2.036 -0.9018 -4.0999  0.1337
 3469TIP3    H231899   1.418   4.766   1.898  0.3172  3.1406  3.0365
 3470TIP3   OH231900   3.414   4.927  14.580  0.2365 -0.1305  0.6077
 3470TIP3    H131901   3.338   4.969  14.621 -0.5122 -1.3050  0.4412
 3470TIP3    H231902   3.477   4.918  14.651 -0.0490  0.2128  0.9089
 3471TIP3   OH231903   5.203   2.136   1.633  0.0986 -0.3742 -0.3345
 3471TIP3    H131904   5.138   2.103   1.570 -0.5487  0.2110  0.0201
 3471TIP3    H231905   5.216   2.227   1.609  1.7128 -0.8042 -1.1577
 3472TIP3   OH231906   0.482   4.556   1.163 -0.5336  0.0645  0.1153
 3472TIP3    H131907   0.572   4.573   1.188  0.4394 -0.7746 -2.5631
 3472TIP3    H231908   0.429   4.598   1.230  1.8393  1.6170  1.0651
 3473TIP3   OH231909   1.095   0.202  15.941  0.2014 -0.1379 -0.7081
 3473TIP3    H131910   1.174   0.220  15.890 -0.6694  0.5714 -1.8113
 3473TIP3    H231911   1.087   0.276  16.000  2.7600 -2.2499  2.4906
 3474TIP3   OH231912   2.915   0.787  11.430 -0.2775 -0.3092  0.0595
 3474TIP3    H131913   2.932   0.701  11.468 -0.6580 -0.6615 -0.5687
 3474TIP3    H231914   2.957   0.848  11.491  3.1594 -1.1522 -1.3505
 3475TIP3   OH231915   5.585   6.389   5.504  0.1132  0.2604 -0.5436
 3475TIP3    H131916   5.650   6.457   5.515 -0.9552  1.0296  1.3868
 3475TIP3    H231917   5.630   6.319   5.456  2.1678  1.0063  0.2520
 3476TIP3   OH231918   2.700   1.692  14.872 -0.0708  0.7046  1.3498
 3476TIP3    H131919   2.626   1.646  14.832 -1.0634  1.2928  2.4566
 3476TIP3    H231920   2.688   1.677  14.966  1.2198  0.8302  1.5379
 3477TIP3   OH231921   4.364   1.418  11.654 -0.6816 -0.0328 -0.1386
 3477TIP3    H131922   4.457   1.442  11.652 -1.1238  1.6705 -2.6380
 3477TIP3    H231923   4.364   1.323  11.649  0.9453  0.0001 -1.2030
 3478TIP3   OH231924   3.465   4.961  13.521  0.0172 -0.6814 -0.1666
 3478TIP3    H131925   3.371   4.944  13.516 -0.2095  0.7428 -1.0788
 3478TIP3    H231926   3.495   4.959  13.430  0.7020 -0.2441  0.0446
 3479TIP3   OH231927   3.172   3.087   3.232 -0.6351 -0.2536  0.1815
 3479TIP3    H131928   3.214   3.007   3.265 -1.2877  0.3431  2.5484
 3479TIP3    H231929   3.245   3.144   3.207 -0.0771 -0.1014  2.1180
 3480TIP3   OH231930   4.342   3.980   2.933 -0.4326  0.7062 -0.5070
 3480TIP3    H131931   4.369   3.895   2.900 -1.0496  0.6673 -0.9235
 3480TIP3    H231932   4.246   3.974   2.937 -0.4968  1.4854 -0.8325
 3481TIP3   OH231933   3.206   6.008   0.639 -0.0286 -0.5430 -0.0497
 3481TIP3    H131934   3.156   5.961   0.706  0.0352 -0.1695  0.2581
 3481TIP3    H231935   3.149   6.009   0.563  0.1420 -1.5121 -0.1984
 3482TIP3   OH231936   4.735   3.055  13.956  0.0333 -0.0455  0.0059
 3482TIP3    H131937   4.665   3.030  13.896  0.3538 -0.8260 -0.0448
 3482TIP3    H231938   4.761   2.973  13.998  0.4398  0.3520  0.5352
 3483TIP3   OH231939   1.219   5.022   1.892 -0.1372  0.1431  0.4861
 3483TIP3    H131940   1.156   5.074   1.842  1.7293  1.3132 -0.7349
 3483TIP3    H231941   1.240   4.948   1.836  0.3733  0.3411  0.4031
 3484TIP3   OH231942   5.002   5.979  13.714  0.5112  0.5008 -0.4570
 3484TIP3    H131943   5.040   5.948  13.796 -3.2949  1.0438  1.6488
 3484TIP3    H231944   5.016   6.073  13.715  2.4894  0.2439 -1.5978
 3485TIP3   OH231945   1.682   1.025   0.001  0.2219 -0.5173  0.1562
 3485TIP3    H131946   1.652   1.096  -0.056  1.0887  0.7493  1.2439
 3485TIP3    H231947   1.611   1.014   0.064  1.8061  2.2545  2.5280
 3486TIP3   OH231948   3.789   3.756   1.848 -0.5881 -0.4730 -0.3563
 3486TIP3    H131949   3.699   3.734   1.873 -0.9790  0.4677 -0.9284
 3486TIP3    H231950   3.821   3.677   1.805 -2.0387  0.0859 -2.5464
 3487TIP3   OH231951   0.230   3.576   1.995 -0.1067  0.0630  0.1485
 3487TIP3    H131952   0.257   3.528   1.916 -0.7645 -2.2778  1.2960
 3487TIP3    H231953   0.155   3.629   1.967  0.4700  0.2397 -1.0874
 3488TIP3   OH231954   4.122   5.202   6.641 -0.1501 -0.6046  0.0418
 3488TIP3    H131955   4.217   5.215   6.649 -0.0741 -0.3108 -1.2453
 3488TIP3    H231956   4.087   5.291   6.632 -0.3686 -0.8158 -1.2520
 3489TIP3   OH231957   0.304   2.926  15.280  0.2527 -0.0825 -0.4038
 3489TIP3    H131958   0.326   3.013  15.315 -1.5619 -0.2248  1.1889
 3489TIP3    H231959   0.349   2.865  15.338 -0.0745 -0.2444 -0.3186
 3490TIP3   OH231960   2.008   4.275   2.579  0.2124  0.8019  0.5104
 3490TIP3    H131961   1.975   4.313   2.661  1.6807  0.3942  1.3165
 3490TIP3    H231962   2.095   4.243   2.601  0.2358 -0.2184 -0.9714
 3491TIP3   OH231963   3.965   2.589   2.952 -0.7034  0.2533  0.8104
 3491TIP3    H131964   4.052   2.574   2.915 -0.8007  1.2901  0.1346
 3491TIP3    H231965   3.912   2.516   2.920 -0.5959  0.7398 -0.4984
 3492TIP3   OH231966   2.710   6.086   0.831 -0.6067  0.9513  0.3397
 3492TIP3    H131967   2.759   6.094   0.913 -0.7493 -0.3393  0.5580
 3492TIP3    H231968   2.619   6.075   0.860 -0.5924 -0.0059  0.0187
 3493TIP3   OH231969   6.759   3.130  12.138 -0.0929 -0.2249 -0.1426
 3493TIP3    H131970   6.742   3.053  12.192 -1.3831 -0.7216 -1.2513
 3493TIP3    H231971   6.697   3.196  12.170 -0.9524 -0.5635 -1.1108
 3494TIP3   OH231972   0.719   6.455  11.228 -0.3934  0.1448 -0.3820
 3494TIP3    H131973   0.686   6.375  11.186 -0.2003 -0.4641  0.6069
 3494TIP3    H231974   0.811   6.458  11.204 -0.2780 -0.2144  0.0091
 3495TIP3   OH231975   2.793   4.596   5.108 -0.2096  0.1952 -0.4636
 3495TIP3    H131976   2.741   4.560   5.180  0.2297 -2.1709 -1.2809
 3495TIP3    H231977   2.875   4.547   5.111  1.4067  2.8575 -0.1357
 3496TIP3   OH231978   6.668   3.134  13.627 -0.0844 -0.2508  1.2438
 3496TIP3    H131979   6.654   3.043  13.653 -3.7805  0.4193  1.8687
 3496TIP3    H231980   6.651   3.185  13.707 -1.2275  1.1485  0.1431
 3497TIP3   OH231981   1.014   3.299   0.453 -0.0999  0.0789 -0.2540
 3497TIP3    H131982   1.056   3.304   0.367 -0.9231  0.9152 -0.6294
 3497TIP3    H231983   1.000   3.206   0.468  0.1645 -0.0832 -0.9831
 3498TIP3   OH231984   0.662   1.247   1.550  0.1509 -0.3738  0.1046
 3498TIP3    H131985   0.754   1.222   1.548  0.0427 -0.7006 -1.4468
 3498TIP3    H231986   0.650   1.302   1.473 -1.2614 -1.4949 -0.5032
 3499TIP3   OH231987   6.750   5.772  11.352  0.2249  0.2028 -0.1137
 3499TIP3    H131988   6.822   5.833  11.365  0.7774 -0.4364 -0.1506
 3499TIP3    H231989   6.791   5.692  11.319 -0.5059 -0.1383 -0.2229
 3500TIP3   OH231990   4.655   4.622   0.286 -0.4637  0.3985  0.5731
 3500TIP3    H131991   4.598   4.603   0.361 -1.4237 -0.6112 -0.3988
 3500TIP3    H231992   4.629   4.710   0.259 -0.2584  0.6832  1.3038
 3501TIP3   OH231993   3.113   0.936  10.967 -0.1095 -0.3858  0.4469
 3501TIP3    H131994   3.131   0.867  11.031  0.8674 -0.2742  0.2861
 3501TIP3    H231995   3.195   0.949  10.920 -0.4089  0.5657  0.1587
 3502TIP3   OH231996   3.900   5.478   1.570 -0.0861 -0.1928  0.2629
 3502TIP3    H131997   3.876   5.565   1.537  1.9671  0.8737  1.4703
 3502TIP3    H231998   3.834   5.419   1.532 -0.9445  1.7346 -1.3551
 3503TIP3   OH231999   0.991   2.106   0.924 -0.1351 -0.2424  0.4844
 3503TIP3    H132000   0.905   2.136   0.953  0.0694 -1.9799  3.1074
 3503TIP3    H232001   1.010   2.030   0.980  1.8299 -1.6785 -2.0194
 3504TIP3   OH232002   6.089   2.784   3.835 -0.6431 -0.2725 -0.1477
 3504TIP3    H132003   6.114   2.703   3.791  1.8203  0.6989 -0.6211
 3504TIP3    H232004   6.133   2.780   3.920 -1.2433  0.1846  0.1938
 3505TIP3   OH232005   2.651   1.176   2.164 -0.5827  0.2642  0.2454
 3505TIP3    H132006   2.697   1.121   2.100 -0.4192  1.0220 -0.2999
 3505TIP3    H232007   2.564   1.137   2.171 -0.0387 -0.8519  0.8636
 3506TIP3   OH232008   0.854   6.310  15.150 -0.1029  0.4946  0.6733
 3506TIP3    H132009   0.774   6.260  15.132 -0.1654  0.4647  1.0221
 3506TIP3    H232010   0.899   6.259  15.218  1.4511 -0.8219 -1.2945
 3507TIP3   OH232011   2.417   3.410   1.709 -0.0994  0.4630  0.2210
 3507TIP3    H132012   2.366   3.330   1.724 -0.5050  0.3536 -1.5957
 3507TIP3    H232013   2.426   3.450   1.795 -2.8831  0.2618  0.6444
 3508TIP3   OH232014   3.383   3.226   3.540  0.0754 -0.6324  0.3612
 3508TIP3    H132015   3.401   3.241   3.633  0.3145  0.7640  0.0905
 3508TIP3    H232016   3.346   3.309   3.509  0.7864 -0.8131 -0.9904
 3509TIP3   OH232017   3.740   6.409   0.058  0.3146 -0.2439 -0.1446
 3509TIP3    H132018   3.806   6.433  -0.007  1.5950  0.9246  1.5324
 3509TIP3    H232019   3.784   6.421   0.143 -1.0348 -2.5647  0.9233
 3510TIP3   OH232020   1.269   6.685  15.760 -0.0029  0.6479  0.5028
 3510TIP3    H132021   1.222   6.743  15.821 -1.7962 -0.7092  0.4423
 3510TIP3    H232022   1.233   6.598  15.777  0.9391 -0.0706 -1.0876
 3511TIP3   OH232023   5.400   3.709   1.099 -0.1246 -0.1148 -0.2953
 3511TIP3    H132024   5.333   3.653   1.061 -1.7156  1.1384  0.5921
 3511TIP3    H232025   5.463   3.722   1.029 -1.2572 -0.5985 -1.4204
 3512TIP3   OH232026   4.287   5.110   3.302  0.1488  0.6259 -0.1398
 3512TIP3    H132027   4.251   5.156   3.378 -2.3954  2.0745 -2.1403
 3512TIP3    H232028   4.237   5.029   3.297 -0.9353  1.3485 -1.2746
 3513TIP3   OH232029   2.905   1.423  15.673 -0.0535  0.2301 -0.2749
 3513TIP3    H132030   2.964   1.495  15.697 -1.2840  0.9816  0.5700
 3513TIP3    H232031   2.818   1.461  15.680 -0.7198 -1.3575  0.1772
 3514TIP3   OH232032   4.531   2.535   2.939 -0.2005  0.7546 -0.0317
 3514TIP3    H132033   4.566   2.490   2.862 -0.6806  2.3166 -1.1989
 3514TIP3    H232034   4.530   2.469   3.008 -0.8687 -0.9968 -1.6933
 3515TIP3   OH232035   4.866   0.278   4.747  0.1688  0.7002  0.7475
 3515TIP3    H132036   4.938   0.240   4.696 -0.3632  0.1453  0.4088
 3515TIP3    H232037   4.891   0.264   4.838 -0.8941 -2.1135  0.6424
 3516TIP3   OH232038   5.426   4.480   0.335  0.2036 -0.0069 -0.3410
 3516TIP3    H132039   5.480   4.508   0.409  2.1038  0.5173 -1.9058
 3516TIP3    H232040   5.365   4.552   0.321  0.6116  0.3898 -0.0574
 3517TIP3   OH232041   3.836   4.123   1.068  0.1797 -0.5307  0.3860
 3517TIP3    H132042   3.800   4.062   1.132 -1.5663 -0.3973 -0.4554
 3517TIP3    H232043   3.829   4.209   1.109  1.5953 -0.7348  1.1067
 3518TIP3   OH232044   3.372   1.643   1.337 -0.1171 -0.1147 -1.0564
 3518TIP3    H132045   3.347   1.563   1.384  0.2045  1.6481  2.2663
 3518TIP3    H232046   3.454   1.670   1.377 -2.3914  4.2210  1.0450
 3519TIP3   OH232047   2.100   4.946   6.545  0.4674  0.3866  0.4890
 3519TIP3    H132048   2.036   4.949   6.617 -0.1206 -2.1704  0.1315
 3519TIP3    H232049   2.182   4.920   6.587  0.5397  0.6113  0.4879
 3520TIP3   OH232050   6.603   0.346  12.288  0.2525 -0.2243 -0.3140
 3520TIP3    H132051   6.633   0.333  12.379  0.5076 -1.7571 -0.6042
 3520TIP3    H232052   6.575   0.259  12.260  0.0373  0.2806 -1.6615
 3521TIP3   OH232053   1.399   4.670   5.283  0.1099 -0.2326 -0.3482
 3521TIP3    H132054   1.479   4.619   5.297 -0.6949 -1.1141  1.2371
 3521TIP3    H232055   1.407   4.743   5.345  0.0109  0.0649 -0.6890
 3522TIP3   OH232056   2.356   2.193  15.212 -0.2341  0.2408  0.5738
 3522TIP3    H132057   2.369   2.265  15.151 -1.0188 -1.0166 -1.0944
 3522TIP3    H232058   2.282   2.220  15.267 -2.4369 -0.5029 -1.9437
 3523TIP3   OH232059   1.412   3.732  16.302  0.3669  0.9135 -1.0628
 3523TIP3    H132060   1.501   3.766  16.307  0.5076  0.4020 -0.0977
 3523TIP3    H232061   1.359   3.809  16.279  0.6925  1.7739  1.0104
 3524TIP3   OH232062   1.140   0.350   5.335  0.6008  0.4809 -0.0058
 3524TIP3    H132063   1.234   0.364   5.342  0.6524 -0.2880  1.1154
 3524TIP3    H232064   1.106   0.430   5.295  1.3304  2.2113  2.6340
 3525TIP3   OH232065   2.323   4.737   2.823  0.5309  0.0137  0.0723
 3525TIP3    H132066   2.369   4.656   2.800  0.5784 -0.0575  0.4119
 3525TIP3    H232067   2.392   4.800   2.840  0.5189 -0.2789  1.2451
 3526TIP3   OH232068   2.066   6.467   2.247  0.2007 -0.1750 -0.1133
 3526TIP3    H132069   2.016   6.387   2.230  0.6161 -0.4278 -0.1501
 3526TIP3    H232070   1.999   6.534   2.264 -0.1762 -0.3416 -0.9001
 3527TIP3   OH232071   6.608   3.509  14.057  0.0885  0.2868 -0.2525
 3527TIP3    H132072   6.581   3.419  14.037 -1.1023  0.6414 -0.3260
 3527TIP3    H232073   6.609   3.514  14.152  0.4990  0.0957 -0.2484
 3528TIP3   OH232074   1.134   4.581  12.229 -0.0192  0.2990  0.5040
 3528TIP3    H132075   1.166   4.502  12.185  1.2406  1.8125 -1.3716
 3528TIP3    H232076   1.116   4.642  12.158 -1.4723  1.5393  1.9114
 3529TIP3   OH232077   6.125   6.345  11.264  0.8254 -0.2338 -0.0886
 3529TIP3    H132078   6.100   6.348  11.172 -0.6916 -0.2937  0.3084
 3529TIP3    H232079   6.207   6.394  11.269  0.4616  0.4967 -1.3168
 3530TIP3   OH232080   3.337   2.963  15.689 -0.0299 -0.1635  0.2381
 3530TIP3    H132081   3.403   3.029  15.668 -0.6419  1.4746  3.1091
 3530TIP3    H232082   3.344   2.898  15.620  3.1949  1.0074 -0.6076
 3531TIP3   OH232083   0.413   3.106   3.859  0.5131 -0.0082 -0.2999
 3531TIP3    H132084   0.484   3.138   3.804  1.0954  0.4108  0.6638
 3531TIP3    H232085   0.338   3.095   3.800  1.5162 -0.9248 -1.4228
 3532TIP3   OH232086   5.669   2.517  13.221 -0.5141  0.0057 -0.2023
 3532TIP3    H132087   5.688   2.444  13.279 -0.7958  0.4937  0.5178
 3532TIP3    H232088   5.584   2.551  13.251 -0.5663  0.3961 -0.7662
 3533TIP3   OH232089   6.011   2.050   2.580 -0.5813 -0.2491 -0.1401
 3533TIP3    H132090   6.007   1.979   2.644 -0.0556 -0.5490 -0.4364
 3533TIP3    H232091   6.069   2.115   2.620 -1.6017  0.3311  0.4343
 3534TIP3   OH232092   0.215   3.817   0.245  0.3464 -0.0053 -0.4379
 3534TIP3    H132093   0.252   3.905   0.252  0.3878 -0.0038 -0.6569
 3534TIP3    H232094   0.123   3.832   0.222 -0.4213  0.0472  2.5273
 3535TIP3   OH232095   3.474   5.546  11.844 -0.2187 -0.0433  0.0724
 3535TIP3    H132096   3.480   5.484  11.917 -0.2202 -0.4109 -0.2398
 3535TIP3    H232097   3.473   5.491  11.766  1.4429  0.3919 -0.2934
 3536TIP3   OH232098   5.849   1.541  14.025  0.4057  0.6361 -0.4081
 3536TIP3    H132099   5.820   1.591  13.949  0.2244  0.5499 -0.3950
 3536TIP3    H232100   5.784   1.560  14.093  0.6773  0.8734 -0.2106
 3537TIP3   OH232101   1.202   0.354  12.493  0.1823 -0.3243  0.3398
 3537TIP3    H132102   1.179   0.324  12.581 -1.0657  1.5252  0.6751
 3537TIP3    H232103   1.135   0.419  12.472  1.0503 -0.0287 -1.5793
 3538TIP3   OH232104   4.322   3.368   1.518  1.3330 -0.1339  0.9221
 3538TIP3    H132105   4.280   3.395   1.436  0.9747  0.3725  1.2697
 3538TIP3    H232106   4.378   3.294   1.493 -1.5008 -2.3542  0.8268
 3539TIP3   OH232107   3.999   4.825   4.475  0.2818 -0.6232 -0.0963
 3539TIP3    H132108   3.931   4.762   4.498 -0.1569  0.1189  0.6804
 3539TIP3    H232109   3.987   4.842   4.382 -1.0842  0.0747  0.1931
 3540TIP3   OH232110   2.864   5.893  16.202  0.1736  0.8118  0.0763
 3540TIP3    H132111   2.950   5.863  16.230 -0.7761 -1.3450  0.8150
 3540TIP3    H232112   2.829   5.940  16.278 -0.2930 -0.4941  0.6830
 3541TIP3   OH232113   0.642   2.084  10.967  0.4719  0.1064 -0.0380
 3541TIP3    H132114   0.652   2.118  11.056  2.4618  0.1917 -0.2705
 3541TIP3    H232115   0.605   1.997  10.979 -2.6555  1.4647  0.6664
 3542TIP3   OH232116   5.941   5.382  16.738  0.2411 -0.3869 -0.8522
 3542TIP3    H132117   5.939   5.352  16.829  4.3111  0.3136 -0.4268
 3542TIP3    H232118   5.901   5.468  16.740  0.3643 -0.3528  0.2772
 3543TIP3   OH232119   5.756   1.659  14.527  0.7303  0.0400 -0.3860
 3543TIP3    H132120   5.807   1.693  14.600  2.3272  1.0638 -1.9240
 3543TIP3    H232121   5.766   1.564  14.532  0.5803  0.0912  0.8859
 3544TIP3   OH232122   4.376   6.283  10.329 -0.0171 -0.4838 -0.6586
 3544TIP3    H132123   4.400   6.373  10.351  1.2484 -0.5765 -1.5689
 3544TIP3    H232124   4.398   6.232  10.407 -1.5253  0.1104  0.1639
 3545TIP3   OH232125   2.798   0.093  11.346 -0.0317  0.1559 -0.3972
 3545TIP3    H132126   2.738   0.152  11.392 -0.5974 -0.1758 -0.7063
 3545TIP3    H232127   2.839   0.148  11.279  0.0025  0.3820 -0.1903
 3546TIP3   OH232128   6.488   4.966   5.902 -0.8360 -0.0730  0.0609
 3546TIP3    H132129   6.396   4.951   5.878 -0.2966 -0.1346 -2.0844
 3546TIP3    H232130   6.535   4.893   5.861  0.1806  0.0158  1.0757
 3547TIP3   OH232131   2.687   2.171  11.650 -0.3841 -0.5722 -0.0574
 3547TIP3    H132132   2.727   2.150  11.735  0.7619 -2.0220 -0.9312
 3547TIP3    H232133   2.593   2.157  11.664 -0.2410 -0.4682  1.0703
 3548TIP3   OH232134   0.177   0.770   0.950 -0.4432 -0.5571 -0.4513
 3548TIP3    H132135   0.262   0.768   0.994 -0.1150  0.1963 -1.0307
 3548TIP3    H232136   0.199   0.770   0.857 -1.0895 -0.6614 -0.6013
 3549TIP3   OH232137   4.272   2.830  11.613  0.2566  0.0101  0.1138
 3549TIP3    H132138   4.352   2.864  11.575 -0.0487  0.5803 -0.0268
 3549TIP3    H232139   4.223   2.908  11.640 -0.2151 -0.3346  0.2671
 3550TIP3   OH232140   2.131   3.015  11.927 -0.0638 -0.4152 -0.5796
 3550TIP3    H132141   2.082   3.029  12.008 -0.5007 -0.3946 -0.8489
 3550TIP3    H232142   2.222   3.010  11.955 -0.3030 -1.4911  0.0493
 3551TIP3   OH232143   2.056   1.443   1.678  0.2452  0.7074 -0.3038
 3551TIP3    H132144   2.026   1.453   1.768 -1.1298 -1.6950 -0.4627
 3551TIP3    H232145   1.987   1.483   1.625 -0.2146 -0.2285 -0.4151
 3552TIP3   OH232146   5.810   4.929  12.203  0.2538 -0.5114 -0.0387
 3552TIP3    H132147   5.795   4.856  12.144  0.3473  0.0468 -0.7663
 3552TIP3    H232148   5.905   4.936  12.209  0.2434 -1.0243  0.7583
 3553TIP3   OH232149   4.319   3.069  17.202 -0.5751 -0.0389 -0.3361
 3553TIP3    H132150   4.327   3.002  17.133  2.7978  0.2483 -0.3117
 3553TIP3    H232151   4.238   3.116  17.180 -0.4402 -1.0009 -3.1559
 3554TIP3   OH232152   3.332   2.585   2.342  0.5576  0.0294  0.1012
 3554TIP3    H132153   3.272   2.515   2.367 -0.6988  1.2441  0.6039
 3554TIP3    H232154   3.420   2.547   2.351 -0.0636 -1.0895  1.5921
 3555TIP3   OH232155   3.731   3.190  15.364  0.4448 -0.1969  0.3283
 3555TIP3    H132156   3.812   3.192  15.415  0.8093 -0.6017 -0.2314
 3555TIP3    H232157   3.743   3.117  15.303 -0.0346  0.2166 -0.2673
 3556TIP3   OH232158   0.681   6.061   4.536 -0.0560 -0.3484  0.1767
 3556TIP3    H132159   0.745   6.124   4.503 -1.1519  0.9798  0.5761
 3556TIP3    H232160   0.603   6.077   4.484 -1.4779  1.0600  2.6888
 3557TIP3   OH232161   0.888   3.819   6.369  0.3503  0.2125 -0.6165
 3557TIP3    H132162   0.872   3.728   6.344  1.3967 -0.0458 -0.4085
 3557TIP3    H232163   0.960   3.813   6.432 -0.6543  1.0554  0.6182
 3558TIP3   OH232164   6.680   5.622  12.533  0.3218  0.0797  0.0052
 3558TIP3    H132165   6.654   5.687  12.469 -0.4584 -1.0114 -0.8095
 3558TIP3    H232166   6.598   5.579  12.559  0.8669 -0.8868  0.1707
 3559TIP3   OH232167   3.210   1.853  13.941  0.1792  0.2025  1.1051
 3559TIP3    H132168   3.135   1.827  13.887  1.3656 -1.4200  0.1991
 3559TIP3    H232169   3.283   1.854  13.880  1.2327  0.0044  2.3536
 3560TIP3   OH232170   2.227   0.285  16.551  0.4282  0.0715 -0.3097
 3560TIP3    H132171   2.318   0.265  16.530  1.1211  0.7070  1.9273
 3560TIP3    H232172   2.226   0.381  16.558 -0.2889  0.0205  0.2201
 3561TIP3   OH232173   0.694   1.881   1.634  0.3229  0.2411 -0.0863
 3561TIP3    H132174   0.618   1.888   1.693  0.0847 -2.4388 -0.0374
 3561TIP3    H232175   0.749   1.956   1.658 -1.8058  1.6425  0.5869
 3562TIP3   OH232176   0.950   0.641  15.755 -0.2324 -0.0639 -0.0437
 3562TIP3    H132177   0.923   0.731  15.736  0.7705  0.4030  0.7676
 3562TIP3    H232178   1.005   0.617  15.680 -0.8391 -0.1589 -0.4676
 3563TIP3   OH232179   1.829   4.190   3.077 -0.1484 -0.2142  0.6027
 3563TIP3    H132180   1.858   4.238   2.999  1.4256 -0.9789  0.7113
 3563TIP3    H232181   1.757   4.136   3.046 -1.4569  1.6398  0.3144
 3564TIP3   OH232182   3.575   4.360  11.368 -0.4782 -0.1375  0.3781
 3564TIP3    H132183   3.631   4.417  11.421  0.4219  0.0389 -0.7551
 3564TIP3    H232184   3.594   4.272  11.399  1.0828 -0.1529 -0.6001
 3565TIP3   OH232185   3.368   3.207  13.407 -0.8934  0.3700 -0.3953
 3565TIP3    H132186   3.323   3.273  13.354  0.0220  0.9254 -0.4945
 3565TIP3    H232187   3.386   3.136  13.345 -0.3959  0.7410 -0.6756
 3566TIP3   OH232188   3.035   1.777   1.783  0.0569  0.4547 -0.3900
 3566TIP3    H132189   2.998   1.716   1.719 -0.3405  0.0825  0.1885
 3566TIP3    H232190   3.123   1.795   1.751  0.4473 -1.0091 -0.1706
 3567TIP3   OH232191   1.978   3.202  14.701  0.1113  0.1031  0.0965
 3567TIP3    H132192   1.920   3.183  14.775 -0.3560  2.1090  0.2782
 3567TIP3    H232193   2.039   3.129  14.699 -0.9338 -0.8249  1.4127
 3568TIP3   OH232194   1.683   2.185   1.334 -0.2816  0.3077 -0.6289
 3568TIP3    H132195   1.720   2.262   1.377 -2.8643  0.5266  1.2612
 3568TIP3    H232196   1.648   2.219   1.252  3.0114  0.2071 -2.1743
 3569TIP3   OH232197   0.028   1.406   3.964 -0.2613 -0.5245 -0.2398
 3569TIP3    H132198   0.043   1.367   4.050 -2.7502  1.1616  0.9982
 3569TIP3    H232199   0.113   1.398   3.920  0.2164 -4.2687  1.1513
 3570TIP3   OH232200   1.512   4.947  15.169 -0.0984  0.3864 -0.4865
 3570TIP3    H132201   1.485   4.906  15.251  1.7091 -0.7574 -0.4422
 3570TIP3    H232202   1.536   4.874  15.112  1.5788  1.2784 -0.9790
 3571TIP3   OH232203   3.410   5.235   3.886  0.0478 -0.0529  0.2764
 3571TIP3    H132204   3.482   5.272   3.937  0.7609 -0.8059 -0.1779
 3571TIP3    H232205   3.453   5.197   3.809 -0.7270 -1.4660  0.5366
 3572TIP3   OH232206   6.224   0.738   0.319  0.1384 -0.2909  0.5998
 3572TIP3    H132207   6.317   0.760   0.323  0.0668 -0.1217  1.3377
 3572TIP3    H232208   6.219   0.648   0.350 -0.0669  0.0422  1.5329
 3573TIP3   OH232209   5.189   2.071  14.216  0.5063 -0.9416 -0.0396
 3573TIP3    H132210   5.191   2.004  14.284  2.7549 -1.0871 -0.2181
 3573TIP3    H232211   5.226   2.028  14.139  1.1636  0.2592 -0.3982
 3574TIP3   OH232212   3.848   1.574   5.351  0.4139  0.5119  0.2267
 3574TIP3    H132213   3.875   1.665   5.342  1.0501  0.3851  0.7856
 3574TIP3    H232214   3.928   1.524   5.332 -0.0999  0.0478 -0.7591
 3575TIP3   OH232215   1.394   5.500   4.039 -0.1737  0.4516 -0.4681
 3575TIP3    H132216   1.473   5.529   4.086  0.0181  1.5222 -1.4205
 3575TIP3    H232217   1.427   5.448   3.966 -0.3439  0.8035 -0.7999
 3576TIP3   OH232218   1.017   1.085   5.817 -0.5040  0.2507 -0.6052
 3576TIP3    H132219   0.975   1.154   5.766  0.2693 -0.3253 -2.0492
 3576TIP3    H232220   0.965   1.007   5.799 -0.4929  0.1444 -0.1689
 3577TIP3   OH232221   3.351   5.235  12.939 -0.2217 -0.2249  0.2518
 3577TIP3    H132222   3.299   5.158  12.916  2.3120 -1.8898 -0.0802
 3577TIP3    H232223   3.407   5.205  13.010 -0.4758  1.8657  1.3772
 3578TIP3   OH232224   4.175   1.019   0.661  0.4450  0.3842  0.0657
 3578TIP3    H132225   4.184   1.028   0.756  0.5587 -0.8009  0.1844
 3578TIP3    H232226   4.088   1.054   0.642 -0.0382 -0.3926  0.7697
 3579TIP3   OH232227   5.597   3.295   0.362 -0.0960  0.2514 -0.3471
 3579TIP3    H132228   5.587   3.372   0.306 -0.7164  0.4571  0.0405
 3579TIP3    H232229   5.676   3.313   0.414  0.6587 -0.0736 -1.3523
 3580TIP3   OH232230   6.236   0.764   0.638 -0.3563  0.6719  0.0232
 3580TIP3    H132231   6.169   0.822   0.601 -0.3606 -0.0234 -1.0563
 3580TIP3    H232232   6.308   0.767   0.576 -0.4097 -0.5895 -0.1069
 3581TIP3   OH232233   3.228   4.671   5.706  0.1141 -0.0041 -0.3933
 3581TIP3    H132234   3.305   4.628   5.741 -0.2506  0.2662  0.7522
 3581TIP3    H232235   3.212   4.628   5.622  1.1500 -0.4622 -0.3583
 3582TIP3   OH232236   0.604   1.425  12.107 -0.1113  0.3669  0.2963
 3582TIP3    H132237   0.598   1.489  12.036 -2.3243 -0.9620 -0.7443
 3582TIP3    H232238   0.640   1.346  12.066 -0.7646 -0.2015  0.8070
 3583TIP3   OH232239   0.641   1.370  15.089 -0.1042 -0.2171  0.0509
 3583TIP3    H132240   0.566   1.386  15.148 -2.5557 -0.7059 -2.8164
 3583TIP3    H232241   0.667   1.456  15.059 -0.0138 -0.0983  0.4686
 3584TIP3   OH232242   2.058   4.771  12.806 -0.2130 -0.5492 -0.0274
 3584TIP3    H132243   1.977   4.819  12.792 -0.3152 -0.5816  0.4764
 3584TIP3    H232244   2.071   4.771  12.900  1.0037  0.4983 -0.1711
 3585TIP3   OH232245   4.164   0.682   2.683  0.0470  0.0244  0.0508
 3585TIP3    H132246   4.137   0.757   2.630 -0.5621  1.1880  1.9690
 3585TIP3    H232247   4.258   0.673   2.666 -0.5869 -1.3419 -3.2820
 3586TIP3   OH232248   4.224   2.175   1.184 -0.0374  0.8217  0.2538
 3586TIP3    H132249   4.215   2.135   1.097  0.0519 -0.3597  0.7747
 3586TIP3    H232250   4.187   2.110   1.243  1.2966  0.9521  1.2536
 3587TIP3   OH232251   5.091   0.722   1.233 -0.2670 -0.2202 -0.1399
 3587TIP3    H132252   5.044   0.736   1.150  1.0603  0.3564 -0.7981
 3587TIP3    H232253   5.149   0.798   1.241  0.9265 -1.1799  0.4236
 3588TIP3   OH232254   6.225   2.719  12.089 -0.1712  0.3457 -0.0290
 3588TIP3    H132255   6.256   2.749  12.003 -0.5097  0.0898 -0.2457
 3588TIP3    H232256   6.302   2.683  12.132  0.0014  0.4764 -0.2318
 3589TIP3   OH232257   3.260   5.696  15.758  0.0731  0.2031 -0.6698
 3589TIP3    H132258   3.351   5.717  15.739  0.7797 -2.7171 -0.8632
 3589TIP3    H232259   3.241   5.738  15.841  1.0180  2.3421 -1.5114
 3590TIP3   OH232260   4.246   4.522   4.115 -0.8614  0.3247 -0.1991
 3590TIP3    H132261   4.208   4.542   4.030  2.2601  1.5919 -1.3981
 3590TIP3    H232262   4.283   4.434   4.105  0.1034  0.7483 -0.3858
 3591TIP3   OH232263   4.660   6.398  16.322 -0.2446  0.2606 -0.0300
 3591TIP3    H132264   4.688   6.489  16.322 -1.0504  0.5091  0.5509
 3591TIP3    H232265   4.575   6.398  16.365 -0.8406 -0.5880 -1.1563
 3592TIP3   OH232266   3.879   4.364  15.657 -0.5004 -0.6290  0.1991
 3592TIP3    H132267   3.912   4.275  15.651 -0.2722 -0.5462  0.2088
 3592TIP3    H232268   3.798   4.357  15.708  0.6845 -0.5470  2.1411
 3593TIP3   OH232269   5.956   3.126   1.552  0.3149  0.4457 -0.0010
 3593TIP3    H132270   5.980   3.034   1.556  2.9419  1.0437 -1.2904
 3593TIP3    H232271   5.954   3.147   1.459 -1.6525  1.3906  0.2036
 3594TIP3   OH232272   3.311   0.138  15.673 -0.0852  0.1900  0.1096
 3594TIP3    H132273   3.385   0.196  15.692 -0.7578  0.1523  3.1154
 3594TIP3    H232274   3.348   0.050  15.671  0.3440  0.3846 -0.9220
 3595TIP3   OH232275   4.118   3.063   1.117  0.6893  0.4886 -0.1332
 3595TIP3    H132276   4.194   3.089   1.066 -0.2311  1.4290 -1.0659
 3595TIP3    H232277   4.043   3.083   1.061 -0.1971 -1.6418  0.2444
 3596TIP3   OH232278   5.055   1.934  15.694 -0.1363  0.4491  0.1062
 3596TIP3    H132279   5.065   1.883  15.613  1.4708 -0.6601  0.9871
 3596TIP3    H232280   5.015   1.873  15.756 -0.8800  1.1418  0.3116
 3597TIP3   OH232281   5.259   1.613  12.497  0.0604 -0.3811  0.2954
 3597TIP3    H132282   5.246   1.706  12.516 -2.6677 -0.2628 -1.9687
 3597TIP3    H232283   5.235   1.568  12.578  1.5186  0.8339  1.4480
 3598TIP3   OH232284   3.825   3.812  12.767 -0.0447 -0.4373  0.0319
 3598TIP3    H132285   3.910   3.853  12.750 -1.0415  1.3995 -0.6342
 3598TIP3    H232286   3.845   3.740  12.827  1.7858  0.8547  1.0205
 3599TIP3   OH232287   6.286   1.384  12.027  0.0978 -0.3276 -0.3690
 3599TIP3    H132288   6.289   1.434  12.109 -1.7298 -2.2981  0.9655
 3599TIP3    H232289   6.241   1.441  11.966 -0.2987  0.4081  0.5885
 3600TIP3   OH232290   5.547   1.142  10.653 -0.4620  0.6243  0.3763
 3600TIP3    H132291   5.533   1.106  10.741 -0.1608  2.0934  1.0377
 3600TIP3    H232292   5.459   1.148  10.615 -0.7105  1.0233  1.0051
 3601TIP3   OH232293   3.865   0.006  14.117 -0.6137 -0.0021  0.4800
 3601TIP3    H132294   3.794   0.028  14.057 -0.9397 -0.5637  0.6504
 3601TIP3    H232295   3.910  -0.067  14.074  0.8338  1.3790 -0.3812
 3602TIP3   OH232296   3.991   6.593   2.658 -0.4575 -0.4877 -0.5145
 3602TIP3    H132297   3.914   6.552   2.620 -1.0595 -0.1631  0.3368
 3602TIP3    H232298   3.998   6.557   2.746  0.2935 -0.4208 -0.5356
 3603TIP3   OH232299   6.358   1.660   3.820  0.3888 -0.6122  0.5413
 3603TIP3    H132300   6.393   1.697   3.739 -1.0848 -2.6602 -1.0958
 3603TIP3    H232301   6.435   1.636   3.871  1.3417  0.9217 -0.1373
 3604TIP3   OH232302   2.789   6.389  11.273 -0.4271  0.5739  0.6963
 3604TIP3    H132303   2.698   6.401  11.248 -0.3923 -0.3863  0.1034
 3604TIP3    H232304   2.823   6.322  11.213 -0.2335 -1.4460  2.9650
 3605TIP3   OH232305   2.880   4.827  16.813 -0.0991 -0.0228 -0.4498
 3605TIP3    H132306   2.836   4.863  16.890 -0.2260 -1.1419  0.0088
 3605TIP3    H232307   2.837   4.870  16.739 -1.1439 -0.2039  0.0437
 3606TIP3   OH232308   0.734   1.497  14.297  0.0596 -0.8284 -0.1047
 3606TIP3    H132309   0.684   1.432  14.247 -0.8128 -1.8913  2.1112
 3606TIP3    H232310   0.823   1.489  14.264 -0.4890 -1.5204 -1.4835
 3607TIP3   OH232311   2.285   1.395  16.671  0.8306  0.2089  0.4305
 3607TIP3    H132312   2.282   1.299  16.672 -0.9352  0.2589  1.5999
 3607TIP3    H232313   2.219   1.420  16.606 -0.1536  0.6757  1.6074
 3608TIP3   OH232314   3.330   3.503  13.490  0.8697  0.5346 -0.1484
 3608TIP3    H132315   3.241   3.511  13.455  0.3739 -0.3386  0.8530
 3608TIP3    H232316   3.362   3.592  13.495  0.7357  0.7222 -2.2417
 3609TIP3   OH232317   1.512   2.720   3.200 -0.2660  0.0415  0.5067
 3609TIP3    H132318   1.594   2.769   3.191 -0.1882 -0.7161 -3.4720
 3609TIP3    H232319   1.525   2.667   3.278  1.6965  2.4147  1.8826
 3610TIP3   OH232320   1.436   0.073  12.020 -0.2848  0.2543  0.1608
 3610TIP3    H132321   1.410   0.015  12.093 -0.7791 -0.3079 -0.4527
 3610TIP3    H232322   1.524   0.101  12.042 -1.0779  1.5051  1.8727
 3611TIP3   OH232323   5.085   4.345   5.338  0.0847 -0.2272 -0.2456
 3611TIP3    H132324   5.114   4.395   5.261 -1.0721 -1.6392 -1.6461
 3611TIP3    H232325   5.130   4.261   5.331 -2.3070 -1.5056 -1.0863
 3612TIP3   OH232326   1.878   3.743  11.260 -0.0063  0.1851 -0.6943
 3612TIP3    H132327   1.889   3.664  11.208 -0.1428 -0.9485  0.9685
 3612TIP3    H232328   1.967   3.766  11.287 -0.2739 -1.4069  1.6975
 3613TIP3   OH232329   5.524   5.238  14.585  0.0630 -0.0237 -0.1670
 3613TIP3    H132330   5.447   5.201  14.541 -0.9832  3.5485 -1.5876
 3613TIP3    H232331   5.487   5.305  14.644  1.9448  0.1832  0.8066
 3614TIP3   OH232332   4.032   2.694   1.128  0.5429  0.3010  0.4272
 3614TIP3    H132333   4.104   2.716   1.068  0.4502 -1.4641 -0.3777
 3614TIP3    H232334   3.991   2.778   1.147  2.0944  1.2032 -0.0348
 3615TIP3   OH232335   2.683   2.441  17.052 -0.1652  0.2990  0.0730
 3615TIP3    H132336   2.727   2.359  17.032  2.8016  2.4138 -2.5356
 3615TIP3    H232337   2.593   2.415  17.075  1.1661 -3.7496  1.0751
 3616TIP3   OH232338   2.346   0.167   2.641 -0.0691 -0.0050 -0.2243
 3616TIP3    H132339   2.410   0.157   2.711 -0.7826  0.6150  0.5251
 3616TIP3    H232340   2.364   0.253   2.603 -0.0679 -0.0843 -0.4043
 3617TIP3   OH232341   5.921   6.071  13.550  0.0105  0.4211 -0.1723
 3617TIP3    H132342   5.882   5.984  13.549  0.2751  0.3073 -0.9443
 3617TIP3    H232343   5.862   6.125  13.499  0.8475  0.2528 -1.3324
 3618TIP3   OH232344   4.872   1.859   2.590  0.3003  0.4506 -0.0751
 3618TIP3    H132345   4.912   1.923   2.649  1.5720 -0.3759 -0.0342
 3618TIP3    H232346   4.780   1.857   2.616  1.0805 -0.8361  2.7462
 3619TIP3   OH232347   2.193   1.085   0.764 -0.0192 -0.7664 -0.1724
 3619TIP3    H132348   2.271   1.085   0.709 -2.1297  1.8273 -3.3841
 3619TIP3    H232349   2.184   1.175   0.793 -0.4321 -1.5717  2.3391
 3620TIP3   OH232350   6.184   5.719  11.819 -0.4541  0.3277  0.2535
 3620TIP3    H132351   6.108   5.694  11.871 -1.7872  2.0036 -0.8483
 3620TIP3    H232352   6.173   5.813  11.804  1.8327  0.5948  0.0681
 3621TIP3   OH232353   4.930   5.396  13.243  0.3541  0.2202 -0.1341
 3621TIP3    H132354   4.958   5.328  13.181  3.7240 -0.9241  2.4423
 3621TIP3    H232355   4.865   5.352  13.298  0.8132 -0.2394  0.0538
 3622TIP3   OH232356   2.224   5.421   4.793 -0.3306  0.4707  0.0610
 3622TIP3    H132357   2.290   5.424   4.724  0.2621 -2.1907  0.4364
 3622TIP3    H232358   2.142   5.402   4.748 -0.1492 -0.0576 -0.0554
 3623TIP3   OH232359   3.050   4.257  10.696 -0.7432  0.5884 -0.3671
 3623TIP3    H132360   3.125   4.198  10.700 -0.7035  0.6589 -0.0704
 3623TIP3    H232361   3.042   4.280  10.603 -2.8305 -2.5441 -1.0537
 3624TIP3   OH232362   4.778   2.902  13.420 -0.1349 -0.0909  0.2220
 3624TIP3    H132363   4.749   2.984  13.382  0.0819 -0.0716  0.0989
 3624TIP3    H232364   4.702   2.870  13.469  0.4289  1.1938  1.9811
 3625TIP3   OH232365   5.734   3.272   4.881 -0.2335 -0.4659 -0.0991
 3625TIP3    H132366   5.738   3.178   4.870  0.1790 -0.4329 -0.2548
 3625TIP3    H232367   5.665   3.301   4.821 -0.7160 -0.7244  0.3279
 3626TIP3   OH232368   0.790   1.808   5.289  0.1575  0.0596  0.0345
 3626TIP3    H132369   0.837   1.890   5.306  2.0006 -0.9049 -0.3893
 3626TIP3    H232370   0.773   1.809   5.195 -3.1489  1.6868  0.5619
 3627TIP3   OH232371   4.027   6.112  15.919 -0.2523 -0.6455 -0.0657
 3627TIP3    H132372   3.986   6.100  16.004 -2.5908  0.4812 -0.9909
 3627TIP3    H232373   4.117   6.080  15.930 -0.3075  0.1493  2.9936
 3628TIP3   OH232374   0.616   5.445  12.386 -0.2143 -0.5569 -0.4108
 3628TIP3    H132375   0.640   5.507  12.455 -0.3263 -0.3566 -0.5524
 3628TIP3    H232376   0.690   5.384  12.382  0.8881  0.8252 -1.7603
 3629TIP3   OH232377   3.144   3.739   2.747 -0.0760 -0.3212 -0.0822
 3629TIP3    H132378   3.208   3.701   2.686  0.5845 -0.0599  0.4427
 3629TIP3    H232379   3.188   3.816   2.783  0.4228 -1.6992  2.3790
 3630TIP3   OH232380   0.864   3.507   0.599 -0.2054  0.4127 -0.6889
 3630TIP3    H132381   0.940   3.565   0.608 -1.1040  1.5917 -0.5939
 3630TIP3    H232382   0.900   3.425   0.567  1.1760  0.8123 -0.1938
 3631TIP3   OH232383   2.280   5.841   4.957 -0.9435  0.2241  0.2222
 3631TIP3    H132384   2.324   5.922   4.982 -0.2928 -0.4100  1.1697
 3631TIP3    H232385   2.187   5.863   4.959 -0.8046  0.7859  1.0821
 3632TIP3   OH232386   6.094   5.033   4.329 -0.3033  0.5153  0.1695
 3632TIP3    H132387   6.038   5.030   4.407  0.1562  0.8605  0.5144
 3632TIP3    H232388   6.131   5.121   4.329  0.4659  0.1920  0.1004
 3633TIP3   OH232389   4.482   1.570   5.020  0.2113  0.2445  0.3658
 3633TIP3    H132390   4.500   1.547   5.112 -1.8287 -0.6238  0.5769
 3633TIP3    H232391   4.529   1.653   5.007 -0.0049  0.7225  2.3949
 3634TIP3   OH232392   0.214   2.396   1.552 -0.2766 -0.5918 -0.6421
 3634TIP3    H132393   0.302   2.431   1.544 -1.1048  2.3085  2.1443
 3634TIP3    H232394   0.162   2.446   1.489 -0.0134 -2.3267 -2.3129
 3635TIP3   OH232395   0.274   0.415  10.396 -0.0964  0.5521 -0.0439
 3635TIP3    H132396   0.336   0.386  10.463 -0.4849 -0.1309  0.0250
 3635TIP3    H232397   0.319   0.486  10.350  1.4380 -1.1228 -1.1689
 3636TIP3   OH232398   4.915   0.877  15.934  0.9758 -0.1085  0.0545
 3636TIP3    H132399   4.823   0.900  15.922  0.7768 -0.6361  0.5694
 3636TIP3    H232400   4.963   0.955  15.904  0.3492  0.4190  0.4098
 3637TIP3   OH232401   4.071   4.289   0.834 -0.0702  0.0752 -0.0293
 3637TIP3    H132402   4.021   4.212   0.808  0.1740 -0.9210  2.3901
 3637TIP3    H232403   4.006   4.358   0.844 -0.5368 -0.3456 -0.1840
 3638TIP3   OH232404   6.697   5.256  15.233 -0.2612 -0.2887 -0.4878
 3638TIP3    H132405   6.609   5.281  15.260  0.3828 -0.0087  1.3905
 3638TIP3    H232406   6.686   5.220  15.145 -2.1744  0.1966 -0.4555
 3639TIP3   OH232407   1.436   2.663  13.351 -0.4444  0.2616  0.5913
 3639TIP3    H132408   1.384   2.713  13.288  0.3751  0.8184  0.3451
 3639TIP3    H232409   1.502   2.725  13.381  0.2132 -0.5025  0.7285
 3640TIP3   OH232410   0.030   6.327  11.706 -0.8120 -0.0931  0.2944
 3640TIP3    H132411  -0.016   6.407  11.683 -1.1302 -0.2229  0.4682
 3640TIP3    H232412   0.009   6.313  11.799  0.1922  0.2550  0.5720
 3641TIP3   OH232413   0.235   5.246   1.784  0.8863  0.8436 -0.0878
 3641TIP3    H132414   0.284   5.164   1.781 -0.1663  0.2196 -0.6049
 3641TIP3    H232415   0.230   5.267   1.878 -0.1846 -0.5151  0.1735
 3642TIP3   OH232416   6.128   3.640  15.826  0.9919 -0.2940  0.3547
 3642TIP3    H132417   6.108   3.593  15.907  0.3611  0.9185  0.9164
 3642TIP3    H232418   6.159   3.726  15.855  1.4260 -0.0972 -0.6735
 3643TIP3   OH232419   4.582   6.718   3.202  0.6852  0.0071  0.0204
 3643TIP3    H132420   4.551   6.780   3.135 -0.4367 -1.0686 -0.4697
 3643TIP3    H232421   4.662   6.681   3.165  0.2884 -0.2875 -0.5526
 3644TIP3   OH232422   5.968   4.383   1.008 -0.4466 -0.2888  0.4151
 3644TIP3    H132423   5.909   4.456   1.027 -0.7651 -0.6179  0.7208
 3644TIP3    H232424   5.977   4.337   1.092  0.5421 -0.0281  0.4544
 3645TIP3   OH232425   4.472   3.194   4.221  0.3732 -0.5195  0.3150
 3645TIP3    H132426   4.482   3.267   4.282  0.6431 -0.1638 -0.1506
 3645TIP3    H232427   4.561   3.176   4.190  0.1720 -0.3450 -0.3830
 3646TIP3   OH232428   4.408   5.161   6.599 -0.1927  0.1629 -0.1515
 3646TIP3    H132429   4.503   5.167   6.602 -0.1424 -1.2356  1.1830
 3646TIP3    H232430   4.389   5.092   6.536 -0.3277  0.1449 -0.0926
 3647TIP3   OH232431   6.292   3.861   5.797 -0.0099 -0.1145  0.0762
 3647TIP3    H132432   6.200   3.886   5.812 -0.5242 -1.0361 -1.4961
 3647TIP3    H232433   6.287   3.773   5.760  1.5985 -0.7811  1.3845
 3648TIP3   OH232434   0.158   5.317  14.190  0.1092  0.5525 -0.0787
 3648TIP3    H132435   0.191   5.335  14.102 -0.9712 -0.0612 -0.6178
 3648TIP3    H232436   0.107   5.395  14.214  0.0332  0.5297 -0.1684
 3649TIP3   OH232437   5.315   0.346   4.061  0.3718 -0.0566 -0.6618
 3649TIP3    H132438   5.336   0.268   4.113 -0.3722  0.4798  0.4835
 3649TIP3    H232439   5.379   0.411   4.090  0.0753  0.1868 -0.5473
 3650TIP3   OH232440   0.305   2.980  12.859  0.0542 -0.1212 -0.7314
 3650TIP3    H132441   0.273   2.937  12.780  1.2126 -0.0910 -1.2201
 3650TIP3    H232442   0.322   3.070  12.832  0.1395 -0.0248 -0.3591
 3651TIP3   OH232443   5.784   3.136   3.651 -0.1127 -0.0818  0.3797
 3651TIP3    H132444   5.789   3.072   3.723 -4.0957  0.3272  1.1270
 3651TIP3    H232445   5.717   3.100   3.592  0.8000  1.2106 -1.4812
 3652TIP3   OH232446   0.416   2.796  10.757  0.4134 -0.4301  0.5124
 3652TIP3    H132447   0.433   2.707  10.726 -2.2882 -0.8388  0.0445
 3652TIP3    H232448   0.352   2.784  10.828 -0.8711  1.2005 -0.3398
 3653TIP3   OH232449   2.744   4.564   2.633 -0.0234 -0.6976 -0.1327
 3653TIP3    H132450   2.742   4.623   2.558  0.7074  0.9608  1.1374
 3653TIP3    H232451   2.796   4.489   2.602  3.0189  1.3964 -0.2817
 3654TIP3   OH232452   5.041   1.128  13.515  0.1837  0.7180 -0.4885
 3654TIP3    H132453   5.057   1.034  13.512 -2.4453  0.2207 -0.1747
 3654TIP3    H232454   5.028   1.148  13.608  1.5114  1.5363 -0.4740
 3655TIP3   OH232455   4.725   5.384   4.065 -0.1936  0.4730 -0.0034
 3655TIP3    H132456   4.724   5.306   4.010 -1.7166  2.2487 -2.5961
 3655TIP3    H232457   4.633   5.401   4.084  0.0772  2.0715 -0.0769
 3656TIP3   OH232458   0.025   3.565   1.141 -0.3144 -0.2790 -0.3887
 3656TIP3    H132459  -0.047   3.602   1.190 -0.2555 -3.4690  2.2943
 3656TIP3    H232460  -0.016   3.500   1.083  0.2760 -1.3567  0.3890
 3657TIP3   OH232461   6.582   1.470   5.129 -0.0498 -0.3198  0.1167
 3657TIP3    H132462   6.582   1.560   5.097  1.0456  0.8252  3.1371
 3657TIP3    H232463   6.647   1.470   5.200 -1.9242 -2.8348  1.9197
 3658TIP3   OH232464   5.923   2.280   2.371 -0.5750 -0.5126  0.2611
 3658TIP3    H132465   5.842   2.256   2.416 -2.2845 -0.1242 -2.4875
 3658TIP3    H232466   5.894   2.316   2.288  2.4262  0.3471 -0.4711
 3659TIP3   OH232467   1.101   4.399  14.632 -0.2661 -0.2441 -0.0487
 3659TIP3    H132468   1.153   4.369  14.706 -1.3587 -1.9927  0.0276
 3659TIP3    H232469   1.152   4.471  14.595  0.3783  0.5541  2.2801
 3660TIP3   OH232470   4.067   6.451   0.786 -0.1378 -0.0093  0.0867
 3660TIP3    H132471   4.110   6.389   0.845 -0.8352 -0.9717 -0.3957
 3660TIP3    H232472   4.040   6.523   0.843  1.3465  0.2087  0.5265
 3661TIP3   OH232473   2.121   6.516   1.984  0.3505 -0.1457  0.4400
 3661TIP3    H132474   2.127   6.421   1.989  2.0556 -0.1974 -1.6378
 3661TIP3    H232475   2.116   6.545   2.075  1.7240 -2.1159  1.1715
 3662TIP3   OH232476   1.572   3.971  13.550 -0.1951  0.5657 -0.1639
 3662TIP3    H132477   1.550   4.036  13.483  0.6524 -1.1442 -2.1602
 3662TIP3    H232478   1.667   3.958  13.540 -0.7954 -3.0497 -1.7735
 3663TIP3   OH232479   6.294   0.480  14.219 -0.8130 -0.4976 -0.8771
 3663TIP3    H132480   6.260   0.483  14.129 -2.4042 -1.0442 -0.3031
 3663TIP3    H232481   6.254   0.556  14.262  0.2402 -0.0196 -0.7075
 3664TIP3   OH232482   1.021   0.825   4.669  0.4612 -0.2478  0.0013
 3664TIP3    H132483   1.092   0.809   4.607  0.0090  1.4462 -1.0137
 3664TIP3    H232484   1.020   0.748   4.726  1.6896 -1.2695 -1.3283
 3665TIP3   OH232485   1.402   3.438  13.624 -0.1545 -0.2870 -0.2287
 3665TIP3    H132486   1.380   3.513  13.680  0.2614 -0.2250 -0.1493
 3665TIP3    H232487   1.485   3.406  13.659 -0.0868 -0.4848 -0.5754
 3666TIP3   OH232488   2.200   5.427  15.104 -0.1453  0.0048 -0.1113
 3666TIP3    H132489   2.111   5.462  15.113 -1.1575 -1.9551 -1.9928
 3666TIP3    H232490   2.220   5.392  15.190 -1.7197 -0.6704  0.0006
 3667TIP3   OH232491   2.328   4.437   4.030 -0.2781 -0.1848  0.1009
 3667TIP3    H132492   2.383   4.515   4.032  0.8026 -0.8877 -1.5074
 3667TIP3    H232493   2.242   4.468   4.002 -1.2957  1.2197  4.3141
 3668TIP3   OH232494   1.994   0.151   2.262 -0.2178 -0.7940  0.2472
 3668TIP3    H132495   1.914   0.203   2.271 -0.2838 -0.8214 -0.1671
 3668TIP3    H232496   2.053   0.188   2.327 -1.1322 -1.8680  1.7142
 3669TIP3   OH232497   4.329   6.787   5.875 -0.4218 -0.4449  0.4211
 3669TIP3    H132498   4.393   6.849   5.911  0.8326 -1.9270  0.8275
 3669TIP3    H232499   4.299   6.737   5.951  1.3338 -2.7866 -0.3656
 3670TIP3   OH232500   1.338   4.332   4.868 -0.4548 -0.1975  0.2964
 3670TIP3    H132501   1.392   4.410   4.876 -1.0513  0.1954  0.4834
 3670TIP3    H232502   1.261   4.361   4.818 -0.3864 -0.8074 -0.1730
 3671TIP3   OH232503   0.331   0.339   2.363  0.5702  0.4849 -0.1895
 3671TIP3    H132504   0.288   0.287   2.296 -0.4821  1.1392 -0.0477
 3671TIP3    H232505   0.424   0.337   2.341  0.2302  0.6844 -1.6566
 3672TIP3   OH232506   0.967   0.717  13.687 -0.2326  0.2341 -0.8784
 3672TIP3    H132507   1.037   0.715  13.752 -0.9721  0.9189 -0.0458
 3672TIP3    H232508   1.011   0.730  13.604  0.9431 -2.9397 -0.8334
 3673TIP3   OH232509   3.925   5.542  14.047  0.2428 -0.1903 -0.4118
 3673TIP3    H132510   3.972   5.591  13.979  0.2397 -1.6117 -1.4543
 3673TIP3    H232511   3.945   5.588  14.128  2.7906 -0.2833 -0.9540
 3674TIP3   OH232512   5.809   6.807  14.418  0.6100 -0.0364  0.5130
 3674TIP3    H132513   5.733   6.831  14.471 -0.0999  0.8544 -0.8963
 3674TIP3    H232514   5.850   6.890  14.395  0.6062 -0.3860 -0.7892
 3675TIP3   OH232515   4.037   4.296   2.170  0.7111 -0.3339 -0.2356
 3675TIP3    H132516   3.986   4.215   2.177 -0.8596  0.6717  0.2450
 3675TIP3    H232517   4.011   4.334   2.086  0.3708  0.3668  0.1785
 3676TIP3   OH232518   5.076   4.293   0.464  0.1870 -0.7545 -0.0201
 3676TIP3    H132519   5.159   4.321   0.503 -0.3413  0.3716  0.3233
 3676TIP3    H232520   5.012   4.357   0.496 -0.7972 -1.5661 -0.3489
 3677TIP3   OH232521   3.294   3.841   0.806  0.5567  0.1484 -0.7453
 3677TIP3    H132522   3.278   3.894   0.884  0.2017 -0.4942 -0.3821
 3677TIP3    H232523   3.224   3.865   0.745  0.1917 -0.1595 -0.4477
 3678TIP3   OH232524   6.308   3.336  11.886 -0.0829  0.5954 -0.8308
 3678TIP3    H132525   6.331   3.245  11.904 -2.2783  0.5265  1.8762
 3678TIP3    H232526   6.369   3.387  11.939  0.3598  0.6989 -1.4287
 3679TIP3   OH232527   2.003   2.686  15.211  0.8817 -0.2691  0.1190
 3679TIP3    H132528   2.027   2.596  15.187 -0.0069 -0.5557  0.2976
 3679TIP3    H232529   1.927   2.706  15.157  1.3723  0.5596 -0.2673
 3680TIP3   OH232530   4.113   5.309  10.637  0.1573 -0.1182  0.3988
 3680TIP3    H132531   4.023   5.340  10.642  1.2437  3.0601  1.2296
 3680TIP3    H232532   4.141   5.327  10.548 -0.1296 -1.4800  0.0207
 3681TIP3   OH232533   5.037   4.874   2.448 -0.1260  0.4733  0.0469
 3681TIP3    H132534   5.076   4.903   2.531  0.4948 -1.3541  0.4162
 3681TIP3    H232535   4.958   4.927   2.439 -1.7787 -1.2803  3.2775
 3682TIP3   OH232536   2.953   3.469   2.617  0.2549 -0.4352  0.3974
 3682TIP3    H132537   2.938   3.556   2.581 -2.3769 -1.1685 -0.3932
 3682TIP3    H232538   3.048   3.462   2.625  0.4862  2.6112  0.7757
 3683TIP3   OH232539   6.016   5.609   5.550 -0.2508 -0.3835 -0.3308
 3683TIP3    H132540   5.985   5.697   5.570  0.7303  0.2454 -1.4882
 3683TIP3    H232541   5.976   5.588   5.465  0.2564 -0.6770 -0.5005
 3684TIP3   OH232542   1.496   0.324   3.517  0.6471  0.0193  0.3427
 3684TIP3    H132543   1.505   0.303   3.425  0.7603 -0.6195  0.4992
 3684TIP3    H232544   1.413   0.372   3.523  0.1655 -0.7738  0.0571
 3685TIP3   OH232545   4.954   5.683   0.346 -0.2516 -0.3415  0.1708
 3685TIP3    H132546   4.890   5.707   0.413 -0.8047  0.0702 -0.4884
 3685TIP3    H232547   4.933   5.741   0.272  0.4148 -0.7157 -0.3132
 3686TIP3   OH232548   0.877   0.901  14.138 -0.0727  0.2218  0.5134
 3686TIP3    H132549   0.860   0.908  14.044 -0.8753 -1.2620  0.5287
 3686TIP3    H232550   0.794   0.925  14.179  0.4995  1.6382  0.8903
 3687TIP3   OH232551   0.469   2.177   0.666  0.6384  0.1137  0.4223
 3687TIP3    H132552   0.438   2.103   0.613  0.9475  0.0917  0.2738
 3687TIP3    H232553   0.529   2.224   0.609  0.4296  0.4940  0.5086
 3688TIP3   OH232554   2.547   4.912  11.550 -0.0442  0.1972 -0.0116
 3688TIP3    H132555   2.496   4.838  11.582 -0.8610  1.1895  1.0374
 3688TIP3    H232556   2.526   4.983  11.611  2.6869  0.5993  0.4938
 3689TIP3   OH232557   5.085   4.729  12.835 -0.1772 -0.4816 -0.4125
 3689TIP3    H132558   5.138   4.695  12.906 -0.1544  0.9602  0.2835
 3689TIP3    H232559   5.139   4.797  12.795 -0.7230 -0.3641 -0.9554
 3690TIP3   OH232560   5.050   5.930  15.000 -0.5858  0.0666  0.5094
 3690TIP3    H132561   5.131   5.961  14.959 -0.1954  0.8155  1.8309
 3690TIP3    H232562   5.052   5.968  15.088 -1.2644 -1.7684  1.3318
 3691TIP3   OH232563   1.931   0.008  12.043  0.1552  0.1880 -0.0170
 3691TIP3    H132564   1.991   0.082  12.054  0.8623 -0.4578  0.5401
 3691TIP3    H232565   1.984  -0.060  12.001 -0.3665 -0.1581 -0.1185
 3692TIP3   OH232566   1.019   2.241  15.196  0.4224  0.0850  0.2664
 3692TIP3    H132567   1.086   2.208  15.255  0.9225 -0.8188 -0.7967
 3692TIP3    H232568   0.936   2.225  15.242  0.9014  0.8951  1.4288
 3693TIP3   OH232569   2.137   5.089  15.557  0.2240 -0.2821 -0.0408
 3693TIP3    H132570   2.125   5.005  15.514 -1.6878 -0.8051  1.4556
 3693TIP3    H232571   2.067   5.144  15.521  0.5133  0.2040  0.1364
 3694TIP3   OH232572   3.649   1.251  15.679 -0.4002  0.2476 -0.1248
 3694TIP3    H132573   3.661   1.243  15.774  1.3126  2.4068 -0.0983
 3694TIP3    H232574   3.561   1.288  15.669 -0.8678 -0.6606  0.5689
 3695TIP3   OH232575   5.485   5.700  11.423  0.3275  0.0529  0.5192
 3695TIP3    H132576   5.411   5.640  11.430  0.4646  0.0075  1.7034
 3695TIP3    H232577   5.468   5.749  11.342 -2.4117  1.8893  2.0963
 3696TIP3   OH232578   1.728   3.090   4.936 -0.0470 -0.7266  0.0179
 3696TIP3    H132579   1.647   3.093   4.885 -0.5389 -1.3167  0.7449
 3696TIP3    H232580   1.705   3.039   5.014  0.5466  0.6229  1.0919
 3697TIP3   OH232581   0.104   6.788   0.290  0.2840 -0.0368  0.1870
 3697TIP3    H132582   0.153   6.826   0.217  0.5399 -1.3799 -0.3549
 3697TIP3    H232583   0.072   6.864   0.339  0.4381  0.8759 -1.0919
 3698TIP3   OH232584   1.642   5.450   2.975 -0.0587  0.8653  0.0280
 3698TIP3    H132585   1.559   5.415   3.006 -0.8547  0.7619 -2.1016
 3698TIP3    H232586   1.706   5.421   3.039 -1.3548 -0.8465  0.5924
 3699TIP3   OH232587   1.146   3.138  15.196 -0.5186  0.3883 -0.0891
 3699TIP3    H132588   1.159   3.191  15.275  0.4787  1.0250 -0.6682
 3699TIP3    H232589   1.163   3.048  15.224  1.2500  0.7720  0.0969
 3700TIP3   OH232590   6.049   4.598   2.108  0.4813  0.1155  0.0383
 3700TIP3    H132591   6.092   4.551   2.179 -1.8720 -2.1488  0.0512
 3700TIP3    H232592   6.119   4.618   2.046  1.8235 -1.9675  0.8256
 3701TIP3   OH232593   6.307   5.268  12.953 -0.0579  0.1970  0.4708
 3701TIP3    H132594   6.233   5.244  12.897  1.2205 -0.6424 -0.8944
 3701TIP3    H232595   6.349   5.185  12.974  1.1370  0.7448  0.3087
 3702TIP3   OH232596   5.577   3.036  12.448  0.4015 -0.0486 -0.3971
 3702TIP3    H132597   5.635   3.110  12.429  0.7177 -0.6393 -1.7504
 3702TIP3    H232598   5.637   2.961  12.458  0.0042 -0.3175 -0.0167
 3703TIP3   OH232599   6.750   6.442  14.296  0.2435  0.3282 -0.0497
 3703TIP3    H132600   6.739   6.347  14.290  0.5423  0.2480  0.5975
 3703TIP3    H232601   6.691   6.478  14.230  0.5033 -0.3276 -0.6350
 3704TIP3   OH232602   0.605   4.730   5.534  0.6366 -0.4799  0.4345
 3704TIP3    H132603   0.573   4.641   5.521  0.9342 -0.6059  0.5817
 3704TIP3    H232604   0.662   4.746   5.459  1.6344 -0.8847  1.0987
 3705TIP3   OH232605   2.191   1.640   5.565 -0.5614  0.1125  0.3293
 3705TIP3    H132606   2.286   1.645   5.573 -0.6507 -0.2890  1.9382
 3705TIP3    H232607   2.160   1.723   5.603 -0.8489  0.2512 -0.2106
 3706TIP3   OH232608   2.215   3.537   1.400 -0.1364 -0.2206  0.3299
 3706TIP3    H132609   2.142   3.598   1.416  0.9663  1.8564 -2.1450
 3706TIP3    H232610   2.173   3.460   1.361 -0.8984  1.8151 -3.1284
 3707TIP3   OH232611   2.357   0.149  11.645 -0.0644  0.0167  0.1468
 3707TIP3    H132612   2.423   0.207  11.607  1.5803 -1.9858 -0.1850
 3707TIP3    H232613   2.408   0.077  11.683 -2.0469 -1.2604  0.4509
 3708TIP3   OH232614   2.994   4.017  15.433  0.0375 -0.0305  0.7358
 3708TIP3    H132615   2.918   4.068  15.404 -0.9708 -2.5798 -1.3426
 3708TIP3    H232616   3.068   4.056  15.388 -0.7299 -0.3317 -0.8322
 3709TIP3   OH232617   2.310   3.969  14.165  0.5069  0.1485 -0.3646
 3709TIP3    H132618   2.342   4.052  14.201  1.0984 -0.0466 -0.4215
 3709TIP3    H232619   2.313   3.908  14.238 -2.5667  0.8330  0.3980
 3710TIP3   OH232620   3.319   2.515   1.249  0.2281 -0.2975 -0.6615
 3710TIP3    H132621   3.266   2.518   1.169 -0.5282 -1.6721 -0.2245
 3710TIP3    H232622   3.271   2.569   1.312 -0.1526 -0.7652 -0.5540
 3711TIP3   OH232623   5.834   4.552  14.852 -0.0468 -0.5303 -0.7933
 3711TIP3    H132624   5.929   4.552  14.868 -0.2349 -0.1233  0.3849
 3711TIP3    H232625   5.826   4.572  14.759  0.9690  2.5893 -0.2830
 3712TIP3   OH232626   2.083   3.976   3.019 -0.0184  0.0843  0.1640
 3712TIP3    H132627   2.150   4.012   3.076  0.0631 -0.1027  0.1868
 3712TIP3    H232628   2.094   3.881   3.025  0.0230  0.0624 -0.1966
 3713TIP3   OH232629   3.502   1.987  12.438  0.1519 -0.6346 -0.1719
 3713TIP3    H132630   3.435   2.051  12.417  1.3743  0.6038 -0.4064
 3713TIP3    H232631   3.454   1.910  12.467 -1.3491  0.2700 -0.2108
 3714TIP3   OH232632   1.937   5.412   4.021  0.5169 -0.2761  0.2982
 3714TIP3    H132633   1.973   5.443   4.104 -0.2789  0.8677  0.2258
 3714TIP3    H232634   2.004   5.433   3.956  0.9990 -0.8740  0.5973
 3715TIP3   OH232635   0.583   1.549  13.370 -0.1860  0.7940  0.0836
 3715TIP3    H132636   0.552   1.464  13.401  0.4627  0.7975  0.7431
 3715TIP3    H232637   0.576   1.606  13.447 -1.2821  1.5193 -0.5336
 3716TIP3   OH232638   0.691   0.003   3.511  0.2341 -0.0194 -0.1433
 3716TIP3    H132639   0.715   0.094   3.495  1.1997 -0.2558 -0.0290
 3716TIP3    H232640   0.732  -0.019   3.594 -0.1951 -0.4915 -0.0497
 3717TIP3   OH232641   3.310   6.315   5.834  0.3283  0.7445  0.1031
 3717TIP3    H132642   3.276   6.225   5.837 -0.8674  1.2113  1.6045
 3717TIP3    H232643   3.312   6.342   5.926  2.3689  1.6483 -0.1965
 3718TIP3   OH232644   3.181   3.683  17.126  0.2011  0.1010 -0.4629
 3718TIP3    H132645   3.254   3.744  17.118  1.1768 -1.1273 -1.2065
 3718TIP3    H232646   3.151   3.669  17.036  1.4439 -2.2189 -0.5577
 3719TIP3   OH232647   2.657   6.381   4.120 -0.1339  0.1696  0.4595
 3719TIP3    H132648   2.675   6.465   4.078  1.4031  0.0747  0.9057
 3719TIP3    H232649   2.693   6.316   4.059  0.4763 -0.0514  1.0393
 3720TIP3   OH232650   4.869   3.437  11.581 -0.1587 -0.3176  0.0611
 3720TIP3    H132651   4.912   3.387  11.512 -0.5197 -0.6265  0.0568
 3720TIP3    H232652   4.922   3.422  11.659  0.1478 -0.1162 -0.1126
 3721TIP3   OH232653   6.806   1.795   5.366  0.2872 -0.1986 -0.2721
 3721TIP3    H132654   6.878   1.775   5.426 -0.6961 -1.4603  0.4970
 3721TIP3    H232655   6.768   1.876   5.401 -0.0644 -0.7390  0.6307
 3722TIP3   OH232656   5.896   1.112   4.453 -0.1960  0.1096  0.2352
 3722TIP3    H132657   5.876   1.191   4.504 -0.3434 -0.6428  1.3409
 3722TIP3    H232658   5.991   1.115   4.443 -0.2785  0.8506 -0.4326
 3723TIP3   OH232659   3.234   6.486  16.886  0.4080  0.6328 -0.1271
 3723TIP3    H132660   3.281   6.411  16.849 -0.6427  0.7315 -1.7379
 3723TIP3    H232661   3.181   6.450  16.956  0.5591  0.0058 -0.3331
 3724TIP3   OH232662   0.866   1.409   0.549  0.0820  0.1901  0.1949
 3724TIP3    H132663   0.872   1.474   0.619  1.0070  0.5636 -0.2223
 3724TIP3    H232664   0.957   1.388   0.528 -0.2018 -1.7809  0.8138
 3725TIP3   OH232665   2.457   1.440  13.183  0.1961 -0.2800 -0.7612
 3725TIP3    H132666   2.528   1.503  13.190  0.8666 -0.9451 -1.4991
 3725TIP3    H232667   2.473   1.394  13.101 -0.3259 -1.3501 -0.2806
 3726TIP3   OH232668   0.960   3.123   5.572  0.0879 -0.1787 -0.5779
 3726TIP3    H132669   0.886   3.183   5.586 -0.0559 -0.0375 -1.9147
 3726TIP3    H232670   0.931   3.039   5.607 -0.3373  0.1185 -0.2197
 3727TIP3   OH232671   6.768   6.084   4.934 -0.0525 -0.0437 -0.0536
 3727TIP3    H132672   6.773   6.161   4.878  1.0342  0.4539  0.7090
 3727TIP3    H232673   6.695   6.033   4.899 -0.9528  1.4582 -0.4073
 3728TIP3   OH232674   0.451   3.135   3.229 -0.2648  0.5001  0.5648
 3728TIP3    H132675   0.432   3.111   3.320 -0.9693 -0.2070  0.2445
 3728TIP3    H232676   0.366   3.160   3.193 -0.5589 -2.1336 -0.7312
 3729TIP3   OH232677   6.423   4.599  15.179  0.0910 -0.6161  0.1988
 3729TIP3    H132678   6.472   4.523  15.146 -0.1523 -0.7950  0.2434
 3729TIP3    H232679   6.485   4.644  15.237  0.3841 -0.5310 -0.1745
 3730TIP3   OH232680   5.794   0.653   4.738 -0.2922  0.5289 -0.0220
 3730TIP3    H132681   5.826   0.741   4.715  2.3095 -0.7103 -1.2759
 3730TIP3    H232682   5.868   0.610   4.778 -1.1165 -1.5936 -0.7136
 3731TIP3   OH232683   5.608   2.516   3.594 -0.1301 -0.5303  0.0244
 3731TIP3    H132684   5.666   2.559   3.657 -1.1160 -0.5493  0.9690
 3731TIP3    H232685   5.532   2.574   3.588  0.6055  0.2238 -2.3111
 3732TIP3   OH232686   3.042   4.788   4.892  0.0929  0.1365  0.9740
 3732TIP3    H132687   2.957   4.750   4.917  0.5592  0.0821  2.5088
 3732TIP3    H232688   3.022   4.879   4.872 -0.5495 -0.1977  0.0800
 3733TIP3   OH232689   1.985   1.426  14.214 -0.3832 -0.3259  0.0037
 3733TIP3    H132690   2.017   1.336  14.212 -0.1079 -0.2287 -0.0708
 3733TIP3    H232691   1.896   1.420  14.248 -0.1961 -0.5790  0.4551
 3734TIP3   OH232692   4.596   3.286  13.921 -0.1374  0.2250 -0.4510
 3734TIP3    H132693   4.618   3.324  13.836  0.2951  0.3507 -0.2797
 3734TIP3    H232694   4.660   3.216  13.933 -0.6961 -0.3169 -0.5928
 3735TIP3   OH232695   1.951   1.956  16.605 -0.2834 -0.0816 -0.4062
 3735TIP3    H132696   1.883   1.903  16.648 -0.0031 -0.9254 -0.9773
 3735TIP3    H232697   1.913   1.977  16.520 -0.0341 -0.1306 -0.5296
 3736TIP3   OH232698   5.314   2.447  16.474  0.5183 -0.0417 -0.1145
 3736TIP3    H132699   5.385   2.407  16.425  1.0785  0.4084  0.3200
 3736TIP3    H232700   5.357   2.489  16.549  0.1382  2.7503 -1.4059
 3737TIP3   OH232701   4.917   6.056   2.661 -0.1993  0.2161 -0.3207
 3737TIP3    H132702   4.987   6.001   2.695 -0.5268  0.4012  0.6676
 3737TIP3    H232703   4.957   6.103   2.587 -0.1357 -1.8659 -1.6337
 3738TIP3   OH232704   2.452   2.140   0.445  0.2095 -0.3618 -0.2714
 3738TIP3    H132705   2.405   2.214   0.407  0.7957 -0.3029 -0.8993
 3738TIP3    H232706   2.472   2.167   0.535 -1.2909 -0.5510  0.1383
 3739TIP3   OH232707   0.806   5.546   0.622 -0.6721  0.2469  0.2763
 3739TIP3    H132708   0.801   5.560   0.717  1.9106  1.0351  0.3270
 3739TIP3    H232709   0.849   5.461   0.613  0.3821  0.8180 -0.1729
 3740TIP3   OH232710   5.393   6.488  12.067  0.4568 -0.3453  0.1243
 3740TIP3    H132711   5.335   6.490  11.991  2.7002 -1.5199 -1.7211
 3740TIP3    H232712   5.384   6.574  12.108  0.0424  0.7132 -2.1418
 3741TIP3   OH232713   2.264   2.497  11.051  0.2189 -0.0335  0.3268
 3741TIP3    H132714   2.214   2.446  10.987  1.4039  0.0022 -0.6416
 3741TIP3    H232715   2.207   2.572  11.072 -0.6037 -0.5900  0.1037
 3742TIP3   OH232716   5.681   0.264   4.133 -0.0038  0.2970 -0.6930
 3742TIP3    H132717   5.643   0.352   4.132  0.5425  0.5312 -0.9211
 3742TIP3    H232718   5.755   0.269   4.073 -0.1760 -0.4130 -0.9662
 3743TIP3   OH232719   3.833   2.165   0.033 -0.0835  0.0622  0.0136
 3743TIP3    H132720   3.776   2.128  -0.034  0.2259 -0.1921 -0.1070
 3743TIP3    H232721   3.782   2.159   0.114 -0.9004  1.4216 -0.4008
 3744TIP3   OH232722   0.589   0.331   4.821  0.1353 -0.3372 -0.2373
 3744TIP3    H132723   0.568   0.375   4.903  0.9108 -1.8925  0.8142
 3744TIP3    H232724   0.511   0.342   4.767 -0.2710  0.9365  0.5861
 3745TIP3   OH232725   6.462   1.249  16.362  0.4686  0.0167 -0.9315
 3745TIP3    H132726   6.473   1.338  16.396  1.2745 -0.1115 -0.8461
 3745TIP3    H232727   6.428   1.199  16.436  3.9299 -0.6777  0.2787
 3746TIP3   OH232728   4.266   0.170  14.248 -0.1455 -0.0686 -0.3358
 3746TIP3    H132729   4.264   0.120  14.167  1.2891 -0.7593  0.0372
 3746TIP3    H232730   4.195   0.134  14.301 -0.2036 -0.5466 -0.7374
 3747TIP3   OH232731   0.232   0.544  15.783 -0.1880 -0.5221 -0.2095
 3747TIP3    H132732   0.141   0.560  15.759  0.2976  1.4072 -0.8209
 3747TIP3    H232733   0.260   0.623  15.830  1.2225 -0.9999 -0.1969
 3748TIP3   OH232734   3.184   5.236   6.087  0.6877 -0.6671 -0.4717
 3748TIP3    H132735   3.196   5.189   6.004  0.8202 -0.8478 -0.3507
 3748TIP3    H232736   3.271   5.239   6.126  1.1647  1.9289 -1.6655
 3749TIP3   OH232737   6.377   5.576   1.706 -0.2452 -0.2145  0.4816
 3749TIP3    H132738   6.291   5.583   1.665  0.1609  1.2225 -0.1759
 3749TIP3    H232739   6.416   5.663   1.694  1.0574 -0.6696  1.3045
 3750TIP3   OH232740   6.296   6.093   1.391  0.0214 -0.3549  0.1048
 3750TIP3    H132741   6.255   6.019   1.436 -0.4378 -0.0815  0.1309
 3750TIP3    H232742   6.335   6.145   1.461  0.9722 -0.9513  0.0318
 3751TIP3   OH232743   2.150   0.036   4.240  0.4321  0.3650  0.5228
 3751TIP3    H132744   2.188   0.035   4.152 -0.9887 -0.9181 -0.1194
 3751TIP3    H232745   2.099   0.117   4.244  0.7164  0.5562  0.2592
 3752TIP3   OH232746   3.393   6.623  11.509 -0.5609  0.5079  0.1431
 3752TIP3    H132747   3.440   6.610  11.427  0.8929  2.9810  0.5347
 3752TIP3    H232748   3.301   6.628  11.484 -0.3138 -0.8146 -1.0731
 3753TIP3   OH232749   0.777   1.638   2.663 -0.4459  0.1236  0.4146
 3753TIP3    H132750   0.691   1.600   2.677 -0.7043  0.4861 -0.1702
 3753TIP3    H232751   0.830   1.566   2.629 -0.0252 -0.5650  2.4558
 3754TIP3   OH232752   4.255   1.754   0.950  0.5125 -0.4004  0.2807
 3754TIP3    H132753   4.237   1.661   0.938  2.6690 -0.8260  0.1556
 3754TIP3    H232754   4.267   1.787   0.861 -1.9869  0.4124  0.1891
 3755TIP3   OH232755   2.973   5.333  16.475  0.0172  0.4697 -0.8282
 3755TIP3    H132756   2.880   5.337  16.495 -0.1579 -3.1519 -0.6784
 3755TIP3    H232757   2.987   5.244  16.442  3.6063  0.5624  0.2462
 3756TIP3   OH232758   0.271   3.589  13.856 -0.3975 -0.2396  0.1584
 3756TIP3    H132759   0.338   3.658  13.858  0.1129 -0.6529 -1.7510
 3756TIP3    H232760   0.190   3.633  13.881  0.0643  0.8964 -0.3089
 3757TIP3   OH232761   5.523   6.582  14.104 -0.2602 -0.3028  0.2135
 3757TIP3    H132762   5.558   6.525  14.172 -0.1655 -0.9765 -0.3987
 3757TIP3    H232763   5.564   6.551  14.023 -1.0661 -0.0896 -0.2781
 3758TIP3   OH232764   0.013   2.752   3.760 -0.1810 -0.1809 -0.3182
 3758TIP3    H132765  -0.002   2.717   3.672  0.3617 -2.1335  0.3354
 3758TIP3    H232766  -0.065   2.727   3.809 -0.6052  1.1460 -0.3041
 3759TIP3   OH232767   5.707   2.621  12.829 -0.5416  0.1608  0.2709
 3759TIP3    H132768   5.740   2.577  12.751 -0.3947 -0.4913  0.6979
 3759TIP3    H232769   5.619   2.584  12.841 -0.4660  0.0756  0.5592
 3760TIP3   OH232770   1.109   1.952   3.986  0.2412  0.0062 -0.0082
 3760TIP3    H132771   1.135   2.023   4.044  1.4386 -0.0607 -0.4448
 3760TIP3    H232772   1.016   1.939   4.003  0.0016  1.7302  0.0130
 3761TIP3   OH232773   6.438   0.269   3.591 -0.1795 -0.3447 -0.1245
 3761TIP3    H132774   6.522   0.288   3.632 -0.9520  0.9502  0.9049
 3761TIP3    H232775   6.374   0.313   3.647 -1.4414 -0.3426 -1.5440
 3762TIP3   OH232776   3.693   6.263  15.048 -0.1028  0.4275 -0.2193
 3762TIP3    H132777   3.629   6.204  15.009  0.9033 -1.2101  0.5485
 3762TIP3    H232778   3.747   6.292  14.975 -0.4348  0.1897 -0.5610
 3763TIP3   OH232779   5.295   2.197   4.958 -0.3530  0.8145  0.1440
 3763TIP3    H132780   5.318   2.164   5.045  0.1084  0.1806 -0.2093
 3763TIP3    H232781   5.315   2.290   4.961 -0.3420  0.7969  0.7142
 3764TIP3   OH232782   2.454   1.986   5.286  0.5316  0.6699 -0.2463
 3764TIP3    H132783   2.487   2.072   5.262  2.3560  0.5429  1.6536
 3764TIP3    H232784   2.395   2.002   5.359  1.4118  0.2548  0.5638
 3765TIP3   OH232785   5.427   1.810   0.123 -0.0147  0.3621  0.2297
 3765TIP3    H132786   5.438   1.895   0.083  0.3777  0.0253 -0.3841
 3765TIP3    H232787   5.397   1.829   0.212 -1.5072  1.0890 -0.4124
 3766TIP3   OH232788   5.703   3.413  17.285 -1.0414  0.7182  0.2569
 3766TIP3    H132789   5.758   3.338  17.307 -0.3622  1.3359  0.6996
 3766TIP3    H232790   5.733   3.483  17.343 -1.2489  1.5133 -0.5846
 3767TIP3   OH232791   6.303   3.679   0.530 -0.4587  0.5025  0.2367
 3767TIP3    H132792   6.368   3.643   0.469 -0.5889  0.7052 -0.0246
 3767TIP3    H232793   6.234   3.713   0.473  0.1584  2.1093  0.4462
 3768TIP3   OH232794   4.813   3.552   1.301  0.3171  0.0843 -0.4841
 3768TIP3    H132795   4.792   3.480   1.241  1.7953 -0.0090 -0.9148
 3768TIP3    H232796   4.746   3.618   1.283 -1.9339 -1.7467  0.9473
 3769TIP3   OH232797   1.211   2.434  15.107 -0.5375 -0.5970 -0.5169
 3769TIP3    H132798   1.224   2.480  15.024 -0.8246  0.6431  0.1080
 3769TIP3    H232799   1.168   2.352  15.083 -2.5722  0.6950 -1.4085
 3770TIP3   OH232800   1.897   5.811   1.400  0.3675 -0.3998 -0.0856
 3770TIP3    H132801   1.990   5.821   1.383  0.1724  0.3344 -0.7630
 3770TIP3    H232802   1.892   5.765   1.484  1.3248  2.0940  1.4014
 3771TIP3   OH232803   2.425   3.596   2.724  0.1342  0.0485 -0.4473
 3771TIP3    H132804   2.364   3.658   2.764 -0.7628 -0.8966 -0.3241
 3771TIP3    H232805   2.444   3.633   2.638 -0.4755  0.4452 -0.4113
 3772TIP3   OH232806   3.950   5.566  13.348  0.2659  0.2617  0.4123
 3772TIP3    H132807   3.950   5.475  13.320 -0.5715  0.2189  0.5684
 3772TIP3    H232808   3.922   5.564  13.439 -1.9449  0.8744 -0.2204
 3773TIP3   OH232809   0.441   4.784   1.719  0.0209 -0.3082  0.3376
 3773TIP3    H132810   0.374   4.734   1.766  1.6279 -2.3852  0.4458
 3773TIP3    H232811   0.523   4.761   1.762  0.6000  4.4031  2.1072
 3774TIP3   OH232812   0.839   0.481  16.776 -0.6255 -0.6393 -0.9881
 3774TIP3    H132813   0.884   0.496  16.859  0.1911  0.1426 -1.5466
 3774TIP3    H232814   0.756   0.528  16.784 -0.9097 -1.2491 -0.3205
 3775TIP3   OH232815   3.792   3.459   0.706  0.1821 -0.5081 -0.0897
 3775TIP3    H132816   3.874   3.419   0.676  0.6169  0.0586  0.3105
 3775TIP3    H232817   3.773   3.415   0.788  1.7513  1.4466  1.4037
 3776TIP3   OH232818   1.746   1.583  13.230 -0.3780  0.3948 -0.5361
 3776TIP3    H132819   1.698   1.549  13.306 -1.0098 -1.2739 -1.6560
 3776TIP3    H232820   1.838   1.569  13.251 -0.4592  1.6203  0.6963
 3777TIP3   OH232821   6.699   5.686  14.865 -0.0295  0.2391  0.0423
 3777TIP3    H132822   6.613   5.708  14.828  0.1307  0.8005  0.0023
 3777TIP3    H232823   6.693   5.592  14.884 -0.7171  0.3103  0.2070
 3778TIP3   OH232824   0.033   1.614  13.900 -0.1847 -0.4165 -0.0793
 3778TIP3    H132825   0.126   1.639  13.898 -0.0640 -0.8346  0.2088
 3778TIP3    H232826   0.001   1.648  13.983 -0.5863  0.7556 -0.7022
 3779TIP3   OH232827   6.203   6.272  16.853 -0.2609  0.6080 -0.6000
 3779TIP3    H132828   6.294   6.299  16.865  0.4377 -0.7054 -2.7069
 3779TIP3    H232829   6.196   6.250  16.760 -2.6417  0.3357 -0.3922
 3780TIP3   OH232830   0.720   1.081   5.276  0.5767  0.0142 -0.1974
 3780TIP3    H132831   0.745   1.020   5.346  2.5483  0.3941 -0.5309
 3780TIP3    H232832   0.777   1.056   5.202  0.2070  1.1703 -0.8775
 3781TIP3   OH232833   4.204   2.181  12.562 -0.0453  0.6742  0.4906
 3781TIP3    H132834   4.216   2.203  12.655  0.4033  0.9097  0.3788
 3781TIP3    H232835   4.268   2.112  12.546 -1.0272 -0.2979  0.6824
 3782TIP3   OH232836   5.871   4.242  16.235  0.0347  0.4414 -0.1501
 3782TIP3    H132837   5.830   4.163  16.270  0.3665 -0.3019 -1.3816
 3782TIP3    H232838   5.838   4.313  16.290 -0.9854 -0.4391  0.3997
 3783TIP3   OH232839   3.287   2.139  16.068  0.2571 -0.2119  0.2917
 3783TIP3    H132840   3.251   2.055  16.040 -0.7530 -0.1770  1.4509
 3783TIP3    H232841   3.382   2.130  16.056  0.0764 -1.1950 -0.4124
 3784TIP3   OH232842   5.895   6.392  12.205  0.2341  0.8451  0.0257
 3784TIP3    H132843   5.812   6.396  12.158 -0.5491  0.8467  1.3905
 3784TIP3    H232844   5.872   6.361  12.292  1.5790  1.4633  0.6187
 3785TIP3   OH232845   0.856   2.321   4.370  0.0569  0.3092 -0.1617
 3785TIP3    H132846   0.817   2.385   4.429  0.8244  1.8537 -1.2939
 3785TIP3    H232847   0.949   2.345   4.366 -0.0989  0.6965 -2.5080
 3786TIP3   OH232848   5.393   4.980  11.943  0.6630 -0.2095 -0.0644
 3786TIP3    H132849   5.429   4.911  11.999  1.0066 -1.1279 -1.3996
 3786TIP3    H232850   5.356   4.934  11.868  0.1629  1.0062 -0.5841
 3787TIP3   OH232851   3.457   6.145   3.447  0.4989 -0.2582 -0.2558
 3787TIP3    H132852   3.408   6.204   3.389 -0.9003 -0.5503  0.6034
 3787TIP3    H232853   3.525   6.200   3.485 -0.2286  0.5806 -0.1522
 3788TIP3   OH232854   3.111   0.850   6.997 -0.1404  0.0991 -0.5719
 3788TIP3    H132855   3.078   0.902   7.070  0.7451 -0.6281  0.3637
 3788TIP3    H232856   3.047   0.780   6.988  0.1761 -0.2858  0.0709
 3789TIP3   OH232857   5.232   6.658   4.901 -0.7392  0.2623 -0.2037
 3789TIP3    H132858   5.257   6.568   4.881 -2.3036 -0.8727  2.6256
 3789TIP3    H232859   5.289   6.683   4.974 -1.3682  1.0075  0.0372
 3790TIP3   OH232860   6.700   5.716  15.457  0.2792 -0.3273  0.1251
 3790TIP3    H132861   6.706   5.627  15.421 -0.6684 -0.1063 -0.6132
 3790TIP3    H232862   6.717   5.773  15.382  3.0187  0.1149  1.0475
 3791TIP3   OH232863   0.800   4.744   4.485 -0.2351 -0.1969  0.0299
 3791TIP3    H132864   0.765   4.828   4.457  0.4409  0.1262  0.1448
 3791TIP3    H232865   0.830   4.702   4.405  0.7560  0.2913  0.1372
 3792TIP3   OH232866   4.338   2.529  12.877  0.5535 -0.7479 -0.6197
 3792TIP3    H132867   4.322   2.613  12.919  1.2587 -0.0524 -1.7447
 3792TIP3    H232868   4.340   2.548  12.784  0.1034 -2.1089 -0.9276
 3793TIP3   OH232869   2.236   5.970   5.700 -0.2066 -1.3338  0.3247
 3793TIP3    H132870   2.159   5.991   5.753 -0.8115 -0.8218 -0.7420
 3793TIP3    H232871   2.202   5.950   5.613  0.9228 -0.2500 -0.3915
 3794TIP3   OH232872   5.907   4.431  11.698  0.2225  0.5392 -0.7039
 3794TIP3    H132873   5.871   4.397  11.616 -1.2575  2.5093 -0.9219
 3794TIP3    H232874   5.902   4.358  11.759  0.0384 -0.5397 -1.9866
 3795TIP3   OH232875   6.547   3.693   2.365 -0.4661 -0.3969  0.2051
 3795TIP3    H132876   6.572   3.628   2.430  2.0292  0.2228 -0.1024
 3795TIP3    H232877   6.587   3.774   2.396 -2.5980  0.7783 -0.0159
 3796TIP3   OH232878   0.455   6.352  16.526 -0.0425  0.3986 -0.1118
 3796TIP3    H132879   0.374   6.381  16.568 -0.7431 -1.7746  0.0882
 3796TIP3    H232880   0.500   6.299  16.592  0.9744  0.5999 -0.6203
 3797TIP3   OH232881   5.000   5.444   5.941  0.1673 -0.2193 -0.8876
 3797TIP3    H132882   4.994   5.384   5.867  1.6466 -0.2045 -1.0270
 3797TIP3    H232883   4.970   5.393   6.016  0.2821 -0.7562 -1.2062
 3798TIP3   OH232884   6.178   0.220  12.928 -0.6392  0.2608 -0.4933
 3798TIP3    H132885   6.172   0.125  12.921  0.3571  0.1421  0.1627
 3798TIP3    H232886   6.088   0.249  12.945 -0.7095 -0.6911  0.8450
 3799TIP3   OH232887   0.138   3.035   1.592 -0.2348 -0.0783 -0.7462
 3799TIP3    H132888   0.144   3.008   1.684  1.0660 -0.1814 -0.8498
 3799TIP3    H232889   0.137   2.952   1.543 -0.3129 -0.0092 -0.8612
 3800TIP3   OH232890   2.598   2.674  11.366 -0.1480  0.3358  0.1664
 3800TIP3    H132891   2.589   2.642  11.456  0.2092 -1.6739 -0.4860
 3800TIP3    H232892   2.522   2.637  11.320 -0.1475  1.0735 -0.4245
 3801TIP3   OH232893   0.815   1.747  11.277  0.2978  0.1079 -0.0455
 3801TIP3    H132894   0.853   1.681  11.219  0.6113 -0.7220  1.0940
 3801TIP3    H232895   0.722   1.726  11.281  0.3325 -0.0326  0.0143
 3802TIP3   OH232896   6.433   0.578   2.637  0.5997 -0.2475  0.1664
 3802TIP3    H132897   6.385   0.634   2.699  0.8096 -1.2145  1.2250
 3802TIP3    H232898   6.459   0.502   2.689  2.2032 -0.3253 -0.7153
 3803TIP3   OH232899   4.207   0.548   3.563 -0.3950  0.4612 -0.5690
 3803TIP3    H132900   4.254   0.517   3.640 -0.4260  1.3774 -0.1766
 3803TIP3    H232901   4.148   0.616   3.596  0.4335  1.6978 -1.5513
 3804TIP3   OH232902   0.609   0.440   0.219 -0.3992 -0.5842 -1.0820
 3804TIP3    H132903   0.520   0.447   0.186 -0.6512 -0.2674 -0.3570
 3804TIP3    H232904   0.664   0.431   0.141 -0.8043  1.9416 -1.6882
 3805TIP3   OH232905   6.222   0.330  12.164 -0.0334  0.0555  0.7227
 3805TIP3    H132906   6.263   0.410  12.195  0.1973 -0.0883  0.7903
 3805TIP3    H232907   6.240   0.265  12.232  0.7052 -0.3292  0.1724
 3806TIP3   OH232908   2.469   1.710   3.032  0.1050 -0.0931  0.3568
 3806TIP3    H132909   2.565   1.714   3.041 -0.0625 -0.5751  2.9655
 3806TIP3    H232910   2.454   1.646   2.962  1.6856 -0.6809  0.5192
 3807TIP3   OH232911   5.715   5.439   4.521 -0.0127 -0.4763  0.1554
 3807TIP3    H132912   5.789   5.481   4.478 -0.7256  0.8872  0.2132
 3807TIP3    H232913   5.753   5.370   4.574  1.1059 -0.5221 -0.7036
 3808TIP3   OH232914   0.264   4.900   3.088  0.2959  0.5534  0.4532
 3808TIP3    H132915   0.315   4.831   3.045 -0.4296 -0.7078  1.5547
 3808TIP3    H232916   0.308   4.981   3.064  2.0083 -0.3953  0.2610
 3809TIP3   OH232917   1.290   1.385   1.091 -0.1743 -0.7907 -0.4562
 3809TIP3    H132918   1.260   1.296   1.107 -0.4602 -0.6525 -0.2121
 3809TIP3    H232919   1.377   1.375   1.051  0.0818 -1.1633  0.1890
 3810TIP3   OH232920   4.332   6.343  12.713 -0.9579 -0.2827  0.9114
 3810TIP3    H132921   4.277   6.339  12.635 -1.3396 -0.1212  1.1675
 3810TIP3    H232922   4.393   6.414  12.697 -1.0278 -0.2578  0.7571
 3811TIP3   OH232923   3.239   4.632   1.196  0.2438  0.3970  0.6093
 3811TIP3    H132924   3.239   4.537   1.198 -0.2284  0.4191  1.9643
 3811TIP3    H232925   3.233   4.654   1.103 -0.6771 -0.9050  0.3475
 3812TIP3   OH232926   6.777   4.004  12.383 -0.1115 -0.0975  0.0538
 3812TIP3    H132927   6.845   3.974  12.443 -0.3691 -0.9421 -0.0659
 3812TIP3    H232928   6.822   4.020  12.300 -0.3139 -2.2966 -0.5209
 3813TIP3   OH232929   0.057   0.019  11.484  0.0764 -0.4816  0.4702
 3813TIP3    H132930   0.057   0.054  11.395  1.2693 -0.3548  0.5194
 3813TIP3    H232931   0.107   0.082  11.535 -0.6000 -0.5553  1.2361
 3814TIP3   OH232932   0.036   1.760   2.876 -0.5372  0.3470 -0.3522
 3814TIP3    H132933   0.072   1.760   2.965 -0.0684  1.0795 -0.5400
 3814TIP3    H232934   0.111   1.745   2.820 -0.7548  0.4181 -0.6628
 3815TIP3   OH232935   0.216   0.472  17.107 -0.2783 -0.0880  0.2340
 3815TIP3    H132936   0.275   0.466  17.033 -0.1198 -1.4810  0.4513
 3815TIP3    H232937   0.132   0.440  17.074 -1.0684  2.3541 -0.2081
 3816TIP3   OH232938   1.880   5.716  16.282  0.3410 -0.4882 -0.6296
 3816TIP3    H132939   1.854   5.742  16.194  3.0779  3.2775 -0.4168
 3816TIP3    H232940   1.855   5.789  16.338  1.1509 -1.6338  1.2974
 3817TIP3   OH232941   2.752   5.541   2.275 -0.2465 -0.0304  0.3547
 3817TIP3    H132942   2.735   5.577   2.362  0.6764  0.5338  0.3201
 3817TIP3    H232943   2.823   5.478   2.289  1.8967  2.1472 -0.3974
 3818TIP3   OH232944   2.855   6.388  14.096 -0.1542  0.5721 -0.1942
 3818TIP3    H132945   2.785   6.324  14.109 -0.0243  0.6661  1.0052
 3818TIP3    H232946   2.815   6.456  14.042 -1.1579  0.8779  0.9034
 3819TIP3   OH232947   2.432   0.983   6.608  0.6794 -0.2251 -0.3198
 3819TIP3    H132948   2.388   0.933   6.677  0.3419  1.6330  0.8583
 3819TIP3    H232949   2.509   1.021   6.651  1.0041  0.1364 -1.2121
 3820TIP3   OH232950   5.930   5.048   1.460 -0.9265  0.3073  0.3778
 3820TIP3    H132951   5.837   5.070   1.461 -0.6857  1.2964  1.6820
 3820TIP3    H232952   5.936   4.968   1.511 -0.9071  0.8879  1.2891
 3821TIP3   OH232953   3.991   6.397   1.701  0.9703 -0.2432 -0.0746
 3821TIP3    H132954   4.071   6.422   1.746  3.0456 -2.0899 -2.5518
 3821TIP3    H232955   3.987   6.302   1.710 -0.5369 -0.2555 -0.6591
 3822TIP3   OH232956   6.443   5.045   0.565  0.7675 -0.3293  0.7165
 3822TIP3    H132957   6.359   5.084   0.543  1.4687  1.8123  1.6725
 3822TIP3    H232958   6.426   4.952   0.572 -1.1829 -0.1036 -0.6578
 3823TIP3   OH232959   3.764   0.417  15.633  0.3284 -0.5658 -0.2762
 3823TIP3    H132960   3.857   0.429  15.651 -0.0057  0.5554  0.7317
 3823TIP3    H232961   3.756   0.429  15.539  0.8377  1.7988 -0.0497
 3824TIP3   OH232962   4.841   3.282  15.887 -0.3354 -0.2399  0.3444
 3824TIP3    H132963   4.887   3.353  15.843  0.7289 -0.2583  1.4281
 3824TIP3    H232964   4.877   3.202  15.850 -1.4401 -0.2389 -0.7783
 3825TIP3   OH232965   0.665   1.236   0.553  0.3344  0.1183 -0.0729
 3825TIP3    H132966   0.722   1.313   0.554  1.7140 -0.8399 -1.5708
 3825TIP3    H232967   0.591   1.261   0.498 -0.5751  1.2676  1.6305
 3826TIP3   OH232968   5.079   3.573   4.313  0.0700 -0.0071  0.6906
 3826TIP3    H132969   5.020   3.637   4.273  0.3366  0.9126  1.7272
 3826TIP3    H232970   5.135   3.544   4.242 -0.1320  0.8420  0.1786
 3827TIP3   OH232971   2.455   3.094  16.554  0.0601  0.1245  0.4387
 3827TIP3    H132972   2.536   3.043  16.546 -0.2001 -0.0213 -1.5102
 3827TIP3    H232973   2.479   3.168  16.610  1.3478 -0.2981  0.4597
 3828TIP3   OH232974   5.554   5.930   5.444  0.6383  0.1951 -0.3771
 3828TIP3    H132975   5.507   5.993   5.499  1.3730  2.6327 -2.4203
 3828TIP3    H232976   5.491   5.905   5.377  0.3692 -1.2743  0.3884
 3829TIP3   OH232977   1.345   4.929   4.907 -0.7682 -0.4010 -0.0650
 3829TIP3    H132978   1.260   4.915   4.950 -1.0579  1.3091 -0.0233
 3829TIP3    H232979   1.357   5.024   4.909  0.0746 -0.4425 -2.1447
 3830TIP3   OH232980   2.012   6.801   4.681 -0.3405 -0.5562  0.2864
 3830TIP3    H132981   2.092   6.852   4.698 -0.6578 -0.3714  1.2753
 3830TIP3    H232982   2.016   6.780   4.588 -0.1806  1.2617 -0.1354
 3831TIP3   OH232983   4.554   1.874   3.093  0.1595 -0.3879 -0.2352
 3831TIP3    H132984   4.574   1.917   3.176  1.7944 -1.3774 -0.1082
 3831TIP3    H232985   4.599   1.928   3.027  1.2359 -1.2175 -0.1895
 3832TIP3   OH232986   6.115   2.542  12.525 -0.3016 -0.0831 -0.0585
 3832TIP3    H132987   6.090   2.604  12.456  0.1941 -1.0469 -1.1155
 3832TIP3    H232988   6.166   2.475  12.479  0.1281 -0.6721  1.2706
 3833TIP3   OH232989   5.798   1.888   4.671 -0.3522 -0.6112 -0.0723
 3833TIP3    H132990   5.874   1.936   4.640  0.0347 -0.0205  1.7287
 3833TIP3    H232991   5.723   1.939   4.640 -0.0051 -0.7859 -1.2052
 3834TIP3   OH232992   0.219   3.178   1.030  0.1331 -0.4275 -0.6407
 3834TIP3    H132993   0.159   3.212   1.097 -0.4463 -0.9563 -0.8835
 3834TIP3    H232994   0.289   3.243   1.025 -1.0111  0.7848 -1.1822
 3835TIP3   OH232995   3.194   5.859  14.820  0.4811  0.6158 -0.3879
 3835TIP3    H132996   3.264   5.874  14.883 -0.0404 -0.0031  0.3402
 3835TIP3    H232997   3.120   5.910  14.852  0.3334  0.6097 -0.7084
 3836TIP3   OH232998   4.047   0.298  16.140 -0.0589 -0.0320  0.3061
 3836TIP3    H132999   4.034   0.310  16.046  1.0329 -0.7265  0.0545
 3836TIP3    H233000   3.984   0.230  16.165 -0.9250  0.7356  0.2464
 3837TIP3   OH233001   4.540   1.185  16.590  0.4452  0.0730  0.2451
 3837TIP3    H133002   4.622   1.219  16.554  0.1434  0.1952 -0.3503
 3837TIP3    H233003   4.524   1.236  16.669  1.9294 -1.2536  1.4338
 3838TIP3   OH233004   1.273   0.239  17.173  0.3166  0.0286  0.9614
 3838TIP3    H133005   1.301   0.328  17.156  0.6854 -0.3388 -0.3736
 3838TIP3    H233006   1.225   0.213  17.095  1.6247 -1.5088  0.6314
 3839TIP3   OH233007   3.447   6.428  14.828 -0.0197 -0.4104  0.0495
 3839TIP3    H133008   3.448   6.357  14.892  0.8368 -0.8574 -0.4420
 3839TIP3    H233009   3.430   6.507  14.879 -2.3612 -1.1317  0.4312
 3840TIP3   OH233010   6.706   5.441  15.467 -0.5711 -0.1862 -0.2307
 3840TIP3    H133011   6.792   5.470  15.495 -0.8551  0.4029  0.0243
 3840TIP3    H233012   6.724   5.365  15.411  0.1984  0.8749 -1.4312
 3841TIP3   OH233013   3.265   1.623   3.113  0.3800  0.0969 -0.0493
 3841TIP3    H133014   3.240   1.541   3.070 -1.5714  0.5970  0.0642
 3841TIP3    H233015   3.213   1.625   3.193  0.2865  1.5136 -0.1267
 3842TIP3   OH233016   6.005   2.795   4.625 -0.3719 -0.1264  0.4203
 3842TIP3    H133017   5.917   2.781   4.661 -0.9045 -2.0795 -1.5044
 3842TIP3    H233018   6.064   2.776   4.698 -1.5112  0.4200  1.5106
 3843TIP3   OH233019   4.367   2.119  14.088 -0.3083  0.5902  0.2766
 3843TIP3    H133020   4.365   2.155  14.000 -1.5475 -0.9213 -0.3507
 3843TIP3    H233021   4.456   2.136  14.120  0.8081 -0.6809 -2.0505
 3844TIP3   OH233022   1.350   5.287  12.307 -0.4215 -0.0197 -0.3684
 3844TIP3    H133023   1.324   5.200  12.338 -0.9318  0.0555 -0.5841
 3844TIP3    H233024   1.364   5.337  12.388 -0.2032 -0.2817 -0.2439
 3845TIP3   OH233025   0.131   6.412   5.857 -0.1167  0.2363  0.5656
 3845TIP3    H133026   0.093   6.498   5.874 -0.5776 -0.2702  2.0904
 3845TIP3    H233027   0.072   6.372   5.793 -0.3252  0.7332  0.4433
 3846TIP3   OH233028   6.490   0.978  17.172  0.4352 -0.1880 -0.0641
 3846TIP3    H133029   6.447   0.955  17.089  0.0999  0.4357 -0.0669
 3846TIP3    H233030   6.528   1.064  17.156 -0.2141  0.2327  0.6474
 3847TIP3   OH233031   6.535   5.249  12.326  0.4098  0.3362 -0.4192
 3847TIP3    H133032   6.548   5.305  12.402 -0.2553 -0.9060  0.6158
 3847TIP3    H233033   6.572   5.165  12.351  0.0351 -0.1288 -1.3978
 3848TIP3   OH233034   4.790   4.348   3.574  0.3297  0.2171  0.3626
 3848TIP3    H133035   4.831   4.433   3.554  2.2072 -0.4516  1.2483
 3848TIP3    H233036   4.710   4.348   3.521  1.1185  1.8502 -0.9243
 3849TIP3   OH233037   4.048   0.724   0.364  0.1216 -0.3869  0.8063
 3849TIP3    H133038   4.004   0.809   0.358 -0.4188 -0.6263  1.3819
 3849TIP3    H233039   4.001   0.677   0.432  0.6427 -1.0222  0.7336
 3850TIP3   OH233040   6.142   0.304   2.012 -0.2036 -0.3847 -0.5440
 3850TIP3    H133041   6.174   0.214   2.008 -0.1659 -0.3356 -1.4328
 3850TIP3    H233042   6.213   0.353   2.053  0.4436 -0.4586 -1.5718
 3851TIP3   OH233043   1.686   1.692  11.725  0.4153  0.2799  1.0380
 3851TIP3    H133044   1.649   1.609  11.697  0.2036  1.2973 -1.8977
 3851TIP3    H233045   1.623   1.727  11.788  0.2307 -1.4771  1.8646
 3852TIP3   OH233046   3.695   3.107   1.088 -0.2151 -0.1803 -0.0249
 3852TIP3    H133047   3.729   3.037   1.144 -1.3848  0.2915  1.2933
 3852TIP3    H233048   3.612   3.132   1.128  0.3138  2.1389 -0.3299
 3853TIP3   OH233049   4.869   3.582   5.325  0.1942 -0.0629 -0.1483
 3853TIP3    H133050   4.925   3.578   5.248 -0.1405  1.1833 -0.4610
 3853TIP3    H233051   4.790   3.628   5.296 -0.5572 -0.8730  0.5563
 3854TIP3   OH233052   0.369   6.379   3.671  1.1495 -0.1745  0.0090
 3854TIP3    H133053   0.435   6.331   3.621 -0.3309 -1.1746 -1.0056
 3854TIP3    H233054   0.286   6.356   3.631  0.2402  1.8825  0.6188
 3855TIP3   OH233055   4.394   2.620  15.324 -0.6561  0.1303  0.2206
 3855TIP3    H133056   4.348   2.555  15.271 -0.2195  0.6462 -0.7911
 3855TIP3    H233057   4.439   2.569  15.391  1.3632 -0.7823 -1.7984
 3856TIP3   OH233058   1.280   5.772   0.725  0.4023  0.4638  0.7419
 3856TIP3    H133059   1.215   5.707   0.754  2.5198 -0.4189  3.6728
 3856TIP3    H233060   1.267   5.846   0.784  1.4765  0.6154  0.7900
 3857TIP3   OH233061   4.621   4.764  16.026  0.2315  0.2443 -0.2450
 3857TIP3    H133062   4.550   4.766  15.961  0.3537  0.5595 -0.3734
 3857TIP3    H233063   4.700   4.774  15.974  0.5128 -2.1678 -0.2939
 3858TIP3   OH233064   0.292   5.644  16.937 -0.2610  0.0592 -0.1511
 3858TIP3    H133065   0.276   5.720  16.880 -0.5746  0.1642  0.0718
 3858TIP3    H233066   0.295   5.570  16.877  1.4546  0.4056 -0.5267
 3859TIP3   OH233067   1.342   4.823   4.602  0.0505 -0.1721  0.2513
 3859TIP3    H133068   1.279   4.781   4.544 -0.7034  0.7434  0.3860
 3859TIP3    H233069   1.293   4.841   4.682 -0.2961  2.9189 -0.5895
 3860TIP3   OH233070   1.391   6.052   3.427  0.2466  0.2707  0.0619
 3860TIP3    H133071   1.324   6.118   3.406  1.5108  0.7572 -2.7815
 3860TIP3    H233072   1.369   5.978   3.370  0.8699 -0.4033  0.6958
 3861TIP3   OH233073   1.443   6.336  11.075 -0.3019  0.5253  0.3815
 3861TIP3    H133074   1.477   6.381  10.997 -0.2828 -3.0282 -1.7375
 3861TIP3    H233075   1.354   6.371  11.085 -0.0637  1.5138 -0.7909
 3862TIP3   OH233076   3.046   6.501  12.492 -0.1255 -0.7482 -0.6179
 3862TIP3    H133077   3.078   6.436  12.429 -1.1553 -1.1063 -0.7763
 3862TIP3    H233078   3.123   6.525  12.543  0.2612 -2.0914 -0.5581
 3863TIP3   OH233079   0.678   5.480   1.389 -0.5466 -0.1061 -0.2846
 3863TIP3    H133080   0.690   5.530   1.309  0.6814  1.0878  0.6360
 3863TIP3    H233081   0.673   5.389   1.360  0.9117  0.2295 -1.6309
 3864TIP3   OH233082   2.168   4.113   2.761 -0.2402 -0.0316  0.0767
 3864TIP3    H133083   2.115   4.041   2.726 -0.4186 -0.4759  1.2336
 3864TIP3    H233084   2.126   4.135   2.844  1.7256 -0.7982  1.3023
 3865TIP3   OH233085   4.435   5.549   1.148  0.4249 -0.1936  0.0990
 3865TIP3    H133086   4.379   5.506   1.212  0.2072  0.4117  0.3163
 3865TIP3    H233087   4.378   5.566   1.073  0.0464  1.3143  0.6972
 3866TIP3   OH233088   5.365   5.459   1.828  0.2535 -0.1062  0.7858
 3866TIP3    H133089   5.375   5.484   1.736  0.4305  1.3576  1.1907
 3866TIP3    H233090   5.452   5.430   1.855  0.3426  0.0229  0.6390
 3867TIP3   OH233091   1.395   6.469   2.138  0.1436  0.3936  0.1500
 3867TIP3    H133092   1.415   6.543   2.195  1.4785 -0.5169  0.8829
 3867TIP3    H233093   1.481   6.438   2.108 -0.5395  1.1973 -2.7930
 3868TIP3   OH233094   5.286   2.373  16.775  0.2693 -0.6625  0.3336
 3868TIP3    H133095   5.253   2.382  16.864  0.2995  0.5293  0.2422
 3868TIP3    H233096   5.211   2.343  16.724  0.2214 -1.2321  0.7456
 3869TIP3   OH233097   1.898   3.871   5.085  0.1982 -0.2942  0.3122
 3869TIP3    H133098   1.851   3.844   5.006 -1.7958  1.2157  0.9495
 3869TIP3    H233099   1.829   3.890   5.148  1.7148  0.9320  1.6297
 3870TIP3   OH233100   2.481   3.857  15.423  0.2490 -0.0519  0.4455
 3870TIP3    H133101   2.415   3.797  15.389  0.5075 -1.4532  2.3647
 3870TIP3    H233102   2.538   3.874  15.348  1.2786 -3.7092  0.3039
 3871TIP3   OH233103   0.954   6.118   6.342  0.4464 -0.9009 -0.4884
 3871TIP3    H133104   0.972   6.209   6.319  2.7380 -0.4085  2.8757
 3871TIP3    H233105   1.037   6.072   6.327 -0.3547 -2.2058 -1.0426
 3872TIP3   OH233106   2.354   2.230   0.946  0.3225  0.0832 -0.1444
 3872TIP3    H133107   2.421   2.205   0.882 -0.3796  0.1861 -0.9404
 3872TIP3    H233108   2.401   2.281   1.012  0.5266  2.9258 -2.3655
 3873TIP3   OH233109   6.722   6.365   4.798 -0.8527  0.1268 -0.3647
 3873TIP3    H133110   6.769   6.361   4.715 -0.3267  0.3259 -0.0738
 3873TIP3    H233111   6.780   6.413   4.857 -0.8311 -0.8083  0.3834
 3874TIP3   OH233112   5.509   3.295  13.423  0.6016 -0.5744  0.3029
 3874TIP3    H133113   5.554   3.258  13.347 -0.0562  1.6763 -1.2197
 3874TIP3    H233114   5.579   3.338  13.473  0.8786 -1.2399  0.5016
 3875TIP3   OH233115   1.291   1.153  14.624 -0.5585 -0.0471  0.4467
 3875TIP3    H133116   1.233   1.083  14.595 -1.1680  0.1582  1.1417
 3875TIP3    H233117   1.268   1.228  14.568 -1.6916  0.3322  1.3854
 3876TIP3   OH233118   3.202   6.306  15.415  0.1822  0.1349 -0.0706
 3876TIP3    H133119   3.198   6.237  15.481 -0.5475 -0.0985 -0.3522
 3876TIP3    H233120   3.206   6.259  15.332  3.1196  0.3998 -0.1303
 3877TIP3   OH233121   2.022   1.392  15.804 -0.1214 -0.1529  0.0594
 3877TIP3    H133122   1.936   1.426  15.828  0.6250  1.4731  0.5210
 3877TIP3    H233123   2.051   1.344  15.881  0.3733  1.3038  0.8051
 3878TIP3   OH233124   2.773   2.953  12.887  0.5200  0.2518  0.5287
 3878TIP3    H133125   2.748   3.002  12.808  0.4352  0.3074  0.5918
 3878TIP3    H233126   2.863   2.981  12.905  0.0278  1.3447  1.3085
 3879TIP3   OH233127   1.873   0.725   4.586 -0.5134 -0.6103 -0.0583
 3879TIP3    H133128   1.797   0.782   4.602 -1.1459 -1.3492 -0.3756
 3879TIP3    H233129   1.840   0.636   4.602  0.3909 -0.9081  0.1723
 3880TIP3   OH233130   6.518   1.121   4.278 -0.5912  0.9100 -0.2281
 3880TIP3    H133131   6.478   1.034   4.280 -0.3454  0.7953 -0.3523
 3880TIP3    H233132   6.609   1.106   4.253 -0.3929  1.1492  0.3561
 3881TIP3   OH233133   5.445   2.792  15.958 -0.2373  0.1290 -0.3092
 3881TIP3    H133134   5.494   2.723  16.004  3.0349  0.7585 -2.6161
 3881TIP3    H233135   5.372   2.746  15.916  0.2953 -1.4871  0.4830
 3882TIP3   OH233136   3.588   1.017   2.009  0.0398  0.0795 -0.6463
 3882TIP3    H133137   3.624   0.928   2.005  0.1799 -0.0130  1.8362
 3882TIP3    H233138   3.648   1.065   2.067 -1.4742  1.0793  0.1203
 3883TIP3   OH233139   3.542   2.972  11.346 -0.0075 -0.3940 -0.6791
 3883TIP3    H133140   3.612   3.000  11.404  0.6855 -0.1798 -1.6065
 3883TIP3    H233141   3.469   3.031  11.366 -0.4393 -1.5558  1.3178
 3884TIP3   OH233142   2.090   2.399   6.245  0.1055  0.2918  0.1947
 3884TIP3    H133143   2.118   2.343   6.317 -1.2364  1.3680  1.5857
 3884TIP3    H233144   2.070   2.484   6.286  0.3661  1.2545 -1.5975
 3885TIP3   OH233145   5.438   4.055   4.288 -0.4160  0.7993  0.4109
 3885TIP3    H133146   5.434   3.983   4.225 -0.6288  0.4818  0.7879
 3885TIP3    H233147   5.528   4.053   4.321 -0.7877 -0.1375  1.4019
 3886TIP3   OH233148   4.827   1.566   1.451 -0.5173  0.2930  0.4452
 3886TIP3    H133149   4.735   1.578   1.475 -0.7463  1.4534 -0.8894
 3886TIP3    H233150   4.874   1.570   1.534 -1.3810  3.0556  0.8748
 3887TIP3   OH233151   5.494   4.620  11.396  0.5187  0.1902  0.2704
 3887TIP3    H133152   5.489   4.715  11.388  0.1829  0.2303  0.9052
 3887TIP3    H233153   5.412   4.595  11.438  0.2132 -0.4766 -0.7127
 3888TIP3   OH233154   1.207   0.250   4.507  0.6100 -0.0488 -0.1818
 3888TIP3    H133155   1.287   0.291   4.540  0.3458  0.3891 -0.0763
 3888TIP3    H233156   1.206   0.164   4.548 -0.8484  1.2998  2.7797
 3889TIP3   OH233157   5.673   4.181   0.229 -0.1397  0.3894 -0.8470
 3889TIP3    H133158   5.616   4.163   0.304 -1.2378  2.3348 -1.1807
 3889TIP3    H233159   5.758   4.203   0.269 -0.4650  0.5044 -0.2155
 3890TIP3   OH233160   2.343   0.864   3.462 -0.6523  0.1739 -0.0509
 3890TIP3    H133161   2.401   0.931   3.426 -0.3819 -0.8107 -1.4754
 3890TIP3    H233162   2.364   0.862   3.556 -0.1983  1.5953 -0.1074
 3891TIP3   OH233163   1.748   1.974  12.730 -0.2989  0.0450  0.3401
 3891TIP3    H133164   1.754   1.909  12.660 -0.2638  2.1991 -1.7164
 3891TIP3    H233165   1.839   1.995  12.753 -0.2631 -2.9115  3.2772
 3892TIP3   OH233166   2.029   0.597  12.332 -0.0046  0.2454  0.1278
 3892TIP3    H133167   2.098   0.641  12.381  2.7142 -2.8810 -0.7707
 3892TIP3    H233168   2.052   0.609  12.240  1.1077 -3.3527 -0.1439
 3893TIP3   OH233169   5.843   4.507   0.187 -0.4989 -0.3307  0.1711
 3893TIP3    H133170   5.759   4.537   0.152 -1.6300  0.8701  3.6429
 3893TIP3    H233171   5.902   4.581   0.173 -0.2367 -0.8253 -1.4411
 3894TIP3   OH233172   1.764   5.477  11.572 -0.5642  0.0615 -0.0072
 3894TIP3    H133173   1.857   5.489  11.589 -0.6031 -1.3995  1.2706
 3894TIP3    H233174   1.754   5.493  11.478  0.8710  0.7585 -0.0438
 3895TIP3   OH233175   1.980   4.217  13.216  0.4032  0.2118  0.4202
 3895TIP3    H133176   2.004   4.306  13.188 -1.1827  0.6490  0.4035
 3895TIP3    H233177   1.943   4.176  13.138 -0.1929  0.0205  0.7984
 3896TIP3   OH233178   1.298   5.520  11.922  0.4400  0.3959 -0.4755
 3896TIP3    H133179   1.377   5.570  11.899 -0.0213  1.4928  0.2569
 3896TIP3    H233180   1.226   5.582  11.912 -0.2155 -0.2951 -0.1166
 3897TIP3   OH233181   0.540   1.701  13.629  0.0130  0.3361 -0.1426
 3897TIP3    H133182   0.452   1.670  13.650 -0.6824  1.9888 -0.5254
 3897TIP3    H233183   0.534   1.796  13.637  2.2350  0.3608  1.6008
 3898TIP3   OH233184   0.859   0.896  13.399  0.2261  0.7567 -0.2744
 3898TIP3    H133185   0.926   0.914  13.333  2.0629 -0.8829  1.0912
 3898TIP3    H233186   0.812   0.819  13.366  0.5202  0.5113 -0.1169
 3899TIP3   OH233187   3.713   1.099  12.761 -0.0951 -0.3669 -0.8000
 3899TIP3    H133188   3.759   1.038  12.704  0.8065 -0.7105  0.2717
 3899TIP3    H233189   3.669   1.160  12.702  1.2543 -0.4020 -1.8451
 3900TIP3   OH233190   1.194   3.942  14.076  0.0199  0.9356  0.1976
 3900TIP3    H133191   1.264   4.000  14.045  1.8424 -1.1202  0.3924
 3900TIP3    H233192   1.233   3.895  14.150 -1.1027 -1.2178 -0.5480
 3901TIP3   OH233193   3.256   3.818  12.125  0.4221 -0.2012 -0.0834
 3901TIP3    H133194   3.215   3.903  12.135  0.9010 -0.0894  0.9497
 3901TIP3    H233195   3.328   3.833  12.063 -0.5962 -0.2333 -1.2732
 3902TIP3   OH233196   0.751   6.566  15.849 -0.3342 -0.0032  0.0604
 3902TIP3    H133197   0.676   6.575  15.789 -0.0821 -1.2708 -0.4646
 3902TIP3    H233198   0.723   6.500  15.912  0.9120 -1.6495 -1.0724
 3903TIP3   OH233199   4.853   5.926  16.479  0.3101  0.0578  0.5697
 3903TIP3    H133200   4.904   5.861  16.430  3.2444  1.0838  2.1874
 3903TIP3    H233201   4.881   6.010  16.443 -3.4806  0.5491 -1.5118
 3904TIP3   OH233202   2.291   0.416   6.456 -0.3650 -0.0926  0.5210
 3904TIP3    H133203   2.361   0.380   6.510 -0.4735 -2.4911 -0.8946
 3904TIP3    H233204   2.220   0.432   6.518  0.2788 -0.7256  1.4476
 3905TIP3   OH233205   1.365   5.650   0.109 -0.0474 -0.6145  0.1235
 3905TIP3    H133206   1.275   5.673   0.134 -0.3147 -0.1374 -1.2435
 3905TIP3    H233207   1.375   5.684   0.020  0.8195 -2.4052 -0.4936
 3906TIP3   OH233208   4.302   4.492  15.048  0.0795 -0.0818 -0.1918
 3906TIP3    H133209   4.214   4.475  15.083  0.4285  1.4159  1.4511
 3906TIP3    H233210   4.325   4.410  15.004 -2.2124 -0.4372 -0.8344
 3907TIP3   OH233211   0.410   4.024  14.151  0.1668 -0.3733 -0.0172
 3907TIP3    H133212   0.344   4.034  14.083 -1.4200 -1.0998  1.3877
 3907TIP3    H233213   0.491   4.056  14.111 -0.8224 -0.4051 -2.0874
 3908TIP3   OH233214   5.924   5.309  10.826 -0.2317  0.1150  0.5916
 3908TIP3    H133215   5.998   5.338  10.879  0.4903  1.3512 -1.0632
 3908TIP3    H233216   5.959   5.239  10.771 -0.2457  0.8096 -0.3068
 3909TIP3   OH233217   2.171   4.701  15.895  0.1269  0.1280  0.2765
 3909TIP3    H133218   2.235   4.709  15.824  0.2860 -0.2055  0.3823
 3909TIP3    H233219   2.092   4.667  15.852 -0.2029  1.1783  0.0230
 3910TIP3   OH233220   2.736   1.731  15.192 -0.2853 -0.2805  0.6083
 3910TIP3    H133221   2.812   1.673  15.204  1.0338  1.3309  0.1191
 3910TIP3    H233222   2.771   1.819  15.198 -1.9892  0.5051 -0.5053
 3911TIP3   OH233223   1.350   6.026  11.968 -0.2766  0.9462  0.5145
 3911TIP3    H133224   1.431   5.981  11.944 -1.3624  0.5757 -2.6480
 3911TIP3    H233225   1.379   6.107  12.009  1.7436  1.7187 -2.2946
 3912TIP3   OH233226   4.049   3.609   5.453  0.0275 -0.2232 -0.4347
 3912TIP3    H133227   3.980   3.622   5.517  0.0411 -0.4821 -0.3647
 3912TIP3    H233228   4.097   3.692   5.452  0.5222 -0.4874  0.4877
 3913TIP3   OH233229   6.253   1.983   2.025 -0.1335  0.0352  0.3340
 3913TIP3    H133230   6.176   2.024   2.064 -0.5871 -0.5115  0.0298
 3913TIP3    H233231   6.324   2.047   2.037 -0.5269  0.3442  1.0245
 3914TIP3   OH233232   2.947   6.083   3.668  0.3587  0.1672 -0.3723
 3914TIP3    H133233   3.008   6.148   3.703  2.5418 -0.8090 -2.2161
 3914TIP3    H233234   2.892   6.059   3.742  3.0703  0.1446  1.6982
 3915TIP3   OH233235   3.728   0.378  15.020  0.6222  0.2640  0.4462
 3915TIP3    H133236   3.663   0.425  14.968  0.9617  3.1557  2.5446
 3915TIP3    H233237   3.812   0.399  14.979  0.5605 -0.7491 -0.2290
 3916TIP3   OH233238   0.069   4.010   5.769  0.7320  0.2104 -0.0528
 3916TIP3    H133239   0.118   4.085   5.804  1.4620 -0.1953 -0.1904
 3916TIP3    H233240   0.065   3.948   5.842 -1.8994  1.3073  0.8235
 3917TIP3   OH233241   2.488   4.373   6.024  0.0650 -0.4156  0.7930
 3917TIP3    H133242   2.436   4.439   6.071  1.1397  0.9612  0.0781
 3917TIP3    H233243   2.568   4.365   6.075 -0.2365 -1.4866  1.1035
 3918TIP3   OH233244   2.486   3.510   1.005  0.1348 -0.1211 -0.6594
 3918TIP3    H133245   2.454   3.505   0.915 -3.4924 -0.5773  0.5920
 3918TIP3    H233246   2.509   3.602   1.018  1.7054 -0.2417 -2.3315
 3919TIP3   OH233247   5.898   6.554  14.253 -0.7007  0.3685 -0.3750
 3919TIP3    H133248   5.964   6.542  14.184  0.6443 -1.6762  1.2072
 3919TIP3    H233249   5.908   6.645  14.281  1.9865 -0.1099  0.3544
 3920TIP3   OH233250   1.473   3.132   3.172  0.0921 -0.6933  0.8734
 3920TIP3    H133251   1.436   3.212   3.208 -1.8921 -1.5174  0.7184
 3920TIP3    H233252   1.562   3.129   3.207 -0.2541  0.9044  1.9276
 3921TIP3   OH233253   0.506   4.226   6.310  0.4161  0.8476  0.5819
 3921TIP3    H133254   0.432   4.179   6.271  2.2490 -0.2956 -1.6735
 3921TIP3    H233255   0.466   4.296   6.361 -2.3083 -1.2433  1.4780
 3922TIP3   OH233256   4.931   3.908   5.085  0.4535 -0.3759 -0.1293
 3922TIP3    H133257   4.986   3.833   5.104  1.6760  0.7803  0.9511
 3922TIP3    H233258   4.970   3.947   5.006  0.7732  0.0451  0.2363
 3923TIP3   OH233259   2.873   2.012   5.674  0.2577 -0.0137  0.3868
 3923TIP3    H133260   2.956   1.967   5.660 -0.5472 -1.5589  0.5521
 3923TIP3    H233261   2.846   1.988   5.762 -1.6746 -1.7004 -0.6258
 3924TIP3   OH233262   0.229   6.088  15.239 -0.1415 -0.3911 -0.6824
 3924TIP3    H133263   0.151   6.097  15.184  0.3110  0.9319 -1.1375
 3924TIP3    H233264   0.197   6.099  15.329 -0.4629  0.3423 -0.8835
 3925TIP3   OH233265   0.167   5.952  16.069 -0.2060  0.1036 -0.2943
 3925TIP3    H133266   0.228   6.025  16.081  0.7822 -0.8193  0.3447
 3925TIP3    H233267   0.083   5.985  16.101  0.1183  1.1399 -0.5104
 3926TIP3   OH233268   3.810   6.721   5.918 -0.1447 -0.1465  0.4419
 3926TIP3    H133269   3.868   6.660   5.965 -0.2025 -0.0155  0.6838
 3926TIP3    H233270   3.727   6.716   5.965 -1.6381 -3.3929 -2.2963
 3927TIP3   OH233271   0.426   2.196  13.860  0.3212  0.2430 -0.1404
 3927TIP3    H133272   0.495   2.141  13.823  1.3570  0.2149  1.8024
 3927TIP3    H233273   0.432   2.183  13.954 -0.9141  1.9339  0.2000
 3928TIP3   OH233274   2.256   1.087  16.292 -0.2909 -0.2880 -0.2311
 3928TIP3    H133275   2.317   1.049  16.355 -0.5741  1.0401  0.8704
 3928TIP3    H233276   2.210   1.156  16.341 -1.1131  0.2089 -1.6549
 3929TIP3   OH233277   2.448   4.661  14.901 -0.5805  0.4300  0.1980
 3929TIP3    H133278   2.521   4.713  14.867 -0.4244  0.1178  0.0584
 3929TIP3    H233279   2.405   4.719  14.964  1.3724 -0.3295  2.2572
 3930TIP3   OH233280   2.731   3.621  12.872  0.7291 -0.3825 -0.8293
 3930TIP3    H133281   2.705   3.536  12.834 -0.3491 -1.3444  1.9783
 3930TIP3    H233282   2.709   3.685  12.804 -0.1495 -2.1639 -2.2725
 3931TIP3   OH233283   4.184   0.788  11.742  0.2531  0.1630  1.2195
 3931TIP3    H133284   4.253   0.845  11.707  0.3672 -2.0195 -2.4903
 3931TIP3    H233285   4.103   0.837  11.729  0.6041  0.5509  0.4225
 3932TIP3   OH233286   5.139   6.058   1.205 -0.1307  0.4461  0.1333
 3932TIP3    H133287   5.070   6.119   1.232  0.7930  0.6513  2.1141
 3932TIP3    H233288   5.091   5.983   1.169 -1.4324  0.3518  1.9770
 3933TIP3   OH233289   3.420   6.173  14.931  0.5794 -0.6426  0.3202
 3933TIP3    H133290   3.350   6.109  14.936  0.1661 -0.4178 -2.0978
 3933TIP3    H233291   3.481   6.137  14.867  1.0008  0.7454 -0.0844
 3934TIP3   OH233292   3.966   0.881   2.069  0.2826  0.1935 -0.2013
 3934TIP3    H133293   4.017   0.924   2.000 -0.3703 -1.3392 -1.6900
 3934TIP3    H233294   3.880   0.866   2.029  0.4951 -2.4850  0.2343
 3935TIP3   OH233295   2.819   3.143   5.964  0.5673  0.3035  0.6961
 3935TIP3    H133296   2.787   3.075   6.023  0.2133  1.2448  1.5977
 3935TIP3    H233297   2.864   3.206   6.021  1.6305  0.4012 -0.2247
 3936TIP3   OH233298   1.462   0.223   4.969  0.0680 -0.0104  0.0938
 3936TIP3    H133299   1.496   0.311   4.985  2.9726 -1.3846  1.9452
 3936TIP3    H233300   1.370   0.227   4.995  0.9535  1.7059  3.1731
 3937TIP3   OH233301   5.348   4.240  13.641 -0.3508  0.0700  0.3979
 3937TIP3    H133302   5.337   4.292  13.720 -0.2314 -0.6995  0.9291
 3937TIP3    H233303   5.279   4.174  13.646 -0.9485  0.6001 -0.6212
 3938TIP3   OH233304   5.275   3.744   4.912  0.2128 -0.0228 -0.0491
 3938TIP3    H133305   5.224   3.803   4.856 -1.6961 -2.4696 -0.9826
 3938TIP3    H233306   5.367   3.765   4.892 -0.4398  1.4119 -1.6428
 3939TIP3   OH233307   5.357   4.687  13.428 -0.0532  0.4748 -0.3474
 3939TIP3    H133308   5.321   4.606  13.465  2.1523 -0.5709 -0.3893
 3939TIP3    H233309   5.300   4.707  13.354 -0.5353 -1.1451 -0.4371
 3940TIP3   OH233310   1.426   1.347   6.328  0.0581 -0.3930 -0.3565
 3940TIP3    H133311   1.430   1.257   6.358  0.0617 -0.5100 -0.6990
 3940TIP3    H233312   1.381   1.342   6.243 -0.2019 -0.0399 -0.2416
 3941TIP3   OH233313   5.841   0.953  13.300  0.0335 -0.2880  0.4056
 3941TIP3    H133314   5.857   0.878  13.357 -1.0853 -0.8568  0.0075
 3941TIP3    H233315   5.745   0.960  13.297  0.1392  1.8883  1.3724
 3942TIP3   OH233316   1.988   1.055   2.502 -0.1863 -0.2307  0.1107
 3942TIP3    H133317   2.026   1.039   2.416 -1.7740 -0.9982 -0.4653
 3942TIP3    H233318   1.895   1.067   2.485 -0.3658  0.5988  1.6116
 3943TIP3   OH233319   3.422   3.232   0.025 -0.5696  0.5336  0.3999
 3943TIP3    H133320   3.391   3.318  -0.001 -0.8810  0.4455  0.4673
 3943TIP3    H233321   3.487   3.208  -0.041 -1.3656  0.2996 -0.3114
 3944TIP3   OH233322   6.532   3.945   3.608  0.5796  0.2786 -0.1510
 3944TIP3    H133323   6.480   3.976   3.682  1.6221  0.1496  0.6440
 3944TIP3    H233324   6.511   4.006   3.537 -2.0202 -0.8137 -0.3875
 3945TIP3   OH233325   0.311   1.378   4.961  0.0551  0.2592  0.0496
 3945TIP3    H133326   0.341   1.391   4.871 -2.0723 -0.8687 -0.8518
 3945TIP3    H233327   0.270   1.461   4.985 -0.5725  0.1171 -0.5141
 3946TIP3   OH233328   4.260   6.620  13.588 -0.6475 -0.7466 -0.1027
 3946TIP3    H133329   4.279   6.697  13.533  0.6497 -0.8183  0.2127
 3946TIP3    H233330   4.166   6.607  13.580 -0.7784  0.4761 -0.6993
 3947TIP3   OH233331   2.453   1.826  14.247 -0.0076  0.5085 -0.2743
 3947TIP3    H133332   2.458   1.913  14.208  1.0789  0.8594  0.6196
 3947TIP3    H233333   2.528   1.779  14.212  2.3046  1.5343  2.9927
 3948TIP3   OH233334   2.160   2.434  15.502  0.0664 -0.4303 -0.3132
 3948TIP3    H133335   2.208   2.462  15.424 -1.5632 -1.4598 -1.7231
 3948TIP3    H233336   2.224   2.383  15.552  1.2112  0.4715 -0.8243
 3949TIP3   OH233337   2.071   0.139  16.758  0.2351  0.0428 -0.3162
 3949TIP3    H133338   2.085   0.198  16.684  0.0845  0.1368 -0.2714
 3949TIP3    H233339   2.123   0.062  16.737  4.9050  2.3258  2.1706
 3950TIP3   OH233340   0.863   3.161  12.661 -0.6009 -0.3900 -0.1466
 3950TIP3    H133341   0.820   3.075  12.656 -1.8334  0.2305 -0.3196
 3950TIP3    H233342   0.906   3.171  12.576  0.9427 -1.5361  0.4592
 3951TIP3   OH233343   5.639   5.652  15.693 -0.1530  0.4293  0.1872
 3951TIP3    H133344   5.719   5.658  15.745  0.5422 -1.5037 -0.6115
 3951TIP3    H233345   5.662   5.689  15.608 -0.7572  1.8918  0.6489
 3952TIP3   OH233346   3.820   5.573  15.418  0.2722 -0.4043  0.1692
 3952TIP3    H133347   3.774   5.654  15.438  0.1701 -0.4215  0.0100
 3952TIP3    H233348   3.913   5.594  15.429  0.1317 -0.9256  2.4942
 3953TIP3   OH233349   2.648   6.467   1.604 -0.1805 -0.1096 -0.2829
 3953TIP3    H133350   2.558   6.485   1.632 -0.6177 -1.9000 -0.5241
 3953TIP3    H233351   2.702   6.511   1.670 -1.2242  0.1377  0.4319
 3954TIP3   OH233352   1.277   5.404   1.000  0.0576  0.0844 -0.4046
 3954TIP3    H133353   1.240   5.364   1.080 -1.3840  1.8615 -0.1462
 3954TIP3    H233354   1.264   5.337   0.933 -1.9423 -0.0887  0.1054
 3955TIP3   OH233355   3.793   1.797  16.685  0.0695  0.2256 -0.3624
 3955TIP3    H133356   3.748   1.755  16.611 -0.3583  0.5965 -0.3131
 3955TIP3    H233357   3.866   1.738  16.705  0.6510  0.5271 -1.5897
 3956TIP3   OH233358   1.448   6.487  13.702  0.3016 -0.0850 -0.5904
 3956TIP3    H133359   1.402   6.438  13.771 -0.5101  0.1006 -1.0051
 3956TIP3    H233360   1.541   6.477  13.725  0.0787 -0.7088  0.0762
 3957TIP3   OH233361   3.812   2.404   1.101  0.2950 -0.7729 -0.1411
 3957TIP3    H133362   3.897   2.442   1.077  0.7573  0.0595  2.6750
 3957TIP3    H233363   3.780   2.460   1.171 -2.8398 -0.7917 -1.4651
 3958TIP3   OH233364   4.281   6.281  16.039  0.6216  0.0019  0.2771
 3958TIP3    H133365   4.256   6.211  16.101  0.7226  1.1182  1.5966
 3958TIP3    H233366   4.376   6.288  16.049  0.5757  0.5073  0.3384
 3959TIP3   OH233367   2.197   0.848   2.330  0.5126 -0.3553  0.2132
 3959TIP3    H133368   2.289   0.837   2.306  1.2311  1.5587  1.9605
 3959TIP3    H233369   2.164   0.915   2.271  0.5355 -0.2871  0.2770
 3960TIP3   OH233370   1.821   3.554  14.456  1.0197 -0.1530  0.6930
 3960TIP3    H133371   1.855   3.617  14.392  0.0896 -0.5495 -0.2031
 3960TIP3    H233372   1.749   3.600  14.498  2.0000  0.3240  1.8981
 3961TIP3   OH233373   4.583   0.318   2.594  0.2330 -0.1735 -0.3019
 3961TIP3    H133374   4.502   0.274   2.568 -0.2714 -0.0753  1.0574
 3961TIP3    H233375   4.583   0.314   2.690  0.7486  1.7765 -0.2087
 3962TIP3   OH233376   5.533   2.475  14.738 -0.3003  0.6561  0.0693
 3962TIP3    H133377   5.572   2.560  14.719  0.7412  0.2473  0.3083
 3962TIP3    H233378   5.471   2.460  14.667 -1.2870  2.1025  0.6098
 3963TIP3   OH233379   3.187   2.230  14.251  0.5013 -0.0195 -0.2318
 3963TIP3    H133380   3.168   2.181  14.172  1.2724  1.9854 -1.7152
 3963TIP3    H233381   3.119   2.298  14.253 -0.4175 -0.9490  1.6599
 3964TIP3   OH233382   2.610   4.971  17.258 -0.4564  0.2696  0.0509
 3964TIP3    H133383   2.584   5.056  17.222 -0.0116 -0.1476 -1.2762
 3964TIP3    H233384   2.542   4.950  17.322 -1.5093  0.7962 -0.8806
 3965TIP3   OH233385   4.363   0.373   3.768 -0.2089 -0.2440  0.1370
 3965TIP3    H133386   4.405   0.418   3.842  2.0139 -3.4299  0.8765
 3965TIP3    H233387   4.419   0.392   3.693  0.0737 -0.7662  0.2121
 3966TIP3   OH233388   2.461   3.649   3.535  0.2975 -0.1138 -0.1936
 3966TIP3    H133389   2.490   3.667   3.624 -1.5963 -1.4324  0.7246
 3966TIP3    H233390   2.425   3.732   3.503  1.0154  0.3657  0.2631
 3967TIP3   OH233391   5.674   1.166  16.304  0.0564 -0.0148 -0.3503
 3967TIP3    H133392   5.756   1.143  16.346 -0.7706 -1.9728  0.2217
 3967TIP3    H233393   5.688   1.148  16.211  0.2286 -0.5077 -0.2330
 3968TIP3   OH233394   0.634   5.901   4.037 -0.4868 -0.1894  0.3667
 3968TIP3    H133395   0.701   5.963   4.065 -0.3987 -0.9183  1.8398
 3968TIP3    H233396   0.583   5.948   3.971  2.0981  0.0244 -1.5649
 3969TIP3   OH233397   0.966   3.247  13.413  0.7475 -0.0551 -0.2457
 3969TIP3    H133398   0.911   3.320  13.442 -0.4160 -0.0583 -2.3228
 3969TIP3    H233399   1.046   3.288  13.380  1.2653  0.0726  1.1414
 3970TIP3   OH233400   0.253   4.763  11.730  0.1532  0.1626 -0.3456
 3970TIP3    H133401   0.168   4.770  11.773 -0.8235 -2.3154 -1.7566
 3970TIP3    H233402   0.257   4.839  11.672 -1.1101  0.2595 -0.3095
 3971TIP3   OH233403   0.287   2.782  13.801  0.0637  0.2265 -0.3720
 3971TIP3    H133404   0.360   2.745  13.752 -0.7304 -2.0437  0.0893
 3971TIP3    H233405   0.303   2.756  13.892 -1.5796 -0.7926 -0.3386
 3972TIP3   OH233406   1.811   1.591  13.753 -0.8118 -0.1849 -0.0780
 3972TIP3    H133407   1.740   1.656  13.755 -0.0395  0.7099 -0.7529
 3972TIP3    H233408   1.876   1.626  13.814  0.2758  0.4882 -1.5954
 3973TIP3   OH233409   1.902   5.695   1.657 -0.1688 -0.2419 -0.0685
 3973TIP3    H133410   1.843   5.675   1.729 -1.4244  2.9837 -0.0850
 3973TIP3    H233411   1.986   5.714   1.698 -0.8419  1.4303  0.5913
 3974TIP3   OH233412   0.304   6.681   4.917  0.1412  0.4646 -0.7982
 3974TIP3    H133413   0.398   6.686   4.903  0.4051  3.6350  1.6362
 3974TIP3    H233414   0.290   6.599   4.964  1.6457 -0.1577 -1.4405
 3975TIP3   OH233415   2.081   2.209  16.203 -0.2918  0.4321 -0.3965
 3975TIP3    H133416   2.053   2.214  16.294 -1.0201 -1.0716 -0.5187
 3975TIP3    H233417   2.149   2.275  16.195 -0.4768  0.8252  1.1487
 3976TIP3   OH233418   4.299   1.295  14.911 -0.3005  0.4866 -0.2734
 3976TIP3    H133419   4.243   1.227  14.948 -1.5292  1.2161 -0.7828
 3976TIP3    H233420   4.330   1.258  14.828  0.9427 -0.3847  0.5486
 3977TIP3   OH233421   0.809   1.046  15.822  0.3186 -0.0624  0.1795
 3977TIP3    H133422   0.767   0.993  15.890 -0.6975 -1.8093 -1.7497
 3977TIP3    H233423   0.858   0.982  15.770  3.1508  1.5882  0.7309
 3978TIP3   OH233424   2.610   2.113   1.753 -0.0324 -0.5007 -0.5805
 3978TIP3    H133425   2.595   2.093   1.660 -0.2131  1.8347 -1.0854
 3978TIP3    H233426   2.682   2.177   1.752  1.3506 -2.0017  1.0337
 3979TIP3   OH233427   6.377   2.934   6.367 -0.3642  0.0916 -0.1430
 3979TIP3    H133428   6.318   2.864   6.396  1.7871 -1.1308  1.3975
 3979TIP3    H233429   6.395   2.914   6.276 -0.8162 -0.6116 -0.0812
 3980TIP3   OH233430   0.411   6.574   5.275  0.1359 -0.2814  0.2882
 3980TIP3    H133431   0.367   6.547   5.356 -0.1138 -2.1178 -0.4382
 3980TIP3    H233432   0.353   6.544   5.205  0.6455  0.7618 -0.5963
 3981TIP3   OH233433   4.551   0.909  16.441 -0.2593  0.5154  0.4915
 3981TIP3    H133434   4.645   0.923  16.450 -0.1380 -0.0746  0.1871
 3981TIP3    H233435   4.539   0.815  16.453 -0.6317  0.3667 -0.8783
 3982TIP3   OH233436   6.150   5.128  10.959 -0.5762  0.0851 -0.5794
 3982TIP3    H133437   6.241   5.102  10.943 -0.6617  0.0772 -1.0581
 3982TIP3    H233438   6.148   5.221  10.934 -1.1487 -0.3938 -2.3592
 3983TIP3   OH233439   5.793   2.108   5.908  0.2753 -0.2188 -0.7676
 3983TIP3    H133440   5.829   2.082   5.823 -1.1531 -0.7016 -1.2242
 3983TIP3    H233441   5.701   2.082   5.906  0.0804  0.2514  0.7236
 3984TIP3   OH233442   4.197   5.646  12.776 -0.2808  0.2014 -0.5362
 3984TIP3    H133443   4.228   5.736  12.775 -0.4082  0.2446 -0.6434
 3984TIP3    H233444   4.277   5.593  12.775 -0.2007  0.3136 -0.2294
 3985TIP3   OH233445   2.311   0.417   2.445  0.1095  0.2922  0.7446
 3985TIP3    H133446   2.272   0.504   2.433  1.6727  0.4708 -3.6984
 3985TIP3    H233447   2.402   0.428   2.419  0.3687 -2.6635  0.3318
 3986TIP3   OH233448   2.655   6.141   2.104 -0.2562  0.0349 -0.5582
 3986TIP3    H133449   2.734   6.132   2.157 -0.2191 -1.2273 -0.8133
 3986TIP3    H233450   2.646   6.235   2.089  1.7816  0.1022 -1.4285
 3987TIP3   OH233451   1.577   2.637  12.342  0.8531  0.3783 -0.1829
 3987TIP3    H133452   1.627   2.637  12.260  0.0459  1.9366 -0.6986
 3987TIP3    H233453   1.506   2.699  12.326  0.6865  0.6875  1.6981
 3988TIP3   OH233454   3.872   4.135   2.494  0.3439 -0.6314 -0.6015
 3988TIP3    H133455   3.944   4.198   2.498 -0.0028 -0.2511 -0.3502
 3988TIP3    H233456   3.842   4.139   2.403 -0.1807  0.1283 -0.3955
 3989TIP3   OH233457   4.934   1.503   4.146  0.4160  0.1607 -0.8938
 3989TIP3    H133458   4.848   1.487   4.185  0.9297 -0.7543 -0.1332
 3989TIP3    H233459   4.970   1.416   4.131  1.7662  0.5581  0.0007
 3990TIP3   OH233460   1.324   6.270   1.488  0.6149  0.0123 -0.0475
 3990TIP3    H133461   1.247   6.232   1.530 -0.6262  2.3503 -0.1091
 3990TIP3    H233462   1.396   6.211   1.512 -1.3850 -2.9882 -1.1491
 3991TIP3   OH233463   1.565   3.484   0.631 -0.6780 -0.0672 -0.3503
 3991TIP3    H133464   1.659   3.501   0.636 -0.4388 -1.3911 -0.1716
 3991TIP3    H233465   1.525   3.570   0.642  0.3819 -0.0124  3.7520
 3992TIP3   OH233466   6.105   5.432  12.228 -0.9421  0.0601  0.1725
 3992TIP3    H133467   6.102   5.393  12.315 -0.7145  2.4563  1.2713
 3992TIP3    H233468   6.128   5.524  12.242  0.0471  0.2882 -2.4714
 3993TIP3   OH233469   0.382   2.772   0.853  0.2942  0.0769 -0.0262
 3993TIP3    H133470   0.358   2.806   0.939 -0.3092  0.2147 -0.2516
 3993TIP3    H233471   0.406   2.681   0.869  2.7652  0.8223  0.7261
 3994TIP3   OH233472   5.381   5.072   0.952 -0.3004 -0.9079  0.2274
 3994TIP3    H133473   5.286   5.068   0.953 -0.3611  0.3914  0.7884
 3994TIP3    H233474   5.410   4.985   0.979 -1.3047 -1.9672 -2.0534
 3995TIP3   OH233475   1.792   4.668   0.980  0.0597  0.1213  0.2569
 3995TIP3    H133476   1.788   4.587   1.031  0.3733 -0.7377 -1.0423
 3995TIP3    H233477   1.884   4.695   0.985 -0.1066  0.5693  0.9423
 3996TIP3   OH233478   0.847   5.237  15.530  0.2965  0.1279 -0.0704
 3996TIP3    H133479   0.940   5.244  15.552  0.2862 -0.2693  0.1043
 3996TIP3    H233480   0.833   5.305  15.464  1.0856 -0.9057 -1.3411
 3997TIP3   OH233481   6.642   1.999  15.247  0.3813 -0.1094 -0.1785
 3997TIP3    H133482   6.592   2.060  15.192  0.9511 -0.6235 -1.2761
 3997TIP3    H233483   6.733   2.013  15.222  0.7467  0.3839  1.3825
 3998TIP3   OH233484   2.830   2.270  11.316  0.2624  0.1321 -0.0273
 3998TIP3    H133485   2.801   2.244  11.403 -2.5559  1.2676 -0.5761
 3998TIP3    H233486   2.818   2.192  11.261 -0.1300  0.0862  0.1236
 3999TIP3   OH233487   2.643   6.130   4.498 -0.0234 -0.0595 -0.2177
 3999TIP3    H133488   2.551   6.148   4.480 -0.2331 -0.7230  0.1646
 3999TIP3    H233489   2.683   6.120   4.412 -0.5313 -0.8192 -0.3761
 4000TIP3   OH233490   2.447   2.519  11.611  0.0962 -0.5780  0.1384
 4000TIP3    H133491   2.438   2.493  11.519 -3.1338  0.0646  0.2382
 4000TIP3    H233492   2.403   2.450  11.660  1.2803 -0.6069  1.1928
 4001TIP3   OH233493   2.378   5.175   2.230 -0.1246  0.2639 -0.2987
 4001TIP3    H133494   2.426   5.092   2.233  0.0460  0.4146  1.5445
 4001TIP3    H233495   2.403   5.213   2.146  1.7543 -0.4053 -0.0683
 4002TIP3   OH233496   1.913   0.168  16.513 -0.6290  0.2302  0.1904
 4002TIP3    H133497   1.896   0.244  16.457 -0.9358 -0.1637 -0.2495
 4002TIP3    H233498   1.830   0.153  16.558 -0.5830  0.1208  0.2377
 4003TIP3   OH233499   1.850   6.525   3.498  0.2405  0.0237  0.4964
 4003TIP3    H133500   1.763   6.564   3.509 -1.0226 -2.6067  0.3086
 4003TIP3    H233501   1.873   6.543   3.407 -0.6181 -0.2072  0.2285
 4004TIP3   OH233502   3.137   1.791  16.372  0.7215 -0.2369 -0.4872
 4004TIP3    H133503   3.059   1.780  16.317 -0.6197  1.6894  0.9651
 4004TIP3    H233504   3.195   1.847  16.320  0.4298 -0.3045 -0.8881
 4005TIP3   OH233505   4.703   6.318   2.913  0.0492 -0.2140 -0.0594
 4005TIP3    H133506   4.636   6.348   2.975  2.3551 -0.3517  2.6026
 4005TIP3    H233507   4.745   6.398   2.882  1.4927 -0.3165  1.5920
 4006TIP3   OH233508   1.360   3.308  12.224  0.4242  0.0188  0.1190
 4006TIP3    H133509   1.345   3.346  12.138 -1.4406  0.6852  0.7075
 4006TIP3    H233510   1.365   3.214  12.209  0.3013  0.1502 -0.7362
 4007TIP3   OH233511   2.424   1.420  14.988 -0.1715 -0.0107  0.4416
 4007TIP3    H133512   2.464   1.462  14.912  0.1340 -0.4261  0.3716
 4007TIP3    H233513   2.459   1.468  15.063  0.1973 -0.1563  0.3638
 4008TIP3   OH233514   5.178   3.607  11.575 -0.1111 -0.9160 -0.3478
 4008TIP3    H133515   5.136   3.530  11.614  0.2406 -1.0258 -0.1860
 4008TIP3    H233516   5.154   3.603  11.483  1.3512 -2.1897 -0.6891
 4009TIP3   OH233517   2.519   3.307   5.538  0.2409  0.0058  0.2505
 4009TIP3    H133518   2.499   3.253   5.461 -0.4006  0.1847  0.2873
 4009TIP3    H233519   2.462   3.384   5.528  0.8627  0.4854  0.4054
 4010TIP3   OH233520   1.831   5.957  14.122  0.6839 -0.6740  0.6833
 4010TIP3    H133521   1.754   5.924  14.169  0.9008 -2.6823 -0.2934
 4010TIP3    H233522   1.860   5.883  14.068  2.1202  0.6770 -0.4766
 4011TIP3   OH233523   1.648   3.689   1.434  0.3704  0.5132  0.9120
 4011TIP3    H133524   1.640   3.593   1.428 -2.0864  0.7950 -1.2950
 4011TIP3    H233525   1.629   3.720   1.345 -0.6485  3.1424  2.0069
 4012TIP3   OH233526   4.779   5.042  14.822  0.0689 -0.0877 -0.5782
 4012TIP3    H133527   4.847   4.992  14.869  0.1378 -1.7235 -2.3249
 4012TIP3    H233528   4.826   5.116  14.785  0.8880 -1.1097 -1.6168
 4013TIP3   OH233529   2.178   2.977   4.119 -0.0188 -0.2346  0.0106
 4013TIP3    H133530   2.200   2.993   4.211 -0.8662 -0.1606  0.2097
 4013TIP3    H233531   2.166   2.882   4.114 -0.5472 -0.1776  0.1171
 4014TIP3   OH233532   1.820   2.543  16.722  0.0598 -0.3473  0.0538
 4014TIP3    H133533   1.876   2.498  16.658  0.0882  0.4849 -0.5075
 4014TIP3    H233534   1.867   2.533  16.805  0.0440 -1.3901 -0.0562
 4015TIP3   OH233535   3.975   3.300  12.724  0.6211  0.0290  0.5191
 4015TIP3    H133536   3.948   3.221  12.676  1.6295 -1.4885  2.3641
 4015TIP3    H233537   4.062   3.278  12.758 -0.7367  0.3695  4.4199
 4016TIP3   OH233538   0.982   6.638  16.991  0.0412 -0.2867  0.0146
 4016TIP3    H133539   0.913   6.584  16.954  0.7288 -0.6504 -0.7697
 4016TIP3    H233540   0.937   6.706  17.041 -0.8707 -0.4771 -0.5523
 4017TIP3   OH233541   3.614   2.928   4.830 -0.2109  0.7681 -0.1068
 4017TIP3    H133542   3.649   3.017   4.826 -1.7309  1.4185  0.7598
 4017TIP3    H233543   3.670   2.884   4.894  0.9183  0.9151 -0.9669
 4018TIP3   OH233544   3.918   3.939  10.475  0.4094 -0.1846  0.1528
 4018TIP3    H133545   3.840   3.903  10.518  1.4610 -1.5779  0.9652
 4018TIP3    H233546   3.922   4.030  10.504 -1.4952  0.2258 -0.7604
 4019TIP3   OH233547   2.280   1.522  15.304 -0.2923 -0.1079  0.3022
 4019TIP3    H133548   2.297   1.591  15.368  0.5414  1.4142 -1.5339
 4019TIP3    H233549   2.364   1.507  15.261 -0.4545 -2.3062  0.6659
 4020TIP3   OH233550   3.113   4.528  13.651 -0.7862  0.4348  0.6773
 4020TIP3    H133551   3.043   4.555  13.591 -1.0359  2.8920  1.9948
 4020TIP3    H233552   3.120   4.600  13.713  1.4110 -0.7906  1.9146
 4021TIP3   OH233553   3.555   6.680  14.170 -0.0397 -0.4781  0.2297
 4021TIP3    H133554   3.580   6.619  14.101  1.5361 -1.0103  1.2569
 4021TIP3    H233555   3.622   6.748  14.167 -2.2962  1.7717 -1.5398
 4022TIP3   OH233556   2.079   1.783   5.188 -0.2223  0.1025 -0.5829
 4022TIP3    H133557   2.007   1.724   5.209 -0.4472  0.2532 -0.9160
 4022TIP3    H233558   2.089   1.838   5.265 -1.6732  1.2946 -1.2112
 4023TIP3   OH233559   3.747   0.001   0.432 -0.0917 -0.1402 -0.1983
 4023TIP3    H133560   3.669  -0.013   0.486 -1.2944  1.3651 -1.5142
 4023TIP3    H233561   3.716  -0.000   0.342  1.5572 -0.4348 -0.7862
 4024TIP3   OH233562   2.655   2.498  15.198 -0.3235  0.5667 -0.0709
 4024TIP3    H133563   2.707   2.535  15.126 -0.4748 -1.4599 -1.2582
 4024TIP3    H233564   2.578   2.462  15.155 -0.6408 -0.2532  1.1679
 4025TIP3   OH233565   5.151   1.503  12.186 -0.2729  0.3740  0.4693
 4025TIP3    H133566   5.172   1.512  12.279 -0.6950  0.5705  0.5455
 4025TIP3    H233567   5.232   1.527  12.141  0.4048 -1.2113  0.8169
 4026TIP3   OH233568   2.674   5.281   4.787  0.3033  0.5818 -0.4221
 4026TIP3    H133569   2.629   5.222   4.847  0.1420  0.1092 -1.0048
 4026TIP3    H233570   2.743   5.227   4.746 -0.6276  0.4514 -1.8634
 4027TIP3   OH233571   1.108   4.864  16.949 -0.0257  0.6663  0.4386
 4027TIP3    H133572   1.113   4.782  16.997 -2.8441  0.9638  1.3115
 4027TIP3    H233573   1.116   4.932  17.016  2.0088  1.1278 -0.2421
 4028TIP3   OH233574   0.984   5.249  14.677  0.2888 -0.1042 -0.2047
 4028TIP3    H133575   1.056   5.191  14.655 -0.0350 -0.1671 -1.1452
 4028TIP3    H233576   0.908   5.212  14.632 -0.5321 -0.5507  1.5059
 4029TIP3   OH233577   5.132   1.484   5.272 -0.3862  0.5130 -0.7007
 4029TIP3    H133578   5.101   1.416   5.212  0.6066  0.4047 -1.1042
 4029TIP3    H233579   5.094   1.461   5.356 -0.7618 -0.0519 -1.0217
 4030TIP3   OH233580   2.935   0.377  16.793 -0.1115 -0.2136  0.3438
 4030TIP3    H133581   2.904   0.339  16.710 -0.8670 -0.8304  0.9009
 4030TIP3    H233582   3.026   0.350  16.799 -0.2386 -0.7335  0.0335
 4031TIP3   OH233583   0.939   4.440  12.734  0.3348 -0.0202 -0.9535
 4031TIP3    H133584   0.846   4.456  12.752  0.4079  0.2200 -0.7804
 4031TIP3    H233585   0.963   4.507  12.671  0.9798  1.4217  0.7942
 4032TIP3   OH233586   1.778   4.215   5.775 -0.1704  0.1591 -0.0678
 4032TIP3    H133587   1.850   4.166   5.735 -0.5553 -0.8721  0.4940
 4032TIP3    H233588   1.821   4.275   5.836  0.4279  1.8181 -2.0793
 4033TIP3   OH233589   3.495   5.599  14.639  0.0634 -0.1804  0.2005
 4033TIP3    H133590   3.523   5.532  14.577 -1.6234 -0.2193 -0.5561
 4033TIP3    H233591   3.420   5.560  14.684 -1.2229  1.3572 -0.5763
 4034TIP3   OH233592   2.072   0.462   4.696  0.3966  0.3020  0.2311
 4034TIP3    H133593   2.069   0.407   4.775  1.2996  1.1140  0.8456
 4034TIP3    H233594   1.980   0.473   4.671  0.0973  0.0158  1.1587
 4035TIP3   OH233595   6.655   0.775   5.580  0.6103 -0.2926 -0.0272
 4035TIP3    H133596   6.711   0.767   5.658  0.0446  0.5525  0.4809
 4035TIP3    H233597   6.629   0.686   5.559  2.8458 -0.8092 -0.7970
 4036TIP3   OH233598   6.348   4.894  16.368  0.5236  0.2399  0.1603
 4036TIP3    H133599   6.313   4.920  16.453 -1.4058 -3.7240  0.7059
 4036TIP3    H233600   6.316   4.960  16.307 -0.9657  1.2444  1.9776
 4037TIP3   OH233601   0.023   1.061  15.534  0.0835  0.6284  0.4878
 4037TIP3    H133602   0.041   1.019  15.618  0.0638 -0.3427  0.0155
 4037TIP3    H233603  -0.068   1.038  15.515  0.2312  0.4537 -0.0187
 4038TIP3   OH233604   5.127   0.579  16.222 -0.1520 -0.8241  0.8961
 4038TIP3    H133605   5.214   0.602  16.189 -0.7375  0.6413  0.3220
 4038TIP3    H233606   5.084   0.536  16.148 -1.0957  1.5218  0.0300
 4039TIP3   OH233607   5.238   4.251   6.057 -0.2602  0.1967 -0.1334
 4039TIP3    H133608   5.148   4.218   6.063 -0.7747  1.4453 -0.8818
 4039TIP3    H233609   5.292   4.173   6.068 -1.4588 -0.8101 -1.1502
 4040TIP3   OH233610   3.335   5.929   4.379  0.5430  0.3592  0.1719
 4040TIP3    H133611   3.325   5.989   4.305 -0.9438  1.0808  0.9394
 4040TIP3    H233612   3.270   5.957   4.442  1.2108 -0.7982  1.4133
 4041TIP3   OH233613   6.676   5.417  14.371 -0.0999  0.1844 -0.3101
 4041TIP3    H133614   6.593   5.447  14.334 -0.0524  0.2777 -0.3407
 4041TIP3    H233615   6.723   5.498  14.392  0.1536  0.1314 -0.6682
 4042TIP3   OH233616   3.077   3.131  14.007  0.0767  0.9078 -0.0706
 4042TIP3    H133617   3.103   3.045  13.976 -0.0540  1.4364 -1.7076
 4042TIP3    H233618   3.011   3.114  14.074  0.5206 -0.2741  0.0722
 4043TIP3   OH233619   3.550   5.497   4.270  0.0030 -0.3731 -0.5120
 4043TIP3    H133620   3.540   5.407   4.303 -0.0334 -1.0278 -2.2344
 4043TIP3    H233621   3.481   5.546   4.313  0.5706 -0.9734  1.1228
 4044TIP3   OH233622   0.683   3.586  11.501 -0.4619 -0.3967 -0.2758
 4044TIP3    H133623   0.588   3.574  11.496 -0.2439 -2.0416 -0.6683
 4044TIP3    H233624   0.715   3.564  11.414  0.2509  0.5250 -0.2549
 4045TIP3   OH233625   0.577   6.669  17.206 -0.0451 -0.0144  0.0890
 4045TIP3    H133626   0.543   6.652  17.119 -1.1347 -0.5455  0.6075
 4045TIP3    H233627   0.555   6.590  17.257 -0.9947  1.0073  1.2994
 4046TIP3   OH233628   4.522   3.405  16.527 -0.2286 -0.0493  0.1266
 4046TIP3    H133629   4.439   3.399  16.575  0.2688  1.7383  1.2454
 4046TIP3    H233630   4.531   3.497  16.505  1.2068 -0.3105 -0.4487
 4047TIP3   OH233631   5.811   5.324  15.070 -0.5717 -0.4168  0.2232
 4047TIP3    H133632   5.733   5.331  15.015  0.6442 -2.5183 -1.8520
 4047TIP3    H233633   5.864   5.256  15.028  2.2183  0.7247  1.7941
 4048TIP3   OH233634   2.615   1.205  14.153 -0.0456 -0.3617 -0.1935
 4048TIP3    H133635   2.575   1.233  14.235 -0.1515 -1.1695  0.0404
 4048TIP3    H233636   2.569   1.255  14.085  0.6242  0.9379  0.2875
 4049TIP3   OH233637   5.811   5.770  14.496 -0.2406 -0.1078 -0.2427
 4049TIP3    H133638   5.722   5.795  14.519 -0.3404  1.2437 -2.0193
 4049TIP3    H233639   5.803   5.733  14.407  1.1848  1.4979 -1.0545
 4050TIP3   OH233640   5.643   6.668   3.016 -0.3313 -0.4978 -0.4394
 4050TIP3    H133641   5.733   6.637   3.006 -0.6741 -1.3967 -0.7601
 4050TIP3    H233642   5.623   6.710   2.932  0.6361  1.9266  0.5094
 4051TIP3   OH233643   6.059   0.472  15.291 -0.1065 -0.0211  0.5593
 4051TIP3    H133644   6.027   0.385  15.268 -1.4033  0.3787  0.8531
 4051TIP3    H233645   6.086   0.511  15.208  3.1209 -1.7369  0.7375
 4052TIP3   OH233646   5.855   1.704   2.354 -0.0724  0.1132 -0.5836
 4052TIP3    H133647   5.859   1.691   2.449 -1.3374  0.0366 -0.5387
 4052TIP3    H233648   5.866   1.616   2.317 -1.1473 -0.0782 -0.4631
 4053TIP3   OH233649   4.808   5.948  13.937  0.0341  0.0527  0.0844
 4053TIP3    H133650   4.724   5.933  13.981  0.1795  0.3479  0.4682
 4053TIP3    H233651   4.849   5.861  13.935 -0.9347 -0.3805 -1.4858
 4054TIP3   OH233652   5.578   2.764   3.371  0.1119 -0.3117  0.4810
 4054TIP3    H133653   5.648   2.800   3.317  0.0966 -1.0434 -0.0318
 4054TIP3    H233654   5.622   2.704   3.431 -0.2392 -1.9225 -0.8433
 4055TIP3   OH233655   0.261   4.774   0.300  0.1905  0.4995  0.1261
 4055TIP3    H133656   0.184   4.818   0.263  0.0796  0.7428  0.6409
 4055TIP3    H233657   0.238   4.681   0.299  0.0217  0.5423 -0.0343
 4056TIP3   OH233658   1.427   5.756   1.929  0.1966 -0.7013  0.4977
 4056TIP3    H133659   1.464   5.834   1.969  0.6689 -0.1510 -0.9740
 4056TIP3    H233660   1.380   5.789   1.852  2.9278 -2.1379 -1.8658
 4057TIP3   OH233661   4.737   4.909   5.276 -0.0604 -0.5255  0.2127
 4057TIP3    H133662   4.791   4.974   5.321 -0.0084 -0.8716  0.6582
 4057TIP3    H233663   4.648   4.925   5.307 -0.6520  1.7249 -2.4883
 4058TIP3   OH233664   1.084   0.817  11.808  0.0051 -0.1435 -0.3531
 4058TIP3    H133665   0.993   0.835  11.785 -0.2095 -1.2124 -0.3950
 4058TIP3    H233666   1.108   0.886  11.870 -1.3316 -0.7456  0.8578
 4059TIP3   OH233667   1.067   3.796   5.542 -0.4504  0.1505 -0.8498
 4059TIP3    H133668   0.976   3.766   5.545 -0.1913 -0.5841  0.0395
 4059TIP3    H233669   1.102   3.774   5.629  0.4968  0.6699 -1.0963
 4060TIP3   OH233670   4.565   4.928  12.820 -0.3222 -1.0034  0.2633
 4060TIP3    H133671   4.635   4.912  12.882  0.6121 -1.2287 -0.8334
 4060TIP3    H233672   4.582   5.016  12.786 -0.0584 -1.4039 -0.6537
 4061TIP3   OH233673   1.675   1.649   5.930 -0.2303 -0.1949 -0.1988
 4061TIP3    H133674   1.651   1.556   5.928 -2.1483  0.2407  1.4219
 4061TIP3    H233675   1.639   1.682   6.012  0.2029  2.0621 -0.8773
 4062TIP3   OH233676   4.680   1.086  14.339  0.1223 -0.3994 -0.5147
 4062TIP3    H133677   4.618   1.159  14.343  0.0218 -0.5034 -0.1541
 4062TIP3    H233678   4.642   1.026  14.275 -0.9805 -1.2192  0.8657
 4063TIP3   OH233679   2.492   1.762  16.798 -0.1344  0.6008  0.1589
 4063TIP3    H133680   2.406   1.722  16.792  0.2777 -0.0626 -1.3822
 4063TIP3    H233681   2.509   1.767  16.893 -1.8181  0.6924  0.4724
 4064TIP3   OH233682   5.180   3.152   1.022 -0.2410 -0.0152  0.1394
 4064TIP3    H133683   5.099   3.101   1.022 -0.9291  1.0559 -1.4920
 4064TIP3    H233684   5.172   3.210   1.098 -1.1621  0.3057 -0.1963
 4065TIP3   OH233685   2.675   6.389   0.032 -0.6564  0.2232  0.0069
 4065TIP3    H133686   2.641   6.306  -0.001  0.0078 -0.5364  1.2055
 4065TIP3    H233687   2.626   6.405   0.113 -0.1133  0.5176  0.2814
 4066TIP3   OH233688   4.118   2.902  14.308  0.0852 -0.1118  0.1685
 4066TIP3    H133689   4.061   2.937  14.240  0.2618  3.2617  1.6874
 4066TIP3    H233690   4.207   2.918  14.274  0.1586  0.2660  0.5344
 4067TIP3   OH233691   6.494   3.830  16.928  0.0214 -0.3082  0.4306
 4067TIP3    H133692   6.443   3.910  16.937 -1.3165 -1.0898 -0.0279
 4067TIP3    H233693   6.472   3.779  17.006  2.6992  0.7437  1.9359
 4068TIP3   OH233694   2.044   2.542   3.367  0.9090 -0.2643 -0.2674
 4068TIP3    H133695   2.119   2.507   3.320  1.4640  1.6158 -0.8287
 4068TIP3    H233696   1.970   2.528   3.308  1.1414 -0.3714 -0.5351
 4069TIP3   OH233697   6.764   0.933   5.358 -0.5075 -0.1770 -0.5102
 4069TIP3    H133698   6.712   1.011   5.339 -1.5132 -0.4912  0.8563
 4069TIP3    H233699   6.735   0.906   5.446 -0.5088 -2.3452 -1.1488
 4070TIP3   OH233700   5.059   2.124   1.372 -0.0808 -0.4146 -0.2957
 4070TIP3    H133701   5.002   2.175   1.430  0.5346 -0.8373  0.6951
 4070TIP3    H233702   5.122   2.187   1.338 -0.9116 -0.0112 -1.1287
 4071TIP3   OH233703   4.333   2.316   4.136  0.8646  0.5278 -0.1693
 4071TIP3    H133704   4.280   2.283   4.209  0.2887 -0.7845 -1.1552
 4071TIP3    H233705   4.417   2.271   4.146  0.6552  0.0514 -0.5305
 4072TIP3   OH233706   1.199   3.551  11.997  0.3214 -0.1484  0.3571
 4072TIP3    H133707   1.214   3.554  11.903 -0.6218  1.9570  0.2577
 4072TIP3    H233708   1.260   3.615  12.034  1.1756 -1.4483  1.2753
 4073TIP3   OH233709   2.104   2.650  13.205  0.6995 -0.3289  0.1067
 4073TIP3    H133710   2.025   2.703  13.217  1.0297 -0.0659  1.1919
 4073TIP3    H233711   2.126   2.660  13.113 -0.6243 -0.5242 -0.2447
 4074TIP3   OH233712   5.185   3.250  16.363 -0.2608 -0.2259 -0.8097
 4074TIP3    H133713   5.118   3.184  16.347  0.1540 -1.0280  0.6552
 4074TIP3    H233714   5.157   3.326  16.312 -1.6010 -0.9755 -1.2092
 4075TIP3   OH233715   1.172   0.002  16.337 -0.3553 -0.3034  0.4227
 4075TIP3    H133716   1.084   0.034  16.313  0.0596 -1.0126 -2.2613
 4075TIP3    H233717   1.161  -0.093  16.346  0.0681 -0.3664  0.2816
 4076TIP3   OH233718   6.451   2.957  17.165  0.0895  0.8173  0.5179
 4076TIP3    H133719   6.380   2.903  17.200 -0.7330  1.8472  0.4557
 4076TIP3    H233720   6.483   3.006  17.241  1.1006 -0.0253  0.6528
 4077TIP3   OH233721   1.301   4.455   3.751  0.1503  0.9370  0.3593
 4077TIP3    H133722   1.268   4.371   3.784 -1.0644  1.3916  0.3285
 4077TIP3    H233723   1.375   4.432   3.696  1.4676  0.0659  2.4345
 4078TIP3   OH233724   3.037   6.460   2.634  0.1989 -0.1297  0.2683
 4078TIP3    H133725   2.969   6.454   2.701  1.7054  0.4523  1.8688
 4078TIP3    H233726   3.105   6.399   2.662  1.6660  1.4663  0.2815
 4079TIP3   OH233727   4.902   0.152   1.416 -0.2739  0.0950  0.0900
 4079TIP3    H133728   4.963   0.091   1.373  1.6611  0.4401  2.2470
 4079TIP3    H233729   4.819   0.104   1.418  0.9295 -2.0755  0.7336
 4080TIP3   OH233730   5.001   0.869  16.187  0.3414  0.3797  0.3448
 4080TIP3    H133731   5.092   0.861  16.215  0.7634  4.2270  0.3668
 4080TIP3    H233732   5.006   0.880  16.092 -0.0182  1.1477  0.4068
 4081TIP3   OH233733   2.785   0.605   2.422  0.0138 -0.0351  0.2883
 4081TIP3    H133734   2.742   0.685   2.393 -3.1342 -1.7870 -0.0548
 4081TIP3    H233735   2.721   0.561   2.478  1.7939 -2.1650  0.7661
 4082TIP3   OH233736   5.126   4.974  16.123  0.1004  1.1450 -0.0282
 4082TIP3    H133737   5.094   4.885  16.138 -1.4519  1.8887  1.1982
 4082TIP3    H233738   5.137   5.010  16.211  2.4800  1.5793 -0.4763
 4083TIP3   OH233739   6.611   3.751  12.738 -0.0170 -0.6698  0.5688
 4083TIP3    H133740   6.616   3.844  12.718 -0.8188 -0.4027  1.5426
 4083TIP3    H233741   6.531   3.721  12.695 -0.4259 -0.6257  1.2800
 4084TIP3   OH233742   0.721   0.345  17.274 -0.1224  0.1940  0.3923
 4084TIP3    H133743   0.680   0.275  17.326 -1.8060 -0.3400 -1.5878
 4084TIP3    H233744   0.806   0.308  17.249  0.0919 -0.1120  1.5087
 4085TIP3   OH233745   1.139   0.847   3.316 -0.3522  0.0688 -0.3210
 4085TIP3    H133746   1.227   0.877   3.291 -0.1706 -0.2933 -0.1227
 4085TIP3    H233747   1.089   0.928   3.329 -0.4749  0.2744 -1.9255
 4086TIP3   OH233748   3.941   3.200  17.189  0.9415 -0.2419 -0.0018
 4086TIP3    H133749   4.005   3.219  17.120  2.8920 -1.8747  1.2995
 4086TIP3    H233750   3.990   3.149  17.253 -0.8082  1.2286  2.6114
 4087TIP3   OH233751   3.902   6.422   1.136  0.9141 -0.0219 -1.0940
 4087TIP3    H133752   3.914   6.507   1.094 -1.7886  0.5903 -0.7531
 4087TIP3    H233753   3.921   6.438   1.228 -1.1926  0.6638 -0.7451
 4088TIP3   OH233754   4.877   0.402  12.230  0.4395 -0.0189 -0.0161
 4088TIP3    H133755   4.917   0.424  12.314  1.0782 -0.5983 -0.1664
 4088TIP3    H233756   4.796   0.357  12.254 -1.4586  3.3962  0.3027
 4089TIP3   OH233757   0.727   0.568  14.951  0.4589 -0.1121  0.4714
 4089TIP3    H133758   0.637   0.541  14.930  0.8682 -1.6041  0.5593
 4089TIP3    H233759   0.734   0.555  15.045  0.6852  0.2295  0.4991
 4090TIP3   OH233760   2.834   3.965  14.991  0.1332 -0.1028 -0.3676
 4090TIP3    H133761   2.873   3.946  15.076  0.1060 -0.3208 -0.4048
 4090TIP3    H233762   2.843   3.884  14.942 -1.9474 -0.6999  0.2149
 4091TIP3   OH233763   6.088   1.889  10.706 -0.3146 -0.8328  0.5821
 4091TIP3    H133764   6.023   1.830  10.668 -0.5160  0.1780 -0.7122
 4091TIP3    H233765   6.082   1.875  10.800 -1.0985 -2.0925  0.3519
 4092TIP3   OH233766   0.638   5.422   2.885 -0.0270 -0.1334 -0.1564
 4092TIP3    H133767   0.614   5.337   2.921  0.5566 -0.2667 -0.0824
 4092TIP3    H233768   0.568   5.442   2.822  0.2942 -1.0751 -0.8348
 4093TIP3   OH233769   1.582   5.785  16.455  0.3003  0.4727  0.1993
 4093TIP3    H133770   1.605   5.823  16.540 -2.4078  2.1080  0.2486
 4093TIP3    H233771   1.569   5.692  16.474 -0.6491  0.8826  1.6701
 4094TIP3   OH233772   0.935   0.753  14.906  0.3795  0.2540 -0.2312
 4094TIP3    H133773   0.955   0.766  14.813 -0.0934 -1.2563 -0.5514
 4094TIP3    H233774   0.845   0.721  14.907  0.9228 -1.2615  0.6477
 4095TIP3   OH233775   5.908   4.954  14.301 -0.2390  0.7588  0.2057
 4095TIP3    H133776   5.937   5.003  14.379  0.7339  1.1856 -0.4122
 4095TIP3    H233777   5.974   4.974  14.235 -2.1183  1.9405 -1.3306
 4096TIP3   OH233778   3.120   2.525   5.168 -0.3177 -0.3064  0.4213
 4096TIP3    H133779   3.035   2.549   5.205 -0.2943  1.4875 -0.6533
 4096TIP3    H233780   3.162   2.608   5.148  0.0884 -1.1993 -2.6631
 4097TIP3   OH233781   4.235   5.308  15.408  0.2529  0.7695 -0.0562
 4097TIP3    H133782   4.255   5.233  15.353 -0.4900  1.9219 -1.9424
 4097TIP3    H233783   4.308   5.368  15.394 -0.1303  1.2328 -0.0743
 4098TIP3   OH233784   3.520   5.792  15.772 -0.7616  0.0680  0.0268
 4098TIP3    H133785   3.478   5.877  15.758 -0.0274  0.5499  0.6639
 4098TIP3    H233786   3.609   5.814  15.801 -0.5146 -0.9192  0.0341
 4099TIP3   OH233787   5.562   1.085   0.477 -0.3711 -0.5018 -0.0678
 4099TIP3    H133788   5.629   1.026   0.442  0.6108  0.5765 -0.0247
 4099TIP3    H233789   5.574   1.166   0.428 -0.3808  0.3303  1.3002
 4100TIP3   OH233790   3.286   4.265  12.574  0.4479  0.0165 -0.0929
 4100TIP3    H133791   3.233   4.230  12.646 -0.4461  3.0020  0.7483
 4100TIP3    H233792   3.270   4.205  12.502 -1.8368 -0.7529  0.9985
 4101TIP3   OH233793   3.173   1.583  11.478  0.3590 -0.2251 -1.0034
 4101TIP3    H133794   3.168   1.626  11.393 -1.2528  1.1817 -0.2254
 4101TIP3    H233795   3.131   1.645  11.539  0.8147 -1.5290  0.6744
 4102TIP3   OH233796   3.632   5.886   0.421  0.2030  0.0226  0.5879
 4102TIP3    H133797   3.627   5.813   0.358 -0.9648 -0.3258  1.0903
 4102TIP3    H233798   3.712   5.868   0.470  0.9622  0.1240 -0.5752
 4103TIP3   OH233799   4.895   2.582   2.669  0.3270 -0.8774 -0.4786
 4103TIP3    H133800   4.884   2.488   2.682  0.2855 -0.7420  0.5330
 4103TIP3    H233801   4.989   2.595   2.660  0.3635 -0.9701 -0.2342
 4104TIP3   OH233802   0.160   5.761   0.685  0.2098 -0.3953  0.0627
 4104TIP3    H133803   0.064   5.762   0.687  0.2064 -0.1007 -0.1907
 4104TIP3    H233804   0.185   5.697   0.751 -0.1735 -0.8826 -0.2601
 4105TIP3   OH233805   4.133   4.587  12.992 -0.1761  0.1173 -0.3836
 4105TIP3    H133806   4.117   4.512  13.049  0.5280 -0.4230 -0.9017
 4105TIP3    H233807   4.111   4.663  13.046 -2.1112 -0.4993 -0.2587
 4106TIP3   OH233808   0.356   1.447  17.201 -0.4387  0.1964  0.5875
 4106TIP3    H133809   0.311   1.482  17.278 -0.4379 -0.1877  0.7647
 4106TIP3    H233810   0.312   1.489  17.127 -1.7385 -0.9127  0.7138
 4107TIP3   OH233811   6.160   4.414   2.815 -0.6575 -0.4711 -0.3391
 4107TIP3    H133812   6.076   4.416   2.769 -1.1136  2.0077  0.5418
 4107TIP3    H233813   6.197   4.501   2.801  0.4289 -0.5723  1.7240
 4108TIP3   OH233814   5.815   5.990  12.162  0.4470  0.1884  0.2107
 4108TIP3    H133815   5.731   5.944  12.160  0.7957 -0.5216  1.5765
 4108TIP3    H233816   5.798   6.068  12.215  0.6980 -0.0396  0.6221
 4109TIP3   OH233817   1.607   2.992   6.678  0.3187  0.3530  0.1962
 4109TIP3    H133818   1.626   2.898   6.680 -3.8510 -0.6086  1.7428
 4109TIP3    H233819   1.672   3.031   6.736  0.9571 -1.8720  1.0385
 4110TIP3   OH233820   4.129   1.426   4.008 -0.0747  0.1366 -0.3131
 4110TIP3    H133821   4.175   1.402   3.928 -1.8094  2.0532 -1.9390
 4110TIP3    H233822   4.197   1.426   4.075  1.1188 -3.0302 -1.4314
 4111TIP3   OH233823   3.382   5.533   3.823 -0.4751 -0.1373 -0.4244
 4111TIP3    H133824   3.387   5.441   3.850 -0.0542 -0.0355 -0.1451
 4111TIP3    H233825   3.433   5.538   3.742  0.4866  0.0698  0.1762
 4112TIP3   OH233826   4.409   0.785   6.424 -0.1927  0.2854  0.2914
 4112TIP3    H133827   4.351   0.827   6.488  0.6124  1.3774  0.3443
 4112TIP3    H233828   4.402   0.692   6.441 -0.6393  0.5237  1.4238
 4113TIP3   OH233829   6.364   6.195   3.823  0.0433  0.5500  0.6138
 4113TIP3    H133830   6.345   6.279   3.781  2.1898  0.7257 -0.0647
 4113TIP3    H233831   6.459   6.183   3.811 -0.3359 -2.2540  0.1728
 4114TIP3   OH233832   6.711   4.081  16.933 -0.0738  0.1158 -0.4757
 4114TIP3    H133833   6.786   4.093  16.874  0.0763  1.2485 -0.0696
 4114TIP3    H233834   6.720   3.992  16.964  0.9118  0.1174 -0.7150
 4115TIP3   OH233835   4.124   1.814  10.844 -0.2130 -0.1335  0.2620
 4115TIP3    H133836   4.086   1.731  10.816  1.9367  0.0275 -3.4776
 4115TIP3    H233837   4.213   1.791  10.869 -0.7995  0.4735  3.0376
 4116TIP3   OH233838   2.137   0.670  12.090 -0.3791 -0.2476  0.1560
 4116TIP3    H133839   2.148   0.611  12.016 -0.4478 -1.7085  1.2894
 4116TIP3    H233840   2.191   0.746  12.068  1.2025 -1.5174 -0.4948
 4117TIP3   OH233841   2.884   1.490  16.258  0.6610 -0.4637  0.1739
 4117TIP3    H133842   2.822   1.469  16.328  1.3083 -0.2555  0.8156
 4117TIP3    H233843   2.944   1.415  16.256  1.0868 -0.1298  0.3433
 4118TIP3   OH233844   4.913   0.609   4.359 -0.1346  0.0348  0.3501
 4118TIP3    H133845   4.863   0.537   4.398  1.0732 -1.3996 -0.6804
 4118TIP3    H233846   4.880   0.687   4.403 -0.8094 -1.2354  2.2004
 4119TIP3   OH233847   2.605   3.344   5.844  0.5697  0.5952 -0.2531
 4119TIP3    H133848   2.563   3.292   5.776  0.3979  0.0397  0.2746
 4119TIP3    H233849   2.679   3.289   5.873 -0.4388  0.0248  1.2818
 4120TIP3   OH233850   1.437   6.564   2.598 -0.4049 -0.2703  0.2207
 4120TIP3    H133851   1.383   6.589   2.673 -0.3633  0.3448  0.0457
 4120TIP3    H233852   1.519   6.533   2.638  0.3493  1.8628  0.3634
 4121TIP3   OH233853   6.025   2.172   2.986 -0.6563 -0.6386  0.0311
 4121TIP3    H133854   6.006   2.139   3.075 -1.8089  0.6993  0.3023
 4121TIP3    H233855   6.072   2.254   3.001 -1.7093  0.0798 -0.5800
 4122TIP3   OH233856   2.530   5.911  12.356 -0.1995  0.1611 -0.2687
 4122TIP3    H133857   2.530   5.982  12.420 -1.3419 -0.2851  0.2376
 4122TIP3    H233858   2.464   5.850  12.388 -2.9873  1.3640 -3.5302
 4123TIP3   OH233859   1.033   4.180   1.552  0.5560  0.0013 -0.3674
 4123TIP3    H133860   0.939   4.180   1.573  0.3785 -2.4627 -1.1076
 4123TIP3    H233861   1.071   4.117   1.613  1.3792 -0.6687 -1.5628
 4124TIP3   OH233862   4.203   0.483  12.230  0.0047  0.1522  0.1578
 4124TIP3    H133863   4.274   0.427  12.264 -1.0046 -0.7149  0.8649
 4124TIP3    H233864   4.235   0.512  12.145  0.9585 -0.7243  0.2012
 4125TIP3   OH233865   2.793   3.930   3.657 -0.8856 -0.2135 -0.3142
 4125TIP3    H133866   2.798   3.998   3.589 -1.0078 -0.6755 -0.7878
 4125TIP3    H233867   2.748   3.973   3.730  0.0870  0.5679 -0.1716
 4126TIP3   OH233868   0.718   5.852  11.581 -0.1710 -0.0385 -0.0081
 4126TIP3    H133869   0.667   5.817  11.654  1.1675  0.3992  1.1668
 4126TIP3    H233870   0.783   5.784  11.563  0.7153  0.6719  0.4820
 4127TIP3   OH233871   3.937   0.793  14.271 -0.0757  0.6648  0.2638
 4127TIP3    H133872   3.960   0.701  14.285 -0.5941  0.4752 -0.1428
 4127TIP3    H233873   4.002   0.841  14.322  0.1612  0.0727  0.5299
 4128TIP3   OH233874   1.103   4.860  14.343  0.2609 -0.1566 -0.4576
 4128TIP3    H133875   1.152   4.894  14.268  0.7702 -1.0751 -0.5566
 4128TIP3    H233876   1.103   4.932  14.406  0.4731  0.3666 -1.0497
 4129TIP3   OH233877   1.252   4.308  11.698  0.9585  0.0588 -0.4502
 4129TIP3    H133878   1.312   4.313  11.623  0.6829  0.1241 -0.6671
 4129TIP3    H233879   1.303   4.342  11.772  1.1298  0.2880 -0.6715
 4130TIP3   OH233880   6.434   0.310   2.176  0.3232  0.3454  0.5186
 4130TIP3    H133881   6.428   0.326   2.270  0.7804 -0.5868  0.7059
 4130TIP3    H233882   6.467   0.393   2.140  0.0764  0.7257  1.1647
 4131TIP3   OH233883   2.125   1.270   1.459 -0.5174 -0.2474 -0.3861
 4131TIP3    H133884   2.055   1.261   1.523 -0.3641  0.2485 -0.1503
 4131TIP3    H233885   2.097   1.341   1.401 -1.1297 -1.3693 -1.4900
 4132TIP3   OH233886   2.981   5.569   3.780  0.2109 -0.2674  0.2798
 4132TIP3    H133887   2.968   5.475   3.767  0.4341 -0.2476 -0.0797
 4132TIP3    H233888   3.029   5.576   3.862  0.9280 -0.5059 -0.1213
 4133TIP3   OH233889   1.521   4.992   3.710  0.3192  0.0597 -0.0541
 4133TIP3    H133890   1.459   5.028   3.647  0.8039  1.3234  0.1613
 4133TIP3    H233891   1.559   4.916   3.665 -0.8574 -0.3118 -0.4523
 4134TIP3   OH233892   6.388   2.865   1.863 -0.4452  0.3662 -0.4153
 4134TIP3    H133893   6.408   2.805   1.935 -1.6917  1.0711  0.5221
 4134TIP3    H233894   6.304   2.835   1.829  0.1000  0.0751 -1.5659
 4135TIP3   OH233895   5.173   4.195  11.238 -0.3787  0.4768  0.3482
 4135TIP3    H133896   5.242   4.174  11.175  0.8028 -0.7666  2.0228
 4135TIP3    H233897   5.182   4.129  11.307 -2.2017  1.2859  1.4074
 4136TIP3   OH233898   1.110   2.685   1.590  0.6626  0.0633  0.1328
 4136TIP3    H133899   1.050   2.611   1.585 -0.3281  0.9248 -1.0392
 4136TIP3    H233900   1.141   2.698   1.501 -1.1123  2.6006 -0.1756
 4137TIP3   OH233901   0.418   2.589  14.589  0.3194  0.2939  0.2914
 4137TIP3    H133902   0.508   2.620  14.601 -0.5829  2.6296  1.2707
 4137TIP3    H233903   0.408   2.520  14.655  2.0187 -1.4341 -1.2017
 4138TIP3   OH233904   2.294   1.982   5.514  0.0898 -0.2398 -0.0963
 4138TIP3    H133905   2.202   1.956   5.520 -0.4979  1.7609 -0.1179
 4138TIP3    H233906   2.336   1.939   5.588 -0.8989 -1.0175  0.0206
 4139TIP3   OH233907   2.990   3.960  17.202  0.2919 -0.0965 -0.3540
 4139TIP3    H133908   2.907   3.927  17.237  0.1257 -0.9764 -1.5486
 4139TIP3    H233909   3.057   3.922  17.259 -0.1284  1.0175  0.9190
 4140TIP3   OH233910   0.808   6.623  12.549 -0.4445  0.2930 -0.2274
 4140TIP3    H133911   0.755   6.609  12.628  1.4432 -1.5494  0.7513
 4140TIP3    H233912   0.809   6.538  12.506  2.0367  0.2119 -0.0308
 4141TIP3   OH233913   1.040   3.631  13.596 -0.6678 -0.0228  0.0470
 4141TIP3    H133914   1.062   3.661  13.508 -0.3602  0.1047  0.1670
 4141TIP3    H233915   0.948   3.655  13.607 -1.0542 -1.1128 -0.6882
 4142TIP3   OH233916   5.156   5.458  16.742  0.0443  0.1261  0.0675
 4142TIP3    H133917   5.068   5.429  16.719  0.5998 -1.0116 -0.6625
 4142TIP3    H233918   5.169   5.538  16.692  0.0049 -0.5531 -1.0293
 4143TIP3   OH233919   5.196   6.177  10.564  0.0596  0.1416 -0.3786
 4143TIP3    H133920   5.103   6.156  10.558  0.1236 -0.2984  0.1732
 4143TIP3    H233921   5.236   6.099  10.603  0.5878  0.5137 -0.1694
 4144TIP3   OH233922   0.636   0.727  16.762 -0.6552  0.4570 -0.1052
 4144TIP3    H133923   0.647   0.821  16.779 -0.1458  0.6801 -1.5846
 4144TIP3    H233924   0.541   0.713  16.766 -0.7825  1.1662 -0.4736
 4145TIP3   OH233925   4.498   6.725   4.770 -0.1841  0.2267 -0.4604
 4145TIP3    H133926   4.589   6.755   4.777 -0.3339  1.0394 -1.9391
 4145TIP3    H233927   4.504   6.641   4.725 -0.0908 -0.1571  0.2650
 4146TIP3   OH233928   6.077   1.749  16.027  0.0853 -0.2499 -0.3206
 4146TIP3    H133929   6.096   1.804  15.951 -0.0015 -1.6740 -1.3974
 4146TIP3    H233930   6.034   1.808  16.089  1.0901  1.1800 -0.9509
 4147TIP3   OH233931   1.712   1.483  11.391  0.7869 -0.0258 -0.1504
 4147TIP3    H133932   1.751   1.398  11.368 -1.0666 -0.7710 -0.6485
 4147TIP3    H233933   1.771   1.548  11.351  1.9082 -1.0824 -0.2592
 4148TIP3   OH233934   0.599   5.037  16.807 -0.5035  0.0387  0.5805
 4148TIP3    H133935   0.599   4.945  16.782  0.1675  0.7439 -2.1732
 4148TIP3    H233936   0.510   5.067  16.792 -0.3653  0.1895  0.0454
 4149TIP3   OH233937   4.523   1.700  11.426 -0.0174 -0.2423  0.3769
 4149TIP3    H133938   4.567   1.754  11.491 -0.4138 -0.3727  0.7554
 4149TIP3    H233939   4.592   1.674  11.366  0.4536 -0.5778  1.0588
 4150TIP3   OH233940   4.167   0.778  16.611  0.7372  0.2379 -0.4776
 4150TIP3    H133941   4.091   0.785  16.553  0.6987 -1.2561 -0.6437
 4150TIP3    H233942   4.160   0.853  16.670 -0.7410  0.2540 -0.6519
 4151TIP3   OH233943   1.013   4.711  13.079  0.3326 -0.7310  0.5154
 4151TIP3    H133944   0.989   4.798  13.109  0.9987 -0.6980  0.9622
 4151TIP3    H233945   1.109   4.713  13.075  0.4151 -1.8354  1.7324
 4152TIP3   OH233946   5.250   1.751   4.246 -0.4637 -0.0895  0.1494
 4152TIP3    H133947   5.328   1.806   4.234  1.5058 -2.4759  1.6822
 4152TIP3    H233948   5.230   1.757   4.339 -2.4345  0.8545 -0.2987
 4153TIP3   OH233949   2.396   3.255  14.943  0.7725  0.5293 -0.2346
 4153TIP3    H133950   2.408   3.226  14.853 -1.7441 -0.4536 -0.2945
 4153TIP3    H233951   2.372   3.175  14.991 -0.5783  1.5152  0.7645
 4154TIP3   OH233952   2.527   2.380  13.161 -0.0171  0.5058 -0.5923
 4154TIP3    H133953   2.496   2.383  13.252  0.3374  0.9641 -0.4851
 4154TIP3    H233954   2.589   2.308  13.159 -1.2656 -0.5768 -0.8630
 4155TIP3   OH233955   6.804   4.525  14.471 -0.1057 -0.0218  0.4446
 4155TIP3    H133956   6.780   4.460  14.538 -0.6815 -1.1190 -0.7946
 4155TIP3    H233957   6.898   4.515  14.460  0.0649  0.4734  1.4022
 4156TIP3   OH233958   3.450   0.185   1.778  0.0279  0.3205 -0.2532
 4156TIP3    H133959   3.480   0.251   1.717  1.1078  0.2349  0.1849
 4156TIP3    H233960   3.370   0.151   1.738  0.6019  0.4100 -1.5039
 4157TIP3   OH233961   2.936   4.225  13.941 -0.4914  0.0785  0.1569
 4157TIP3    H133962   3.011   4.274  13.975 -1.4534  2.9513 -1.6893
 4157TIP3    H233963   2.884   4.203  14.019  3.1260 -3.7014  1.7143
 4158TIP3   OH233964   6.221   1.051   3.089 -0.3239  0.2671  0.1291
 4158TIP3    H133965   6.259   0.979   3.140 -0.6150  0.8659  1.2209
 4158TIP3    H233966   6.242   1.030   2.998  2.2976  0.3737  0.6689
 4159TIP3   OH233967   1.237   1.622   0.806 -0.2875 -0.5848  0.0662
 4159TIP3    H133968   1.250   1.629   0.901  0.7363  1.4753 -0.1879
 4159TIP3    H233969   1.142   1.614   0.795 -0.5501  0.8235  1.1860
 4160TIP3   OH233970   1.751   3.221  15.166  0.0255  0.1601  0.1033
 4160TIP3    H133971   1.779   3.303  15.205  0.8874 -0.9432  1.8516
 4160TIP3    H233972   1.703   3.176  15.236  0.7216 -1.4143 -0.4019
 4161TIP3   OH233973   5.361   4.711  16.963  0.3502  0.0342  0.0566
 4161TIP3    H133974   5.366   4.792  16.911  0.1436  0.4833  0.7225
 4161TIP3    H233975   5.322   4.647  16.904  0.6328  0.3913 -0.5196
 4162TIP3   OH233976   1.284   6.478   0.297  0.0139  0.2303 -0.5303
 4162TIP3    H133977   1.305   6.485   0.204  1.6951  0.8649 -0.1193
 4162TIP3    H233978   1.364   6.444   0.337 -1.1385 -1.3169  0.5069
 4163TIP3   OH233979   2.477   1.757  12.387 -0.3803  0.0521  0.1719
 4163TIP3    H133980   2.481   1.759  12.292 -0.0095 -0.8105  0.1633
 4163TIP3    H233981   2.385   1.735  12.407  0.0535 -2.0739 -0.0376
 4164TIP3   OH233982   4.404   4.356   0.966 -0.0983  0.3189 -0.1761
 4164TIP3    H133983   4.327   4.410   0.951  0.4244  0.8015 -1.1699
 4164TIP3    H233984   4.451   4.401   1.037 -1.2900 -0.5957  1.2313
 4165TIP3   OH233985   4.284   4.380   3.079 -0.1825  0.0389 -0.4134
 4165TIP3    H133986   4.265   4.416   3.165 -0.5491  0.9575 -0.8714
 4165TIP3    H233987   4.201   4.343   3.049 -0.1370  0.0119 -0.5069
 4166TIP3   OH233988   5.453   4.529   4.722  0.3681 -0.1833  0.1881
 4166TIP3    H133989   5.459   4.484   4.638 -0.7612 -1.4661  0.7825
 4166TIP3    H233990   5.386   4.596   4.708  0.8752  0.2391 -0.2182
 4167TIP3   OH233991   0.333   4.547   3.243  0.5088  0.1091 -0.1750
 4167TIP3    H133992   0.264   4.595   3.198 -1.6788 -1.6675  1.1957
 4167TIP3    H233993   0.372   4.611   3.303 -0.4553  0.9254 -0.4209
 4168TIP3   OH233994   6.468   3.984   6.008  0.6820 -0.5073  0.0393
 4168TIP3    H133995   6.424   4.051   6.061  0.0631 -0.8489 -0.0302
 4168TIP3    H233996   6.396   3.930   5.975  1.1057 -0.6173 -0.7064
 4169TIP3   OH233997   3.385   0.504  11.533 -0.2547 -0.1732  0.7130
 4169TIP3    H133998   3.349   0.583  11.573 -0.1015 -0.0863  0.6762
 4169TIP3    H233999   3.442   0.467  11.601 -0.1524 -0.1332  0.6493
 4170TIP3   OH234000   5.859   1.697  13.423  0.0464  0.0003 -0.2340
 4170TIP3    H134001   5.836   1.659  13.508  1.1954  1.9916  0.9862
 4170TIP3    H234002   5.951   1.676  13.411 -0.3174 -0.9926 -1.3930
 4171TIP3   OH234003   1.810   5.326   0.185  0.0708  0.4675 -0.0458
 4171TIP3    H134004   1.738   5.281   0.140 -0.5550  0.3279  1.0748
 4171TIP3    H234005   1.888   5.278   0.158 -0.3989 -0.1962 -0.2527
 4172TIP3   OH234006   4.709   3.916   4.046 -0.3637  0.4468 -0.0726
 4172TIP3    H134007   4.620   3.892   4.020 -0.4533  1.1602 -0.4370
 4172TIP3    H234008   4.765   3.879   3.979 -0.3733 -0.1390  0.2426
 4173TIP3   OH234009   0.784   1.358   1.783 -0.0112  0.2971 -0.6475
 4173TIP3    H134010   0.760   1.334   1.693  0.4266  2.2380 -1.3218
 4173TIP3    H234011   0.797   1.453   1.779  1.6246  0.1681  1.1121
 4174TIP3   OH234012   2.970   0.562   6.569 -0.5215 -0.0284 -0.4817
 4174TIP3    H134013   3.066   0.568   6.571 -0.5167 -0.2161 -0.1636
 4174TIP3    H234014   2.950   0.482   6.617 -0.9484  1.1482  1.3218
 4175TIP3   OH234015   2.043   3.896  15.575 -0.1636 -0.7580  0.3024
 4175TIP3    H134016   2.039   3.821  15.516  0.2836 -1.1104  0.7150
 4175TIP3    H234017   2.113   3.875  15.636 -0.1414 -0.0755  0.5224
 4176TIP3   OH234018   2.533   4.458   5.711  0.2444  0.2121 -0.0713
 4176TIP3    H134019   2.569   4.432   5.795 -2.6423 -0.1709  1.1015
 4176TIP3    H234020   2.553   4.385   5.653 -0.3506 -0.8474  1.0460
 4177TIP3   OH234021   0.540   0.272  12.127 -0.7370  0.0541  0.0274
 4177TIP3    H134022   0.481   0.254  12.199 -1.4983  0.3166 -0.5230
 4177TIP3    H234023   0.627   0.255  12.162 -0.9874  1.4680  1.4160
 4178TIP3   OH234024   0.824   4.062   5.416 -0.5064 -0.2428 -0.3307
 4178TIP3    H134025   0.878   4.103   5.483 -0.1851 -1.7527  0.3604
 4178TIP3    H234026   0.741   4.044   5.460 -0.6705 -0.2538 -0.6464
 4179TIP3   OH234027   5.748   2.786   3.606  0.8523 -0.1806 -0.2987
 4179TIP3    H134028   5.760   2.850   3.676  1.4485 -0.0333 -0.5315
 4179TIP3    H234029   5.824   2.727   3.615  0.4537 -0.6914 -0.2563
 4180TIP3   OH234030   5.768   0.482   2.901 -0.3141 -0.2035 -0.0924
 4180TIP3    H134031   5.816   0.403   2.877  0.0711  0.1986 -0.6716
 4180TIP3    H234032   5.723   0.507   2.821  1.9142  1.8180 -0.7896
 4181TIP3   OH234033   6.748   1.787   4.619  0.4139 -0.1329 -0.0797
 4181TIP3    H134034   6.802   1.709   4.603  0.9770  0.0860  0.7346
 4181TIP3    H234035   6.808   1.850   4.660  0.2714  1.1491 -1.7582
 4182TIP3   OH234036   3.443   2.379  15.936  0.1252  0.5967 -0.2265
 4182TIP3    H134037   3.454   2.441  15.864 -0.3030  0.5480 -0.3341
 4182TIP3    H234038   3.386   2.424  15.998 -0.3441  0.2406 -0.3928
 4183TIP3   OH234039   1.563   4.950   5.716  0.3357 -0.0192 -0.3835
 4183TIP3    H134040   1.483   4.977   5.671  0.1517 -3.4047 -2.2553
 4183TIP3    H234041   1.614   4.905   5.649  2.2987 -0.8901  1.6254
 4184TIP3   OH234042   5.340   3.750  16.212 -0.4843 -0.0695 -0.5034
 4184TIP3    H134043   5.259   3.750  16.160  0.5477 -1.2379 -2.1812
 4184TIP3    H234044   5.327   3.682  16.278 -1.2220  0.3841 -0.1777
 4185TIP3   OH234045   5.903   4.890  16.332 -0.0624  0.0171 -0.4076
 4185TIP3    H134046   5.863   4.955  16.390  0.7524 -1.1318  1.5084
 4185TIP3    H234047   5.972   4.938  16.286  1.8758  0.1446  2.4435
 4186TIP3   OH234048   6.707   3.951   5.102 -0.1200 -0.5888  0.4947
 4186TIP3    H134049   6.627   3.899   5.101 -2.1338  2.2776  3.2266
 4186TIP3    H234050   6.732   3.956   5.194  1.0419  1.6856  0.1074
 4187TIP3   OH234051   2.655   5.717   0.387  0.1491 -0.1626 -0.0962
 4187TIP3    H134052   2.563   5.742   0.378  0.3555  1.0905  1.1615
 4187TIP3    H234053   2.686   5.766   0.463  2.0711  0.0392 -0.9856
 4188TIP3   OH234054   2.531   1.356  12.430 -0.6234 -0.6118  0.3121
 4188TIP3    H134055   2.561   1.404  12.507 -1.3985  1.3247 -0.5432
 4188TIP3    H234056   2.435   1.365  12.432 -0.5624  0.7421 -1.6529
 4189TIP3   OH234057   4.540   0.925   1.484 -0.2932  0.3426 -0.1960
 4189TIP3    H134058   4.521   1.019   1.492  1.7971  0.6893  1.4182
 4189TIP3    H234059   4.594   0.918   1.406  1.5907  0.8857  1.0095
 4190TIP3   OH234060   0.245   2.930   5.704 -0.5797  0.3858  0.0964
 4190TIP3    H134061   0.181   2.924   5.633 -0.4516  0.1083  0.0045
 4190TIP3    H234062   0.328   2.907   5.663 -0.8346 -1.9316  0.8125
 4191TIP3   OH234063   5.662   3.833  15.276  0.1321 -0.2963  0.3235
 4191TIP3    H134064   5.726   3.872  15.335  0.0834  0.2907 -0.0122
 4191TIP3    H234065   5.611   3.774  15.331  1.7679 -1.7188  0.3644
 4192TIP3   OH234066   1.356   4.637  13.797  0.1788  0.0635 -0.1499
 4192TIP3    H134067   1.313   4.652  13.882 -0.9726 -0.4354 -0.6326
 4192TIP3    H234068   1.446   4.615  13.820  0.7462  3.1187  0.7781
 4193TIP3   OH234069   6.124   5.660   2.395  0.5456 -0.4614  0.4600
 4193TIP3    H134070   6.063   5.595   2.431  1.2791 -0.4451  1.7669
 4193TIP3    H234071   6.074   5.704   2.326 -0.4576 -1.3933  0.5767
 4194TIP3   OH234072   6.699   4.088  14.789 -0.4903 -0.7186 -0.2072
 4194TIP3    H134073   6.635   4.029  14.750 -1.5354  0.9385 -1.0433
 4194TIP3    H234074   6.718   4.152  14.721  1.7067 -0.9113  0.2055
 4195TIP3   OH234075   2.912   1.387  14.604  0.4099 -0.5018  0.2217
 4195TIP3    H134076   2.828   1.363  14.565 -0.5027 -0.1508  1.9166
 4195TIP3    H234077   2.972   1.317  14.577 -0.7106 -1.3786 -0.0381
 4196TIP3   OH234078   5.445   4.101  13.912  0.1511  0.4206  0.0502
 4196TIP3    H134079   5.486   4.154  13.980 -1.8086  0.7764  0.9925
 4196TIP3    H234080   5.519   4.062  13.864  1.5886  2.3852  0.5990
 4197TIP3   OH234081   4.119   6.765  16.159  0.1633  0.2365  0.1144
 4197TIP3    H134082   4.182   6.704  16.197  0.1571  0.6263  0.7529
 4197TIP3    H234083   4.037   6.715  16.153  0.1594  0.1761  0.6315
 4198TIP3   OH234084   4.819   1.511   0.877 -0.5339 -0.0473 -0.5023
 4198TIP3    H134085   4.833   1.595   0.920  0.2670 -0.1043 -0.6615
 4198TIP3    H234086   4.723   1.503   0.872 -0.7297 -0.8638  2.9324
 4199TIP3   OH234087   6.771   2.181  12.555 -0.2829 -0.1645  0.4495
 4199TIP3    H134088   6.680   2.182  12.585  0.4246  0.4337  2.7106
 4199TIP3    H234089   6.811   2.255  12.601  1.2314 -0.1167 -0.9174
 4200TIP3   OH234090   4.068   4.672  16.754  0.6663  0.2921 -0.1064
 4200TIP3    H134091   3.985   4.687  16.800  1.6191  1.3626  1.2852
 4200TIP3    H234092   4.044   4.612  16.683 -0.5970 -2.6414  2.6203
 4201TIP3   OH234093   6.819   3.851  12.102  0.2979 -0.0509 -0.3679
 4201TIP3    H134094   6.882   3.896  12.045 -1.0539 -0.5162 -2.2618
 4201TIP3    H234095   6.734   3.866  12.061 -0.6106 -1.1334  1.0679
 4202TIP3   OH234096   1.468   1.520  16.733 -0.4286 -0.1472  0.9589
 4202TIP3    H134097   1.442   1.607  16.706  0.7042 -0.1782 -0.2971
 4202TIP3    H234098   1.554   1.506  16.692  0.2418 -1.1461  2.6053
 4203TIP3   OH234099   2.162   3.482   0.804 -0.1339  0.4037 -0.0604
 4203TIP3    H134100   2.131   3.507   0.891  0.5946  1.1294 -0.0144
 4203TIP3    H234101   2.110   3.404   0.782 -0.9265  0.7269  0.6567
 4204TIP3   OH234102   6.142   3.163  16.367 -0.5108 -0.9996 -0.0952
 4204TIP3    H134103   6.174   3.149  16.456  0.1978  0.2393 -0.1525
 4204TIP3    H234104   6.068   3.223  16.377  0.1882 -0.0638 -0.4229
 4205TIP3   OH234105   2.496   0.412   2.809  0.0839 -0.3025  0.4795
 4205TIP3    H134106   2.509   0.338   2.869 -0.3139  0.7810  1.9474
 4205TIP3    H234107   2.493   0.489   2.867  1.5231  0.9727 -1.1026
 4206TIP3   OH234108   6.598   4.480   5.795  0.2532  0.1968  0.0896
 4206TIP3    H134109   6.675   4.447   5.841  0.8136  2.0331  0.5528
 4206TIP3    H234110   6.634   4.535   5.725 -0.5649  2.8366  1.6422
 4207TIP3   OH234111   0.482   4.966   5.318  0.1339  0.3686 -0.3375
 4207TIP3    H134112   0.516   5.013   5.395 -1.5069  1.5765 -0.3256
 4207TIP3    H234113   0.559   4.921   5.282  1.4825  1.9770  0.4381
 4208TIP3   OH234114   6.408   6.281  14.472  0.2254  0.6743 -0.7033
 4208TIP3    H134115   6.327   6.318  14.435 -0.2243  0.7094  0.2840
 4208TIP3    H234116   6.399   6.294  14.567  0.7731 -0.5422 -0.4696
 4209TIP3   OH234117   0.841   2.210  10.513 -0.1767 -0.1418  0.4899
 4209TIP3    H134118   0.767   2.151  10.496 -0.4066  0.2701  0.0729
 4209TIP3    H234119   0.801   2.289  10.549  0.0628  0.0538  0.3259
 4210TIP3   OH234120   3.896   3.780   4.883  0.1088  0.4254 -0.5151
 4210TIP3    H134121   3.900   3.687   4.907 -1.1139  0.8264  1.3128
 4210TIP3    H234122   3.983   3.814   4.905  0.0571  0.0634  0.2396
 4211TIP3   OH234123   4.503   6.189  10.582  0.0995 -0.8366 -0.0937
 4211TIP3    H134124   4.476   6.135  10.655  0.1940 -0.5243  0.1721
 4211TIP3    H234125   4.582   6.235  10.613  0.5615 -1.2501 -0.6381
 4212TIP3   OH234126   1.474   3.488   3.539 -0.5168  0.2227  0.2683
 4212TIP3    H134127   1.407   3.553   3.519 -0.6136 -0.1758 -0.7240
 4212TIP3    H234128   1.437   3.405   3.507 -0.5842 -0.4005  1.9045
 4213TIP3   OH234129   4.278   1.201  12.335 -0.4766 -0.2575  0.3582
 4213TIP3    H134130   4.302   1.249  12.256 -0.0336  0.0062  0.6447
 4213TIP3    H234131   4.183   1.207  12.340 -0.7256 -2.4001 -1.4862
 4214TIP3   OH234132   3.378   0.772  11.910  0.0079  0.1616  0.1079
 4214TIP3    H134133   3.467   0.807  11.918  0.0730 -0.0497  0.3121
 4214TIP3    H234134   3.323   0.837  11.953  0.1985 -0.2853  1.0482
 4215TIP3   OH234135   2.399   2.027   2.389 -0.2322  0.1268 -0.1661
 4215TIP3    H134136   2.337   2.016   2.461 -0.8136  1.4865 -0.4440
 4215TIP3    H234137   2.346   2.056   2.315  0.3455 -1.3572 -1.1765
 4216TIP3   OH234138   5.161   5.932   3.270 -0.3066  0.2885  0.1768
 4216TIP3    H134139   5.080   5.953   3.318  0.1286 -0.2552  1.1614
 4216TIP3    H234140   5.215   5.886   3.334  0.9424  0.9821 -0.3605
 4217TIP3   OH234141   2.147   4.659  11.840  0.0953  0.3200 -0.2706
 4217TIP3    H134142   2.172   4.742  11.881  0.4444 -0.4933  1.2079
 4217TIP3    H234143   2.052   4.665  11.829  0.0740  0.7843  0.1368
 4218TIP3   OH234144   4.725   2.526  11.056 -0.1143 -0.5535  0.0973
 4218TIP3    H134145   4.785   2.511  11.128 -1.2002 -1.3998  0.8501
 4218TIP3    H234146   4.774   2.500  10.978  1.3139  1.0356  0.4243
 4219TIP3   OH234147   0.296   1.624  16.408  0.2350  0.4509 -0.5407
 4219TIP3    H134148   0.317   1.651  16.498  2.1292 -0.6444 -0.6088
 4219TIP3    H234149   0.277   1.705  16.362  1.0598  1.2076  0.4252
 4220TIP3   OH234150   1.034   4.610  16.109  0.6361 -0.6734 -0.0814
 4220TIP3    H134151   1.104   4.584  16.169 -0.5204 -0.7850  1.2471
 4220TIP3    H234152   1.002   4.693  16.144  1.0685  0.1186 -1.5189
 4221TIP3   OH234153   3.165   6.797  12.381 -0.2979 -0.2766 -0.1607
 4221TIP3    H134154   3.228   6.845  12.435  1.1093 -1.0416 -1.0726
 4221TIP3    H234155   3.212   6.780  12.299 -1.5092 -1.3527 -0.6586
 4222TIP3   OH234156   5.818   5.586   5.872  0.0291  0.4217 -0.1116
 4222TIP3    H134157   5.881   5.515   5.880 -0.3317  0.0828 -0.2353
 4222TIP3    H234158   5.760   5.559   5.801  0.8760  1.6000 -1.2838
 4223TIP3   OH234159   0.776   6.487   3.119 -0.1760  0.3424 -0.7239
 4223TIP3    H134160   0.724   6.444   3.051 -2.1142  0.2159  0.7669
 4223TIP3    H234161   0.775   6.580   3.096 -2.4319  0.5637  0.0868
 4224TIP3   OH234162   2.070   4.160  15.514  1.2047  0.1611 -0.2309
 4224TIP3    H134163   2.082   4.066  15.525  0.6843  0.1129 -0.0682
 4224TIP3    H234164   2.006   4.168  15.445  1.2440  0.3987 -0.2402
 4225TIP3   OH234165   3.125   4.605  15.471 -0.2982 -0.4322  0.8355
 4225TIP3    H134166   3.173   4.655  15.405 -0.5679  0.6092  1.4136
 4225TIP3    H234167   3.039   4.591  15.431 -1.2289  2.1221  1.8044
 4226TIP3   OH234168   5.907   0.279  15.542 -0.2112  0.0577 -0.0571
 4226TIP3    H134169   5.923   0.185  15.548  1.4165  0.3043 -0.3892
 4226TIP3    H234170   5.951   0.316  15.618  0.6175  0.7331 -0.8568
 4227TIP3   OH234171   0.007   0.890  11.518 -0.1443 -0.6056 -0.4185
 4227TIP3    H134172   0.013   0.874  11.612 -1.4707 -1.3516 -0.4514
 4227TIP3    H234173  -0.081   0.862  11.494 -0.6478  1.7350 -1.4656
 4228TIP3   OH234174   4.211   6.733   5.016  0.0001 -0.3113 -0.4339
 4228TIP3    H134175   4.196   6.689   4.932 -0.2024  1.6114 -1.4296
 4228TIP3    H234176   4.264   6.810   4.994 -2.3610  1.7230  0.7800
 4229TIP3   OH234177   0.210   0.432   3.357 -0.0132 -0.0140  0.2746
 4229TIP3    H134178   0.127   0.399   3.392 -0.4005 -2.0282 -2.3696
 4229TIP3    H234179   0.260   0.353   3.335  0.1988  1.0556 -3.5681
 4230TIP3   OH234180   4.279   6.096  14.547  0.8083 -0.7943  0.1594
 4230TIP3    H134181   4.269   6.170  14.608  0.0453  0.1702 -1.1097
 4230TIP3    H234182   4.354   6.048  14.581  0.2157 -0.4421  2.0339
 4231TIP3   OH234183   4.281   2.905  11.228 -0.4225 -0.1663 -0.1661
 4231TIP3    H134184   4.346   2.864  11.286  0.6283  0.0161 -1.1892
 4231TIP3    H234185   4.209   2.842  11.224 -0.1935 -0.4936  0.7713
 4232TIP3   OH234186   0.186   0.986  13.475 -0.5426  0.6420  0.7825
 4232TIP3    H134187   0.101   0.972  13.517 -1.4192 -1.2264 -1.4980
 4232TIP3    H234188   0.245   0.925  13.519 -1.1168 -0.2783  0.2897
 4233TIP3   OH234189   6.808   0.579  14.653  0.4377  0.3398  0.1583
 4233TIP3    H134190   6.722   0.547  14.681  0.6446 -2.1503 -1.8589
 4233TIP3    H234191   6.814   0.666  14.691 -2.3804  0.0153  1.5299
 4234TIP3   OH234192   6.686   5.862  17.122 -0.3160  0.1353 -0.2609
 4234TIP3    H134193   6.768   5.880  17.168  0.2571 -0.0490 -1.1811
 4234TIP3    H234194   6.693   5.913  17.041 -1.2560  0.3818 -0.1845
 4235TIP3   OH234195   2.761   0.567  13.385  0.3850  0.8037  0.0712
 4235TIP3    H134196   2.757   0.495  13.322 -3.7826  1.4969 -0.6035
 4235TIP3    H234197   2.812   0.635  13.341  1.1450 -0.2880 -0.7818
 4236TIP3   OH234198   5.047   6.771  11.971 -0.3365 -0.4179 -0.4965
 4236TIP3    H134199   4.955   6.770  11.998  0.3392  1.0350  2.0121
 4236TIP3    H234200   5.049   6.832  11.897 -1.1678  0.8224  0.4757
 4237TIP3   OH234201   4.573   5.598   2.645  0.3575  0.0249  0.1704
 4237TIP3    H134202   4.570   5.566   2.735  1.1252 -1.8272 -0.4459
 4237TIP3    H234203   4.606   5.687   2.653 -0.9891  0.4112  1.8400
 4238TIP3   OH234204   5.928   4.066  14.714  0.5063  0.7759  0.0576
 4238TIP3    H134205   5.980   4.146  14.713 -1.0222  1.7645 -1.3449
 4238TIP3    H234206   5.909   4.048  14.622 -1.7115  0.4732  0.5651
 4239TIP3   OH234207   4.540   4.596   5.079 -0.1980 -0.2474  0.3064
 4239TIP3    H134208   4.591   4.622   5.156  0.2303 -1.6939  0.5227
 4239TIP3    H234209   4.553   4.668   5.017  1.0229  0.0361  0.8670
 4240TIP3   OH234210   4.373   3.567   0.228 -0.5962  0.4859  0.7754
 4240TIP3    H134211   4.311   3.633   0.195  0.2223  1.5305  1.2808
 4240TIP3    H234212   4.444   3.619   0.267  1.8258 -0.6299 -1.9617
 4241TIP3   OH234213   3.363   0.622   3.475  0.5119  0.5574  0.0945
 4241TIP3    H134214   3.427   0.558   3.443  2.0754  2.0647  0.1343
 4241TIP3    H234215   3.403   0.658   3.554 -0.8616  0.7957  0.6988
 4242TIP3   OH234216   0.588   0.989   1.984  0.0283 -0.2683 -0.9629
 4242TIP3    H134217   0.558   1.079   1.997 -1.5314 -1.0441  1.3263
 4242TIP3    H234218   0.600   0.980   1.890  2.2253  2.9375 -1.0490
 4243TIP3   OH234219   0.143   3.866  10.984  0.2611  0.0611  0.0134
 4243TIP3    H134220   0.077   3.836  10.922 -1.3666 -1.8901  2.5526
 4243TIP3    H234221   0.218   3.809  10.968 -0.2663 -0.6509  0.0334
 4244TIP3   OH234222   1.322   0.754  12.717 -0.3647 -0.7065 -0.1755
 4244TIP3    H134223   1.267   0.833  12.717 -0.4318 -0.7316 -1.6196
 4244TIP3    H234224   1.397   0.777  12.773 -0.0041  0.6720 -1.1916
 4245TIP3   OH234225   3.795   0.591  12.434  0.0743  0.1080  0.3051
 4245TIP3    H134226   3.730   0.660  12.444  1.1198  1.2552 -0.6565
 4245TIP3    H234227   3.801   0.551  12.521 -1.7555  0.1133  0.4547
 4246TIP3   OH234228   3.977   2.786   4.670 -0.3380 -0.5205 -0.3408
 4246TIP3    H134229   4.004   2.807   4.759  0.0331 -0.2672 -0.5098
 4246TIP3    H234230   3.894   2.740   4.680 -0.9840  0.7025  0.0557
 4247TIP3   OH234231   6.317   3.194   6.441 -0.0045 -0.0349  0.3007
 4247TIP3    H134232   6.239   3.220   6.391 -1.4554 -0.6360  2.1809
 4247TIP3    H234233   6.327   3.101   6.422  0.6158  0.1669 -0.3891
 4248TIP3   OH234234   5.408   2.257  16.182 -0.2967 -0.2360  0.4813
 4248TIP3    H134235   5.381   2.210  16.261 -0.0944  0.4207  0.9490
 4248TIP3    H234236   5.500   2.232  16.170 -0.4600 -0.7069  0.1750
 4249TIP3   OH234237   2.864   5.242   2.019 -0.1168  0.0685  0.4778
 4249TIP3    H134238   2.809   5.164   2.026 -0.3793  0.2931  0.8914
 4249TIP3    H234239   2.803   5.315   2.029  0.0458  0.3365 -0.4726
 4250TIP3   OH234240   3.351   2.043  10.738  0.1345 -0.1945  0.1995
 4250TIP3    H134241   3.258   2.061  10.729  0.0859  1.0542  2.7310
 4250TIP3    H234242   3.386   2.119  10.785  1.8382 -2.0720  2.0908
 4251TIP3   OH234243   1.749   0.290   2.325  0.0844 -0.3036 -0.3288
 4251TIP3    H134244   1.706   0.349   2.262 -1.2503 -0.7382  0.1488
 4251TIP3    H234245   1.690   0.215   2.331  1.1657 -1.1327 -0.0028
 4252TIP3   OH234246   5.256   3.407   4.141 -0.2099  0.3367 -0.3121
 4252TIP3    H134247   5.278   3.316   4.159  2.7229  0.2551 -3.7805
 4252TIP3    H234248   5.198   3.403   4.065 -1.0951  1.3127  0.3015
 4253TIP3   OH234249   2.216   2.266   1.778  0.3538 -0.0456 -0.1576
 4253TIP3    H134250   2.246   2.175   1.771 -1.6577 -0.6474 -1.3421
 4253TIP3    H234251   2.291   2.318   1.751  1.1087 -1.4021 -0.7394
 4254TIP3   OH234252   6.144   2.369  15.046 -0.2674  0.4400 -0.4485
 4254TIP3    H134253   6.146   2.287  14.997 -0.1722  0.0104  0.2651
 4254TIP3    H234254   6.059   2.367  15.091  0.1682  0.2488  0.3775
 4255TIP3   OH234255   2.992   2.019  12.329 -0.1846  0.3160 -0.0392
 4255TIP3    H134256   2.924   1.955  12.348 -0.0138  0.1260 -0.0705
 4255TIP3    H234257   3.009   2.062  12.413  1.8813 -1.7777  0.6825
 4256TIP3   OH234258   2.280   4.164   4.786 -0.6696 -0.1883  0.0181
 4256TIP3    H134259   2.352   4.197   4.733 -0.4851 -3.3865 -1.7722
 4256TIP3    H234260   2.305   4.187   4.876  1.2747  1.0586 -0.7975
 4257TIP3   OH234261   3.573   3.495  12.220  0.2429 -0.6842  0.1052
 4257TIP3    H134262   3.567   3.528  12.131 -0.9918 -0.3607  0.3007
 4257TIP3    H234263   3.603   3.569  12.272  3.6661 -1.5925 -0.4475
 4258TIP3   OH234264   3.030   5.033  12.340  0.1372  0.0460 -0.0431
 4258TIP3    H134265   2.955   5.025  12.399 -0.5268  0.1626 -0.8748
 4258TIP3    H234266   3.035   4.948  12.296 -1.6705  1.1993 -2.5755
 4259TIP3   OH234267   0.209   3.990   4.143  0.1979 -0.6623  0.4604
 4259TIP3    H134268   0.114   4.003   4.145  0.0706 -1.4734 -0.1484
 4259TIP3    H234269   0.237   4.006   4.233 -0.1301  2.4326  0.0471
 4260TIP3   OH234270   0.956   0.739   1.193  0.0025 -0.0726  0.1478
 4260TIP3    H134271   0.999   0.748   1.278 -0.2785  1.5328  0.1419
 4260TIP3    H234272   0.974   0.649   1.165  3.2033  0.5216  0.1944
 4261TIP3   OH234273   1.919   2.480  15.603 -0.0663  0.0400 -0.2440
 4261TIP3    H134274   1.913   2.385  15.613 -0.5854 -0.0298 -1.1797
 4261TIP3    H234275   2.006   2.496  15.567  0.7124  0.0708  1.5878
 4262TIP3   OH234276   6.457   4.716  15.833 -0.3991  0.0404  0.2789
 4262TIP3    H134277   6.517   4.759  15.771 -0.3192  0.6286  0.7539
 4262TIP3    H234278   6.515   4.676  15.897 -0.5202  1.2075  1.1319
 4263TIP3   OH234279   2.087   4.385  11.703  0.2306  0.1683  0.1489
 4263TIP3    H134280   2.158   4.446  11.723 -0.4502  1.1707 -0.4284
 4263TIP3    H234281   2.024   4.438  11.654 -1.2148 -0.5588  1.2131
 4264TIP3   OH234282   3.702   1.898  15.845  0.1476  0.2082  0.0138
 4264TIP3    H134283   3.621   1.945  15.825  0.0852 -1.0736 -2.9610
 4264TIP3    H234284   3.676   1.807  15.854  1.1527 -0.1167 -0.2643
 4265TIP3   OH234285   0.107   5.310  16.534  0.4404  0.1822 -0.7821
 4265TIP3    H134286   0.151   5.279  16.455  2.5926 -0.2518  0.5546
 4265TIP3    H234287   0.088   5.230  16.584 -1.5385  0.3957 -1.1492
 4266TIP3   OH234288   0.370   6.691   4.581  0.2306 -0.0104 -0.0582
 4266TIP3    H134289   0.335   6.676   4.493  0.4616 -0.8579 -0.0125
 4266TIP3    H234290   0.293   6.708   4.635  0.1120  0.8154 -0.4822
 4267TIP3   OH234291   1.553   4.293  13.779  0.7225  0.2924 -0.2457
 4267TIP3    H134292   1.568   4.281  13.685  0.4740  2.0522 -0.5210
 4267TIP3    H234293   1.541   4.387  13.789  0.8004  0.1133  1.5688
 4268TIP3   OH234294   1.949   0.213  16.120  0.0352 -0.1680  0.0402
 4268TIP3    H134295   1.987   0.139  16.072  0.3821 -1.1581  1.8088
 4268TIP3    H234296   2.007   0.226  16.195 -1.0842  0.6696  0.7792
 4269TIP3   OH234297   3.247   1.947   2.779 -0.3013  0.6946 -0.0978
 4269TIP3    H134298   3.206   1.870   2.738  0.4645  1.2828 -2.0354
 4269TIP3    H234299   3.293   1.990   2.707 -0.4591  2.8016  1.0443
 4270TIP3   OH234300   5.133   3.440  13.071  0.3071 -0.4902 -0.3212
 4270TIP3    H134301   5.191   3.426  12.996 -2.1648  1.1373 -2.6261
 4270TIP3    H234302   5.149   3.365  13.128  2.3861 -1.6792 -2.3874
 4271TIP3   OH234303   3.351   4.065  16.971  0.6668  0.6769 -0.6459
 4271TIP3    H134304   3.258   4.063  16.948  0.2136  1.4031  1.0630
 4271TIP3    H234305   3.356   4.016  17.053  2.0863 -0.8766 -1.6280
 4272TIP3   OH234306   5.234   3.258   4.690 -0.6500 -0.0739  0.1975
 4272TIP3    H134307   5.254   3.320   4.760 -0.6077 -0.0683  0.1805
 4272TIP3    H234308   5.157   3.294   4.647 -0.9680 -0.3313  0.5477
 4273TIP3   OH234309   3.466   0.117  11.941  0.5243 -0.3631 -0.0512
 4273TIP3    H134310   3.494   0.188  11.998 -0.4607  0.3229 -0.4079
 4273TIP3    H234311   3.547   0.077  11.911  1.0537 -0.6261  1.6941
 4274TIP3   OH234312   1.631   2.714   5.673 -0.1008 -0.3122 -0.4419
 4274TIP3    H134313   1.674   2.703   5.588  1.2469 -1.3371  0.3506
 4274TIP3    H234314   1.638   2.628   5.714 -0.0800  0.3792  1.0157
 4275TIP3   OH234315   2.705   4.596   0.549  0.3106 -0.1544 -0.4156
 4275TIP3    H134316   2.679   4.592   0.457  0.2739  0.4256 -0.4319
 4275TIP3    H234317   2.755   4.516   0.563  2.4556  0.9316 -1.5990
 4276TIP3   OH234318   1.463   1.628  11.510 -0.3265 -0.0026 -0.0434
 4276TIP3    H134319   1.543   1.610  11.461 -0.1493 -0.0221  0.2533
 4276TIP3    H234320   1.393   1.593  11.455 -0.1413  0.1029 -0.3510
 4277TIP3   OH234321   5.309   2.175   0.922  0.6722  0.0437 -0.2244
 4277TIP3    H134322   5.246   2.113   0.960  0.1423 -0.0245 -1.2187
 4277TIP3    H234323   5.284   2.260   0.958  0.3973 -0.0777 -0.1297
 4278TIP3   OH234324   5.640   2.266   2.431  0.5460 -0.1544  0.1160
 4278TIP3    H134325   5.553   2.286   2.397  0.0868 -1.2529  0.6280
 4278TIP3    H234326   5.636   2.174   2.456  1.7022 -0.0813  0.6270
 4279TIP3   OH234327   1.838   6.226   0.915  0.6662 -0.3957 -0.0976
 4279TIP3    H134328   1.755   6.214   0.962  1.5503 -0.7766  1.3798
 4279TIP3    H234329   1.811   6.252   0.827 -1.0155  0.2481  0.5783
 4280TIP3   OH234330   2.454   1.317  15.492 -0.2657 -0.3572 -0.1351
 4280TIP3    H134331   2.540   1.340  15.458  0.0133 -1.5258 -0.2621
 4280TIP3    H234332   2.404   1.293  15.414 -0.4824 -0.3753  0.0094
 4281TIP3   OH234333   5.583   6.454   0.928 -0.4779 -0.1785 -0.2259
 4281TIP3    H134334   5.516   6.412   0.982  0.3381 -0.0881  0.8784
 4281TIP3    H234335   5.559   6.547   0.929 -1.0716 -0.3207 -0.9099
 4282TIP3   OH234336   4.958   4.846   4.264  0.0792 -0.0231 -0.4566
 4282TIP3    H134337   5.043   4.804   4.251 -0.5196 -1.4332  0.0102
 4282TIP3    H234338   4.959   4.874   4.355  0.9329  2.0751 -1.0851
 4283TIP3   OH234339   4.284   6.596   4.461  0.8307  0.4299 -0.3689
 4283TIP3    H134340   4.367   6.635   4.434  0.9838  0.3818  0.0338
 4283TIP3    H234341   4.281   6.511   4.416 -0.1509  1.4722 -2.3893
 4284TIP3   OH234342   4.175   5.726   1.899 -0.0150  0.5842  0.6673
 4284TIP3    H134343   4.108   5.701   1.963  0.0659  0.4812  0.7125
 4284TIP3    H234344   4.254   5.682   1.929 -0.4138 -1.0326 -0.5535
 4285TIP3   OH234345   5.694   5.053  11.682  0.6385  0.1295  0.0429
 4285TIP3    H134346   5.750   4.994  11.631  1.4752  0.5523  0.4785
 4285TIP3    H234347   5.622   5.074  11.622  2.5671  2.1281 -1.6570
 4286TIP3   OH234348   0.084   5.510  10.924  0.9483 -0.3351  0.1956
 4286TIP3    H134349   0.077   5.415  10.928  0.7493 -0.3886 -1.2972
 4286TIP3    H234350   0.175   5.529  10.944  0.9241 -0.8108  0.7852
 4287TIP3   OH234351   3.656   5.349  14.590  0.1264  0.0724 -0.8211
 4287TIP3    H134352   3.734   5.370  14.537 -0.0910 -1.3139 -1.7300
 4287TIP3    H234353   3.691   5.303  14.666  0.3586  1.2327 -0.2124
 4288TIP3   OH234354   5.527   0.322  14.035 -0.1152  0.6343  0.0957
 4288TIP3    H134355   5.481   0.250  13.992 -0.7839  1.4130 -0.5029
 4288TIP3    H234356   5.556   0.378  13.964  2.7882 -0.4033  0.3727
 4289TIP3   OH234357   4.957   5.771   0.845 -0.1565 -0.8000  0.7299
 4289TIP3    H134358   4.958   5.816   0.760 -0.2713 -0.7778  0.7403
 4289TIP3    H234359   5.007   5.691   0.830 -0.2453 -0.8344  0.6194
 4290TIP3   OH234360   5.893   3.847   0.505  0.2480 -0.6251  0.1134
 4290TIP3    H134361   5.922   3.765   0.546 -0.4691 -0.3437  1.2282
 4290TIP3    H234362   5.881   3.825   0.413  2.3403 -1.1700 -0.0573
 4291TIP3   OH234363   2.651   0.375  15.901  0.0716 -0.0043  0.0224
 4291TIP3    H134364   2.713   0.417  15.961 -2.4529  1.7164  1.5506
 4291TIP3    H234365   2.633   0.290  15.941  1.0385 -0.3093 -0.1727
 4292TIP3   OH234366   6.665   3.929   6.197  0.4263 -0.1878 -0.3240
 4292TIP3    H134367   6.597   3.949   6.132  0.6443 -0.2202 -0.5661
 4292TIP3    H234368   6.638   3.846   6.236 -0.4579  0.5339  0.6439
 4293TIP3   OH234369   4.731   4.616   4.262  0.5868 -0.0296  0.1664
 4293TIP3    H134370   4.693   4.631   4.175 -0.3738  1.6470  0.8439
 4293TIP3    H234371   4.808   4.674   4.264  2.0220 -1.8748 -0.4397
 4294TIP3   OH234372   6.291   0.578   6.298  0.1311  0.3150 -0.6545
 4294TIP3    H134373   6.274   0.484   6.287 -1.1106  0.4004  0.3889
 4294TIP3    H234374   6.376   0.582   6.342  0.1594 -0.3117 -0.6514
 4295TIP3   OH234375   1.947   1.465   5.396  0.5484  0.2750 -0.1546
 4295TIP3    H134376   2.028   1.414   5.396 -0.3244 -1.1294 -0.3336
 4295TIP3    H234377   1.942   1.501   5.307  0.4635 -0.4845 -0.4640
 4296TIP3   OH234378   4.645   0.191   5.103 -0.3282  0.9534  0.0494
 4296TIP3    H134379   4.651   0.143   5.185  0.3222 -0.8734 -1.0379
 4296TIP3    H234380   4.589   0.266   5.123 -0.9653  0.0083  1.9072
 4297TIP3   OH234381   3.480   2.240  11.433  0.4882  0.1892  0.1373
 4297TIP3    H134382   3.438   2.325  11.450  1.1250 -0.0537  3.2147
 4297TIP3    H234383   3.479   2.195  11.518 -0.5150 -3.2296 -1.6065
 4298TIP3   OH234384   1.380   2.814   5.639 -0.7371 -0.3002 -0.2948
 4298TIP3    H134385   1.320   2.742   5.659  0.8024 -2.1718 -2.2571
 4298TIP3    H234386   1.467   2.778   5.651  0.0728  1.3384 -1.0198
 4299TIP3   OH234387   6.650   2.160   2.322  0.4121  0.1096 -0.2161
 4299TIP3    H134388   6.658   2.147   2.416  0.9480  2.4703  0.0777
 4299TIP3    H234389   6.716   2.225   2.300 -1.9289  2.1038 -1.6730
 4300TIP3   OH234390   5.848   5.365  14.235  0.0436 -0.0889  0.0065
 4300TIP3    H134391   5.916   5.298  14.239  1.4426  1.2877 -0.4352
 4300TIP3    H234392   5.855   5.403  14.148 -1.4376 -0.0697 -0.1225
 4301TIP3   OH234393   6.432   2.626  12.532 -0.2882  0.3098  0.4047
 4301TIP3    H134394   6.403   2.552  12.585  0.0256  1.5243  2.3299
 4301TIP3    H234395   6.486   2.678  12.592  1.2221  0.9930 -1.5131
 4302TIP3   OH234396   3.454   2.045   4.284 -0.6437  0.0379 -0.3125
 4302TIP3    H134397   3.500   2.016   4.363 -0.8559 -1.5134 -0.7483
 4302TIP3    H234398   3.496   1.997   4.213 -0.3386  1.5572 -1.1762
 4303TIP3   OH234399   1.479   5.724  11.504 -0.1147  0.4689  0.1536
 4303TIP3    H134400   1.548   5.776  11.464  0.8020 -1.5407 -0.9392
 4303TIP3    H234401   1.525   5.663  11.562 -1.0345 -0.1366  0.2640
 4304TIP3   OH234402   6.086   5.266  12.750  0.1204  0.5135  0.0707
 4304TIP3    H134403   6.035   5.346  12.735 -0.4494  0.9176  3.8598
 4304TIP3    H234404   6.021   5.200  12.775  1.0740  0.0650  1.3826
 4305TIP3   OH234405   3.367   6.766   1.179  0.3956  0.1396 -0.3519
 4305TIP3    H134406   3.362   6.777   1.084  1.5251  0.2400 -0.4010
 4305TIP3    H234407   3.444   6.712   1.193  0.6424  0.7154  0.5550
 4306TIP3   OH234408   4.712   3.369   3.686  0.2376  0.2724  0.1449
 4306TIP3    H134409   4.718   3.277   3.661 -1.2987 -0.1731  1.3189
 4306TIP3    H234410   4.785   3.411   3.642  0.3402 -1.3280 -1.2488
 4307TIP3   OH234411   2.622   0.852  16.981  0.6034 -0.0367 -0.3479
 4307TIP3    H134412   2.556   0.833  17.048 -0.1214 -2.0318 -1.5828
 4307TIP3    H234413   2.706   0.849  17.028 -0.0542  0.8818  0.9031
 4308TIP3   OH234414   4.388   6.791  13.151 -0.1774 -0.3187  0.2717
 4308TIP3    H134415   4.475   6.829  13.157  0.4686 -1.3371 -2.1627
 4308TIP3    H234416   4.391   6.714  13.209  0.1839  0.2585  1.0270
 4309TIP3   OH234417   5.063   3.310   5.833  0.4956 -0.7796  1.0970
 4309TIP3    H134418   5.052   3.267   5.918  0.1860 -0.2638  1.3182
 4309TIP3    H234419   5.071   3.403   5.854 -1.7161 -0.4116  0.4052
 4310TIP3   OH234420   4.052   5.631  14.980 -0.0626 -0.0446 -0.1299
 4310TIP3    H134421   4.060   5.710  14.925  1.3532  0.8155  1.2537
 4310TIP3    H234422   3.978   5.650  15.038  0.1103  0.1728  0.0235
 4311TIP3   OH234423   5.349   1.046   5.940  0.1203 -0.5821  0.1557
 4311TIP3    H134424   5.404   1.125   5.942  0.2311 -0.6906  1.9876
 4311TIP3    H234425   5.400   0.983   5.888  1.4075 -0.4378  1.2060
 4312TIP3   OH234426   5.435   6.395  10.730  0.2858  0.0324  0.2973
 4312TIP3    H134427   5.363   6.357  10.780  1.9728 -3.6255  0.0494
 4312TIP3    H234428   5.401   6.399  10.640 -0.4144  0.5013  0.5778
 4313TIP3   OH234429   0.700   1.175  15.392 -0.5586  0.0691 -0.0432
 4313TIP3    H134430   0.750   1.195  15.313 -0.6252  0.5072  0.0254
 4313TIP3    H234431   0.715   1.250  15.450  0.9538 -1.0670  1.0942
 4314TIP3   OH234432   1.286   4.897  14.669 -0.0099  0.0195 -0.3384
 4314TIP3    H134433   1.240   4.967  14.623 -0.3954  0.7521  1.1365
 4314TIP3    H234434   1.261   4.907  14.760  1.0181 -1.2043  0.1020
 4315TIP3   OH234435   1.892   3.167  15.437 -0.2402  0.2331  0.4143
 4315TIP3    H134436   1.891   3.076  15.405  1.2007 -0.2925  1.7830
 4315TIP3    H234437   1.898   3.158  15.532 -1.8592  1.7788  0.6769
 4316TIP3   OH234438   2.663   2.375   2.815  0.0509  0.0248 -0.4930
 4316TIP3    H134439   2.628   2.351   2.729 -0.8017 -0.0625 -0.1191
 4316TIP3    H234440   2.659   2.471   2.816  0.0026  0.0237 -0.5281
 4317TIP3   OH234441   1.492   3.168  14.581 -0.1851 -0.0912 -0.7227
 4317TIP3    H134442   1.566   3.228  14.581 -0.0086 -0.2785  1.1759
 4317TIP3    H234443   1.529   3.084  14.609 -1.0230 -0.2787 -0.1397
 4318TIP3   OH234444   3.738   1.800  11.569 -0.4895  0.0227 -0.3490
 4318TIP3    H134445   3.819   1.749  11.570 -1.1048 -0.9705 -0.9451
 4318TIP3    H234446   3.760   1.879  11.519  0.4568  0.3617  0.5765
 4319TIP3   OH234447   3.042   5.108   3.591 -0.1342  0.4021  0.5975
 4319TIP3    H134448   3.102   5.109   3.516 -0.4106  0.5460  0.3814
 4319TIP3    H234449   3.100   5.114   3.667 -0.0055  3.1030  0.3381
 4320TIP3   OH234450   3.671   0.105  11.657 -0.0447  0.3017  1.0199
 4320TIP3    H134451   3.629   0.052  11.589  0.5019 -0.9379  1.6355
 4320TIP3    H234452   3.659   0.196  11.627 -2.1255 -0.0786  0.6009
 4321TIP3   OH234453   0.515   0.513  14.659  0.2394  0.1511  0.2577
 4321TIP3    H134454   0.436   0.567  14.654 -1.5057 -2.3262  0.1423
 4321TIP3    H234455   0.585   0.570  14.626 -1.6094  2.1344 -0.3807
 4322TIP3   OH234456   2.029   2.244  13.291 -0.0998  0.9407 -0.2545
 4322TIP3    H134457   1.992   2.159  13.314 -1.0500  1.7559  1.3376
 4322TIP3    H234458   1.962   2.307  13.319  0.2662  2.1651 -2.1160
 4323TIP3   OH234459   6.189   3.473   4.436  0.4978 -0.2033 -0.3374
 4323TIP3    H134460   6.140   3.535   4.381  1.6535  2.3128  1.3931
 4323TIP3    H234461   6.231   3.414   4.373 -2.7237 -0.9457 -1.9486
 4324TIP3   OH234462   1.217   4.326  16.134 -0.4155 -0.1420  0.1158
 4324TIP3    H134463   1.224   4.261  16.205 -1.4337 -0.1386  0.2190
 4324TIP3    H234464   1.197   4.408  16.178 -2.0604 -0.3343 -0.2452
 4325TIP3   OH234465   2.511   2.755  17.213 -0.0329  0.4731  0.1119
 4325TIP3    H134466   2.452   2.813  17.261  0.9430  0.5050  1.3138
 4325TIP3    H234467   2.469   2.669  17.217 -0.9481  0.8758 -0.7347
 4326TIP3   OH234468   2.658   5.752   2.780  0.0836 -0.1365 -0.2309
 4326TIP3    H134469   2.631   5.677   2.832  1.2932 -1.8359 -2.0020
 4326TIP3    H234470   2.747   5.732   2.753  0.5411  2.0814 -0.4979
 4327TIP3   OH234471   0.687   2.625  14.646  0.7483  0.4789 -0.0209
 4327TIP3    H134472   0.657   2.544  14.687  1.0785 -0.4252 -1.4996
 4327TIP3    H234473   0.729   2.596  14.564  1.3254  2.0997 -0.3191
 4328TIP3   OH234474   6.382   1.285   2.947 -0.1490  0.7005 -0.3898
 4328TIP3    H134475   6.413   1.338   2.875 -1.1740 -0.3757 -1.6508
 4328TIP3    H234476   6.287   1.297   2.947 -0.5533 -2.1012 -1.5200
 4329TIP3   OH234477   6.102   3.418   6.087  0.8937  0.0898 -0.7299
 4329TIP3    H134478   6.105   3.447   6.178 -1.4934  1.6499 -1.1176
 4329TIP3    H234479   6.016   3.377   6.077  2.0343 -2.2282 -1.6895
 4330TIP3   OH234480   3.212   1.265   4.547 -0.1556 -0.2812  0.1395
 4330TIP3    H134481   3.167   1.210   4.611 -0.1719 -0.5883 -0.1300
 4330TIP3    H234482   3.224   1.349   4.591  1.7171 -1.1198  1.3485
 4331TIP3   OH234483   5.462   2.603   5.296  0.4020  0.2794 -0.1721
 4331TIP3    H134484   5.529   2.590   5.229  0.2747  0.7288 -0.3889
 4331TIP3    H234485   5.476   2.531   5.358  0.3277 -0.3221 -0.8404
 4332TIP3   OH234486   3.285   1.766  12.971  0.1434 -0.7586  0.6706
 4332TIP3    H134487   3.340   1.760  12.893  0.6770  1.3834  0.8483
 4332TIP3    H234488   3.299   1.855  13.003 -1.7830 -0.8916  1.9489
 4333TIP3   OH234489   4.764   4.519  15.791 -0.5957 -0.2707 -0.6086
 4333TIP3    H134490   4.830   4.496  15.857 -2.9024 -1.8219  1.2372
 4333TIP3    H234491   4.813   4.527  15.709  2.2341  0.9505  1.1379
 4334TIP3   OH234492   3.047   0.943   5.511 -0.3446  0.1043 -0.7031
 4334TIP3    H134493   2.991   0.887   5.565  1.3903 -0.3956  0.6072
 4334TIP3    H234494   3.075   0.886   5.439  1.0454 -0.5911  0.3780
 4335TIP3   OH234495   6.500   4.668  10.673  0.7299  0.0184 -0.0354
 4335TIP3    H134496   6.524   4.671  10.581  0.3418 -1.4328 -0.1836
 4335TIP3    H234497   6.463   4.755  10.691 -1.3916 -0.4819 -1.8373
 4336TIP3   OH234498   5.551   6.609   3.981  0.9556 -0.3675 -0.7146
 4336TIP3    H134499   5.562   6.700   3.954  1.0992  0.2186  1.2301
 4336TIP3    H234500   5.498   6.614   4.060 -0.5132 -2.1151 -1.5605
 4337TIP3   OH234501   3.956   6.777  17.263 -0.2554 -0.6594  0.0225
 4337TIP3    H134502   3.933   6.817  17.347  0.7584 -0.8375  0.3870
 4337TIP3    H234503   3.971   6.852  17.204 -1.1463 -0.5362 -0.0657
 4338TIP3   OH234504   5.220   5.367   2.684 -0.2835 -0.5778  0.0839
 4338TIP3    H134505   5.225   5.294   2.621  1.7892 -1.2859  1.0196
 4338TIP3    H234506   5.303   5.362   2.732 -1.1804  0.9256  1.8128
 4339TIP3   OH234507   1.546   2.967   0.537  0.4595  0.2462 -0.0597
 4339TIP3    H134508   1.553   3.055   0.573 -1.0975  0.1967  0.3966
 4339TIP3    H234509   1.463   2.966   0.489  0.3189 -1.0376  0.1692
 4340TIP3   OH234510   6.487   2.419   1.252  0.0211 -0.4922  0.7712
 4340TIP3    H134511   6.435   2.438   1.330 -0.2495 -0.1636  0.5162
 4340TIP3    H234512   6.477   2.325   1.239 -1.0066 -0.3397  0.3824
 4341TIP3   OH234513   1.318   2.695  13.916  0.4796 -0.1289  0.1372
 4341TIP3    H134514   1.263   2.731  13.846  1.8808 -1.0987 -1.4978
 4341TIP3    H234515   1.257   2.644  13.970 -0.6442  0.7580 -0.2783
 4342TIP3   OH234516   5.356   3.255   0.255  0.0398  0.4551  0.6643
 4342TIP3    H134517   5.435   3.232   0.303  0.8504  1.6462 -0.0808
 4342TIP3    H234518   5.363   3.349   0.240 -0.6816  0.2738 -0.8932
 4343TIP3   OH234519   6.218   2.616   5.372 -0.4365 -0.1485  0.3698
 4343TIP3    H134520   6.290   2.554   5.363  1.0274  1.3475  1.4619
 4343TIP3    H234521   6.195   2.614   5.465 -0.0154  1.3184  0.5127
 4344TIP3   OH234522   2.370   1.248   4.598  0.4013  0.2345 -0.1720
 4344TIP3    H134523   2.385   1.277   4.508  0.7214 -1.0787 -0.5629
 4344TIP3    H234524   2.365   1.152   4.591  2.2024 -0.0050  1.4724
 4345TIP3   OH234525   0.833   0.618   3.250 -0.2967  0.3534 -0.5694
 4345TIP3    H134526   0.786   0.599   3.332 -0.0155 -0.2516 -0.5456
 4345TIP3    H234527   0.826   0.713   3.240  0.5789  0.5694  0.7236
 4346TIP3   OH234528   2.420   5.031  12.668 -0.7841  0.1295  0.1550
 4346TIP3    H134529   2.349   5.063  12.612 -0.9606 -0.2582  0.1545
 4346TIP3    H234530   2.469   5.109  12.692 -1.2111  0.3993  0.1536
 4347TIP3   OH234531   5.368   3.740  14.996  0.4218 -0.3571  0.6166
 4347TIP3    H134532   5.412   3.753  14.911  0.8524  2.0917  1.1720
 4347TIP3    H234533   5.276   3.726  14.973  0.5730  0.0352 -0.2786
 4348TIP3   OH234534   1.447   1.121   0.521  0.3790  0.1753  0.5327
 4348TIP3    H134535   1.437   1.177   0.598  1.2419 -1.3390  1.7869
 4348TIP3    H234536   1.541   1.105   0.515  0.2634 -0.0997 -0.5556
 4349TIP3   OH234537   0.691   1.289   6.133  0.6454  0.2021  0.2618
 4349TIP3    H134538   0.780   1.266   6.106  0.7588 -0.3294  1.0624
 4349TIP3    H234539   0.676   1.237   6.212 -0.7963 -0.5633 -0.5075
 4350TIP3   OH234540   3.429   5.548   1.390 -0.2385  0.4436 -0.1353
 4350TIP3    H134541   3.401   5.592   1.310 -0.8099  2.0082  0.9132
 4350TIP3    H234542   3.478   5.614   1.439 -0.6670 -0.2155  1.2175
 4351TIP3   OH234543   0.024   1.659  10.423  0.2049 -0.2482 -0.6150
 4351TIP3    H134544   0.097   1.674  10.483 -0.0757  2.8583 -0.9497
 4351TIP3    H234545   0.061   1.671  10.336  0.0077 -2.0047 -0.9509
 4352TIP3   OH234546   6.058   6.722   5.173  0.1030 -0.9837 -0.3694
 4352TIP3    H134547   6.035   6.808   5.137 -0.4611 -0.5237  1.0275
 4352TIP3    H234548   5.975   6.688   5.207  0.1926 -2.3852 -1.4931
 4353TIP3   OH234549   6.362   3.080  12.027 -0.3121  0.7971 -0.3666
 4353TIP3    H134550   6.409   3.076  12.110  0.9272  2.1266 -0.9724
 4353TIP3    H234551   6.421   3.039  11.964 -0.4247  1.4761 -0.9262
 4354TIP3   OH234552   1.792   6.149   2.662 -0.2941 -0.1510  0.1048
 4354TIP3    H134553   1.759   6.238   2.677  0.1986  0.1358 -0.4846
 4354TIP3    H234554   1.796   6.141   2.567  0.5093 -0.4909  0.1678
 4355TIP3   OH234555   3.508   5.771  12.479  0.3128 -0.2133  0.1841
 4355TIP3    H134556   3.579   5.778  12.415 -2.5354  0.2432 -3.1297
 4355TIP3    H234557   3.516   5.851  12.532  0.9874  0.9465 -1.5956
 4356TIP3   OH234558   2.082   5.260  11.320 -0.1182  0.0621 -0.2294
 4356TIP3    H134559   2.066   5.327  11.386  0.1914 -0.2266  0.1434
 4356TIP3    H234560   2.058   5.301  11.237 -3.6436 -0.6573  0.3551
 4357TIP3   OH234561   6.804   6.794  13.590  0.8147  0.2226  0.1288
 4357TIP3    H134562   6.872   6.851  13.626  0.3431 -0.0611  1.4664
 4357TIP3    H234563   6.724   6.820  13.635  0.3617 -0.6684 -0.1499
 4358TIP3   OH234564   6.266   4.480   3.459  0.2628 -0.0593  0.0383
 4358TIP3    H134565   6.274   4.413   3.527  0.1741  0.0761  0.1822
 4358TIP3    H234566   6.315   4.555   3.493 -1.4313  0.7116  0.8430
 4359TIP3   OH234567   1.165   6.376   3.186 -0.2365 -0.6232  0.1604
 4359TIP3    H134568   1.218   6.355   3.263 -1.6426 -0.7006  1.1228
 4359TIP3    H234569   1.120   6.457   3.209 -1.5311 -1.2504 -0.1429
 4360TIP3   OH234570   2.666   0.353   0.344  0.2673  0.0773  0.0152
 4360TIP3    H134571   2.576   0.386   0.349 -0.0091 -0.7794  0.7221
 4360TIP3    H234572   2.720   0.432   0.340 -0.4968  0.5994 -0.2275
 4361TIP3   OH234573   4.896   4.771   2.055 -0.8180  0.1087  0.4310
 4361TIP3    H134574   4.983   4.740   2.078 -0.9597 -0.0298  0.7812
 4361TIP3    H234575   4.893   4.766   1.960 -0.3413  0.3847  0.3985
 4362TIP3   OH234576   5.019   3.423   2.473  0.5988 -0.1734  0.0846
 4362TIP3    H134577   5.062   3.436   2.558 -2.3057 -2.2839  1.9592
 4362TIP3    H234578   5.052   3.338   2.442  0.7105  0.0144 -0.3129
 4363TIP3   OH234579   2.105   2.709   4.062 -0.4334 -0.2987  0.0591
 4363TIP3    H134580   2.035   2.719   3.997  0.3316  0.5431 -0.6680
 4363TIP3    H234581   2.155   2.633   4.032 -0.3493 -0.1880 -0.0812
 4364TIP3   OH234582   1.492   0.273   3.245 -0.6968  0.0181 -0.6072
 4364TIP3    H134583   1.550   0.219   3.192 -0.5796 -0.7390  0.2798
 4364TIP3    H234584   1.404   0.242   3.222 -0.5613 -1.6578  1.0721
 4365TIP3   OH234585   0.966   5.462  14.511 -0.0961  0.0731 -0.5405
 4365TIP3    H134586   0.963   5.377  14.556  1.3057 -0.0196 -0.5990
 4365TIP3    H234587   0.875   5.491  14.510 -0.3629 -0.6195  1.0234
 4366TIP3   OH234588   3.226   2.011  13.046 -0.1655  0.2979  0.1077
 4366TIP3    H134589   3.183   1.995  12.962  3.0788  0.2204 -1.6302
 4366TIP3    H234590   3.210   2.104  13.064 -1.0763  0.2561 -0.4903
 4367TIP3   OH234591   1.252   1.026  12.708 -0.1561 -0.2333  0.3074
 4367TIP3    H134592   1.291   1.066  12.785 -1.0671  0.0867  0.6077
 4367TIP3    H234593   1.301   1.063  12.634  1.6697 -1.6338  0.7990
 4368TIP3   OH234594   5.880   6.087   4.598  0.2035  0.7386  0.3282
 4368TIP3    H134595   5.965   6.089   4.553  0.4245  2.7341  0.7878
 4368TIP3    H234596   5.895   6.035   4.676  0.3124 -1.1427 -0.9232
 4369TIP3   OH234597   2.533   3.778   2.548  0.7475 -0.4007 -0.0185
 4369TIP3    H134598   2.616   3.795   2.594 -0.2831  1.0432  1.3615
 4369TIP3    H234599   2.489   3.863   2.547 -2.0476 -1.7828  1.9537
 4370TIP3   OH234600   3.688   4.680   2.366 -0.5359  0.4830  0.0878
 4370TIP3    H134601   3.779   4.683   2.338  0.1537 -1.2744  2.0340
 4370TIP3    H234602   3.648   4.615   2.308  0.0916 -0.6827  0.9415
 4371TIP3   OH234603   1.900   5.989  12.903 -0.3481 -0.0946  0.1804
 4371TIP3    H134604   1.915   5.988  12.998  0.6454 -0.3746  0.0239
 4371TIP3    H234605   1.953   6.063  12.872 -1.0910  0.3279 -0.0943
 4372TIP3   OH234606   5.442   4.752  12.132 -0.2538 -0.5330 -0.2731
 4372TIP3    H134607   5.437   4.796  12.217  2.5219 -0.9813  0.1754
 4372TIP3    H234608   5.356   4.711  12.121 -0.8611  0.0615  2.0177
 4373TIP3   OH234609   3.518   4.197   5.570  0.2459  0.1751 -0.0909
 4373TIP3    H134610   3.608   4.174   5.546 -0.0482  0.9265 -1.9828
 4373TIP3    H234611   3.520   4.204   5.666  1.7102 -1.8586  0.0650
 4374TIP3   OH234612   3.906   5.799  16.616  0.7610 -0.3925  0.3866
 4374TIP3    H134613   3.827   5.809  16.563 -1.2002 -2.6781  2.6973
 4374TIP3    H234614   3.887   5.846  16.697  2.1850 -0.0873  0.5534
 4375TIP3   OH234615   3.993   2.965  11.392  0.3308  0.0485  0.3274
 4375TIP3    H134616   3.931   2.986  11.322 -0.7194  0.2392  1.3065
 4375TIP3    H234617   3.959   2.885  11.431  0.9256 -0.0683  0.6075
 4376TIP3   OH234618   5.102   5.195  15.318 -0.2968 -0.1430  0.2129
 4376TIP3    H134619   5.049   5.215  15.395  0.2341 -1.8093  1.0494
 4376TIP3    H234620   5.192   5.213  15.346 -0.1446 -0.3521 -0.1463
 4377TIP3   OH234621   2.716   4.992   5.674 -0.3495  0.0425 -0.2607
 4377TIP3    H134622   2.735   4.899   5.659  1.0876  0.5290 -1.5902
 4377TIP3    H234623   2.772   5.016   5.748  0.9002  0.3609 -1.2916
 4378TIP3   OH234624   1.072   0.394  11.551 -0.1909  0.4552 -0.3195
 4378TIP3    H134625   0.993   0.437  11.582 -0.5325  0.2581 -0.9060
 4378TIP3    H234626   1.144   0.452  11.577 -0.6593  1.4801 -1.3022
 4379TIP3   OH234627   3.793   5.529   3.853 -0.0503 -0.0126  0.3280
 4379TIP3    H134628   3.843   5.586   3.795 -1.0707  1.3078  0.7322
 4379TIP3    H234629   3.822   5.553   3.941  0.5226 -1.0933  0.4465
 4380TIP3   OH234630   2.343   0.104  15.121  0.7325 -0.0954  0.1990
 4380TIP3    H134631   2.259   0.083  15.162  1.1402  0.7106  1.4609
 4380TIP3    H234632   2.350   0.199  15.128  0.1760  0.2495 -3.0293
 4381TIP3   OH234633   0.094   2.973   4.353 -0.3528  0.2084  0.1682
 4381TIP3    H134634   0.103   3.066   4.330  0.3062  0.4089  1.1866
 4381TIP3    H234635   0.094   2.927   4.269  1.8582  0.9406 -0.2668
 4382TIP3   OH234636   5.900   5.559   3.268  0.2385  0.2538  0.0020
 4382TIP3    H134637   5.809   5.588   3.274 -0.2158 -0.9854 -0.6916
 4382TIP3    H234638   5.936   5.610   3.196  0.0685  0.7184  0.2474
 4383TIP3   OH234639   0.947   0.982  13.873  0.6390 -0.7098  0.6936
 4383TIP3    H134640   0.971   1.074  13.881  1.6284 -0.9907  1.0518
 4383TIP3    H234641   1.022   0.941  13.830 -0.3910 -1.0926 -0.7786
 4384TIP3   OH234642   2.041   3.068   1.281 -1.0866 -0.2947  0.2368
 4384TIP3    H134643   2.082   3.030   1.203  1.7390  1.5588  0.7417
 4384TIP3    H234644   2.029   2.994   1.341  0.2894 -1.1179 -0.4815
 4385TIP3   OH234645   2.386   0.480  13.506  0.3059  0.2918 -0.3312
 4385TIP3    H134646   2.297   0.480  13.543  0.3323 -1.6061 -0.2411
 4385TIP3    H234647   2.443   0.483  13.583  0.3321  0.1237 -0.3441
 4386TIP3   OH234648   3.594   1.606  14.292  0.2386  0.2245 -0.6455
 4386TIP3    H134649   3.531   1.561  14.235  0.4519  0.0653 -0.7567
 4386TIP3    H234650   3.541   1.670  14.340 -0.1370 -0.3867 -0.2275
 4387TIP3   OH234651   5.546   6.799  16.610 -0.1923  0.2396 -0.6540
 4387TIP3    H134652   5.486   6.732  16.643 -2.1208  1.6354 -1.2562
 4387TIP3    H234653   5.522   6.810  16.518  0.4441  1.4114 -0.6880
 4388TIP3   OH234654   3.743   0.987  15.489  0.0046  0.4603  0.8324
 4388TIP3    H134655   3.757   0.906  15.439  0.5502  0.9126  0.2299
 4388TIP3    H234656   3.827   1.032  15.484  0.0139  0.5772  2.0561
 4389TIP3   OH234657   4.463   0.960   4.371  0.4683 -0.3199  0.0205
 4389TIP3    H134658   4.508   1.024   4.315  1.2277 -1.0888 -0.2635
 4389TIP3    H234659   4.442   1.008   4.451 -0.3361  0.7027 -0.7941
 4390TIP3   OH234660   2.084   1.283  12.080 -0.0314 -0.3201 -0.6020
 4390TIP3    H134661   1.992   1.303  12.064 -0.6007 -1.1679  1.3672
 4390TIP3    H234662   2.126   1.368  12.087 -1.4437  0.2230  2.4118
 4391TIP3   OH234663   3.762   2.642  15.524  0.3861 -0.3393 -0.5074
 4391TIP3    H134664   3.777   2.576  15.591 -0.6524 -0.3622 -0.2842
 4391TIP3    H234665   3.719   2.595  15.453 -0.6111  0.1383 -0.2362
 4392TIP3   OH234666   6.141   1.353   2.501 -0.5926  0.5133 -0.3480
 4392TIP3    H134667   6.221   1.405   2.497 -0.3193  0.0736 -0.5933
 4392TIP3    H234668   6.152   1.285   2.434 -1.0017  0.2180 -0.1227
 4393TIP3   OH234669   0.419   0.488  12.751 -0.3547  0.1873  0.3617
 4393TIP3    H134670   0.429   0.555  12.819 -0.1795 -0.8043  1.3404
 4393TIP3    H234671   0.412   0.537  12.669  3.3198  1.3303  0.6172
 4394TIP3   OH234672   5.390   6.008   2.801  0.4008  0.3240 -0.0566
 4394TIP3    H134673   5.364   6.034   2.890  1.1123 -0.5408  0.4183
 4394TIP3    H234674   5.483   5.985   2.809  0.2077 -0.7477 -0.7911
 4395TIP3   OH234675   3.901   2.844  11.815 -0.7165 -0.7001  0.0631
 4395TIP3    H134676   3.852   2.829  11.734 -0.1188 -0.3836 -0.3542
 4395TIP3    H234677   3.992   2.850  11.788 -0.5392 -0.3196  0.7242
 4396TIP3   OH234678   3.519   1.142  14.821 -0.3824  0.1425 -0.1927
 4396TIP3    H134679   3.568   1.144  14.903 -0.4023 -0.3034 -0.1716
 4396TIP3    H234680   3.540   1.226  14.779  2.4269 -1.0621 -1.3355
 4397TIP3   OH234681   2.066   0.269  14.335 -0.1602  0.1268 -0.1725
 4397TIP3    H134682   2.038   0.356  14.306  0.2302  0.8236  1.4785
 4397TIP3    H234683   2.011   0.250  14.411 -0.0132 -0.9341 -0.3160
 4398TIP3   OH234684   0.518   3.990   4.292 -0.1645  0.4306 -0.1763
 4398TIP3    H134685   0.532   3.916   4.233  2.2152 -0.2155  1.1253
 4398TIP3    H234686   0.592   3.986   4.353 -0.0909  3.7899  0.0259
 4399TIP3   OH234687   1.411   4.091   1.504 -0.0342 -0.6369  0.0401
 4399TIP3    H134688   1.462   4.094   1.585 -0.0363 -4.2367  0.2598
 4399TIP3    H234689   1.473   4.114   1.435  0.9763 -1.4019  0.6886
 4400TIP3   OH234690   6.659   1.474  10.357  0.2453 -0.0060 -0.0447
 4400TIP3    H134691   6.582   1.500  10.307  0.9289 -2.0232 -2.2175
 4400TIP3    H234692   6.706   1.555  10.372  0.0253  0.6644 -2.7303
 4401TIP3   OH234693   2.228   5.934  13.783 -0.4609 -0.6118  0.3253
 4401TIP3    H134694   2.145   5.888  13.766 -0.2936 -0.6076 -0.5325
 4401TIP3    H234695   2.212   6.024  13.754 -0.4761 -0.3632  1.1003
 4402TIP3   OH234696   5.241   4.182   2.359 -0.4711  0.3019  0.3108
 4402TIP3    H134697   5.257   4.122   2.286 -0.1687  0.9975 -0.1979
 4402TIP3    H234698   5.180   4.247   2.325 -0.4909  0.5138  0.7389
 4403TIP3   OH234699   2.018   3.037   3.686  0.0968 -0.0716 -0.6480
 4403TIP3    H134700   2.081   2.967   3.668  0.4967  0.2224 -0.4049
 4403TIP3    H234701   2.007   3.036   3.781 -0.3546 -0.2014 -0.7039
 4404TIP3   OH234702   2.725   4.220  15.773  0.1318 -0.1752 -0.3212
 4404TIP3    H134703   2.665   4.222  15.698  0.1209 -0.6601 -0.3279
 4404TIP3    H234704   2.717   4.307  15.812 -0.4992 -0.2037 -0.3853
 4405TIP3   OH234705   1.423   6.224   5.483  0.2528  0.1432  0.3422
 4405TIP3    H134706   1.352   6.274   5.523 -0.1784 -1.1148  1.1730
 4405TIP3    H234707   1.458   6.170   5.554 -1.4505 -3.1841 -1.2654
 4406TIP3   OH234708   1.161   2.976  10.693  0.0491  0.5930  0.0994
 4406TIP3    H134709   1.129   3.023  10.617 -1.4916  0.8331  0.8892
 4406TIP3    H234710   1.126   3.024  10.769  0.8106 -0.1559  0.9457
 4407TIP3   OH234711   3.568   0.211  15.168  0.2864  0.0055  0.4412
 4407TIP3    H134712   3.619   0.130  15.170 -0.2723 -0.3485  0.3357
 4407TIP3    H234713   3.626   0.274  15.124  0.3424 -0.6003 -0.3694
 4408TIP3   OH234714   1.061   4.737   1.983 -0.1359  0.5219  0.5672
 4408TIP3    H134715   1.031   4.751   1.893  1.4038  1.4115  0.1702
 4408TIP3    H234716   1.149   4.701   1.974 -0.5973 -0.9567  1.7234
 4409TIP3   OH234717   6.575   4.369  15.079 -0.2098  0.4291  0.1045
 4409TIP3    H134718   6.560   4.409  14.993  0.9483 -0.4747 -0.5303
 4409TIP3    H234719   6.575   4.275  15.062 -2.1036  0.1622  1.4577
 4410TIP3   OH234720   3.710   2.520   0.615 -0.5004 -0.4235 -0.1352
 4410TIP3    H134721   3.787   2.464   0.613  0.3313  0.7232 -0.3534
 4410TIP3    H234722   3.742   2.604   0.647 -1.9335 -0.3663  1.1850
 4411TIP3   OH234723   4.370   1.778  15.922 -0.7537  0.1240 -0.3110
 4411TIP3    H134724   4.351   1.727  16.001  0.6915  0.5590  0.3512
 4411TIP3    H234725   4.444   1.733  15.882 -0.4520  0.8150 -0.5467
 4412TIP3   OH234726   3.937   5.359   2.339  0.6173  0.7442  0.2825
 4412TIP3    H134727   3.915   5.267   2.350 -2.0832  1.3785  0.4343
 4412TIP3    H234728   3.995   5.360   2.262  0.7451 -1.0708  0.3231
 4413TIP3   OH234729   6.254   1.580   0.040 -0.1677 -0.0606  0.1435
 4413TIP3    H134730   6.317   1.651   0.045 -0.0570 -0.2870  2.1048
 4413TIP3    H234731   6.169   1.624   0.038 -0.0866  0.1400  1.0545
 4414TIP3   OH234732   1.502   0.883   5.920  0.1809  0.1030  0.2477
 4414TIP3    H134733   1.544   0.968   5.909  0.4204  0.0261  0.5553
 4414TIP3    H234734   1.420   0.890   5.871  0.7448  0.1141 -0.7016
 4415TIP3   OH234735   0.878   6.030  12.544 -0.3812 -0.6532 -0.1487
 4415TIP3    H134736   0.933   6.079  12.606 -0.9969 -0.8200  0.5276
 4415TIP3    H234737   0.939   5.972  12.499  0.0676 -0.5435  0.3125
 4416TIP3   OH234738   6.537   3.051   4.960 -0.1906 -0.8568  0.4788
 4416TIP3    H134739   6.508   3.141   4.975  2.0055  0.1139 -0.8100
 4416TIP3    H234740   6.543   3.044   4.865  2.1708 -1.4963  0.6441
 4417TIP3   OH234741   1.272   5.166   4.467  0.3035 -0.4054  0.5287
 4417TIP3    H134742   1.230   5.083   4.444 -0.6504  0.1719  0.1402
 4417TIP3    H234743   1.357   5.141   4.501  1.2512 -1.4074 -2.3705
 4418TIP3   OH234744   6.406   0.997   2.044 -0.0001 -0.1532 -0.1420
 4418TIP3    H134745   6.436   1.080   2.082  1.7345 -0.3619 -0.9855
 4418TIP3    H234746   6.387   1.018   1.952 -1.7143 -0.2087  0.1856
 4419TIP3   OH234747   0.608   1.270   3.336  0.0141  0.0103 -0.3260
 4419TIP3    H134748   0.590   1.349   3.386 -0.4128  0.7482 -1.6265
 4419TIP3    H234749   0.525   1.222   3.336  0.7384 -1.3414  1.9827
 4420TIP3   OH234750   0.068   3.328   2.645 -0.3394  0.1790  0.1929
 4420TIP3    H134751   0.085   3.253   2.589 -2.9576 -0.8160  0.6560
 4420TIP3    H234752   0.048   3.399   2.585  1.8001  0.4678 -0.2352
 4421TIP3   OH234753   4.572   2.911  12.896 -0.5498 -0.6589  0.4473
 4421TIP3    H134754   4.506   2.929  12.963 -1.4690  1.0636 -0.8674
 4421TIP3    H234755   4.571   2.816  12.886 -0.7290 -0.8837  2.5366
 4422TIP3   OH234756   5.593   5.934   4.649  0.7227  0.3974 -0.0122
 4422TIP3    H134757   5.598   5.881   4.570  1.9001  0.4028  0.0509
 4422TIP3    H234758   5.500   5.933   4.673  0.4366  0.0179 -1.1272
 4423TIP3   OH234759   0.321   6.728   6.330  0.1113 -0.4987 -0.0596
 4423TIP3    H134760   0.305   6.635   6.346 -0.6714 -0.3830 -0.1577
 4423TIP3    H234761   0.408   6.731   6.290 -0.3977 -1.3004 -1.2488
 4424TIP3   OH234762   0.082   4.979  14.070 -0.3638 -0.0668 -0.4441
 4424TIP3    H134763   0.075   4.889  14.039 -2.5719 -0.4271  1.0430
 4424TIP3    H234764   0.007   5.024  14.031  0.5354  1.0715 -0.9149
 4425TIP3   OH234765   5.242   1.000   0.533 -0.2245 -0.1188 -0.4874
 4425TIP3    H134766   5.262   0.907   0.549 -0.6005 -0.3900 -1.5722
 4425TIP3    H234767   5.292   1.022   0.454  0.9068  0.9636  0.5095
 4426TIP3   OH234768   6.637   4.928   4.814 -0.0455 -0.9635 -0.1420
 4426TIP3    H134769   6.608   4.838   4.830 -3.1816  0.0791  0.3684
 4426TIP3    H234770   6.567   4.968   4.763  0.7987  1.4999  0.5174
 4427TIP3   OH234771   3.503   4.904  11.848  0.0225 -0.1945 -0.5776
 4427TIP3    H134772   3.498   4.910  11.944 -2.0417  0.8420 -0.7155
 4427TIP3    H234773   3.591   4.935  11.827 -0.4384  2.2596  0.8276
 4428TIP3   OH234774   0.551   6.181   2.155 -0.1719  0.2834 -0.5811
 4428TIP3    H134775   0.638   6.220   2.144  0.6041 -1.2858 -0.1218
 4428TIP3    H234776   0.503   6.243   2.209  1.3911  0.1248  1.0152
 4429TIP3   OH234777   0.649   3.763   0.165  0.0121 -0.4485  0.2515
 4429TIP3    H134778   0.605   3.759   0.080  1.5734 -1.0166 -0.5563
 4429TIP3    H234779   0.703   3.683   0.167  0.9816  0.2203  1.2192
 4430TIP3   OH234780   5.977   2.181   1.715 -0.7175  0.2006  0.1821
 4430TIP3    H134781   6.070   2.166   1.731 -0.6625  0.9111  0.5050
 4430TIP3    H234782   5.934   2.102   1.748 -0.1314 -0.6531 -1.0378
 4431TIP3   OH234783   6.814   0.681  15.747 -0.3448 -0.2712 -0.1731
 4431TIP3    H134784   6.791   0.686  15.655  1.6854 -1.4940 -0.7738
 4431TIP3    H234785   6.845   0.769  15.769 -1.0817  0.0883 -0.5789
 4432TIP3   OH234786   2.364   0.977   5.937 -0.1561 -0.2673 -0.0039
 4432TIP3    H134787   2.358   0.978   5.842 -0.4978 -1.4793 -0.0131
 4432TIP3    H234788   2.376   1.068   5.962  1.8151 -0.1553 -1.3113
 4433TIP3   OH234789   5.088   1.979  12.639  0.1284 -0.1463 -0.3643
 4433TIP3    H134790   5.039   1.905  12.673  0.1175  0.3453  0.7175
 4433TIP3    H234791   5.024   2.030  12.590  0.1499 -0.8787 -1.1606
 4434TIP3   OH234792   0.338   5.662   0.938  0.1181 -0.0304 -0.0793
 4434TIP3    H134793   0.326   5.757   0.940  2.7407  0.3611 -0.7681
 4434TIP3    H234794   0.328   5.634   1.029 -0.5114  0.9290  0.1478
 4435TIP3   OH234795   4.535   6.743  10.501 -0.0338 -0.3398  0.2510
 4435TIP3    H134796   4.496   6.669  10.456 -0.0430 -1.1555  1.5680
 4435TIP3    H234797   4.461   6.796  10.531 -0.0171  1.8850 -3.3266
 4436TIP3   OH234798   4.936   2.363   5.084  0.1764  0.1388 -0.3925
 4436TIP3    H134799   4.957   2.325   5.169 -0.7136 -0.9102 -0.6245
 4436TIP3    H234800   4.963   2.297   5.020 -0.9090  0.0849 -0.8238
 4437TIP3   OH234801   0.708   5.363   0.857 -0.6505 -0.1601  0.3388
 4437TIP3    H134802   0.656   5.403   0.927 -0.4675  0.8413 -0.0939
 4437TIP3    H234803   0.668   5.277   0.844 -1.7730  0.3274  0.4910
 4438TIP3   OH234804   3.461   4.971   0.569  0.3344  0.4462  0.2584
 4438TIP3    H134805   3.496   4.968   0.658  2.3859  1.4387 -0.4902
 4438TIP3    H234806   3.513   4.908   0.520 -2.5002 -2.0384  0.2778
 4439TIP3   OH234807   5.441   0.537  17.156 -0.0103 -0.0586 -0.0881
 4439TIP3    H134808   5.382   0.464  17.171  1.7919 -1.0687  2.2974
 4439TIP3    H234809   5.490   0.546  17.237 -0.5075  4.1182 -0.1461
 4440TIP3   OH234810   0.244   1.391   2.001 -0.4029  0.1974 -0.3375
 4440TIP3    H134811   0.176   1.452   1.974  1.2011  2.6238  0.9852
 4440TIP3    H234812   0.295   1.374   1.921 -1.5550 -0.3726 -0.9642
 4441TIP3   OH234813   6.690   1.044  14.449 -0.4549 -0.0871  0.0677
 4441TIP3    H134814   6.677   1.136  14.424  0.0282 -0.2506 -0.8065
 4441TIP3    H234815   6.773   1.043  14.497 -0.9175  0.0735  0.8916
 4442TIP3   OH234816   6.800   0.525   5.998 -0.7481  0.1589  1.0013
 4442TIP3    H134817   6.771   0.578   6.072 -1.9784  0.4194  0.3538
 4442TIP3    H234818   6.741   0.549   5.927  0.2357 -0.3006  0.0137
 4443TIP3   OH234819   0.399   6.641   3.038 -0.0961  0.2253  0.2696
 4443TIP3    H134820   0.394   6.547   3.052  1.3461  0.1937  0.6596
 4443TIP3    H234821   0.407   6.679   3.126  2.4930  0.4752 -0.0430
 4444TIP3   OH234822   0.412   3.165   3.499 -0.1007 -0.9753  0.2807
 4444TIP3    H134823   0.480   3.146   3.564 -1.5915 -1.8992  1.6020
 4444TIP3    H234824   0.397   3.259   3.506  0.3666 -0.9260  0.6378
 4445TIP3   OH234825   4.990   1.268   1.761 -0.5735  0.4238  0.0770
 4445TIP3    H134826   4.988   1.348   1.708  0.5098  0.5023  0.1509
 4445TIP3    H234827   4.940   1.290   1.839 -0.7010  0.8654 -0.1263
 4446TIP3   OH234828   2.501   3.623   4.919  0.1973  0.2252  0.9999
 4446TIP3    H134829   2.427   3.629   4.860  1.9525 -0.0613 -1.3070
 4446TIP3    H234830   2.522   3.713   4.942 -0.8572  0.3021  1.6550
 4447TIP3   OH234831   5.843   0.425  12.076  0.1004  0.2928  0.0038
 4447TIP3    H134832   5.767   0.482  12.085  0.0453  0.0182  1.3840
 4447TIP3    H234833   5.918   0.483  12.089  0.0642  0.1766  0.7326
 4448TIP3   OH234834   2.960   2.621  15.563  0.6026 -0.5494  0.1107
 4448TIP3    H134835   2.912   2.551  15.606 -0.6525  0.1938 -0.0572
 4448TIP3    H234836   2.985   2.585  15.478  0.1180 -0.8548  0.1002
 4449TIP3   OH234837   1.030   6.069   3.449  0.3783 -0.1032  0.2462
 4449TIP3    H134838   1.085   6.081   3.372  0.1531  3.3744  0.5629
 4449TIP3    H234839   1.027   5.974   3.462  2.8308 -0.5690 -2.2516
 4450TIP3   OH234840   6.502   0.529  15.636 -0.0148 -0.2986  0.6213
 4450TIP3    H134841   6.504   0.447  15.586 -0.0862 -0.2194  0.4898
 4450TIP3    H234842   6.594   0.557  15.637  0.4262 -1.6372  2.7498
 4451TIP3   OH234843   4.798   5.871  14.365 -0.3465  0.3080 -0.5500
 4451TIP3    H134844   4.834   5.899  14.281 -0.6988  1.5799 -0.2845
 4451TIP3    H234845   4.870   5.884  14.428  0.0536 -1.0268 -0.7035
 4452TIP3   OH234846   0.727   2.956  14.010 -0.1197  0.2676 -0.0668
 4452TIP3    H134847   0.785   2.998  13.947  0.5272  0.2256  0.4976
 4452TIP3    H234848   0.784   2.899  14.061 -0.9415 -1.1389 -0.6726
 4453TIP3   OH234849   0.212   4.033  11.284 -0.0887 -0.1536  0.3104
 4453TIP3    H134850   0.294   4.043  11.331  0.9845  1.0301 -1.7395
 4453TIP3    H234851   0.155   4.102  11.318  0.2588 -0.0797  0.7376
 4454TIP3   OH234852   3.944   2.584   4.408 -0.1629 -0.1460  0.6375
 4454TIP3    H134853   3.871   2.613   4.463 -0.2373  0.0911  0.4164
 4454TIP3    H234854   3.930   2.490   4.399 -0.2318 -0.1628  0.9039
 4455TIP3   OH234855   1.637   3.600   4.320 -0.3306 -0.0298 -0.2803
 4455TIP3    H134856   1.708   3.541   4.348 -1.1485  0.2865  2.5955
 4455TIP3    H234857   1.565   3.581   4.381 -2.2538  0.6385 -2.3017
 4456TIP3   OH234858   3.122   0.610  14.084 -0.2397  0.0134 -0.2988
 4456TIP3    H134859   3.092   0.519  14.081 -0.7665  0.1133  1.6657
 4456TIP3    H234860   3.045   0.659  14.112  0.9974  0.5964  2.2226
 4457TIP3   OH234861   1.780   1.023  10.943  0.1171 -0.3204  0.6578
 4457TIP3    H134862   1.854   1.083  10.933 -0.0875 -0.4022 -1.7566
 4457TIP3    H234863   1.775   1.006  11.037  0.1565  3.4882  1.4486
 4458TIP3   OH234864   6.586   0.549  11.014 -0.1070 -0.1581 -1.0752
 4458TIP3    H134865   6.562   0.635  10.979 -1.3328 -0.7921 -1.8098
 4458TIP3    H234866   6.654   0.517  10.955  3.2191  1.9577  1.4301
 4459TIP3   OH234867   6.235   2.764  13.328 -0.3438 -0.2977 -0.2281
 4459TIP3    H134868   6.295   2.810  13.269  0.0288  0.7109  0.9066
 4459TIP3    H234869   6.161   2.739  13.273  1.3870 -2.1354 -1.8010
 4460TIP3   OH234870   0.728   3.057   0.056 -0.2730  0.0641 -0.5598
 4460TIP3    H134871   0.687   2.981   0.095 -0.1281  0.7784  1.0174
 4460TIP3    H234872   0.821   3.034   0.049 -0.2540  0.0372 -0.2252
 4461TIP3   OH234873   6.379   2.137   0.395 -0.0209  0.1855 -0.1372
 4461TIP3    H134874   6.401   2.199   0.325 -0.0483  1.0427  0.5988
 4461TIP3    H234875   6.286   2.119   0.382 -0.2868  1.1968  0.3321
 4462TIP3   OH234876   6.079   5.196  13.565 -0.5943 -1.4277 -0.5829
 4462TIP3    H134877   6.062   5.284  13.530  2.1382 -0.6362 -0.0354
 4462TIP3    H234878   6.017   5.187  13.638 -0.5098  0.2768 -0.2747
 4463TIP3   OH234879   2.882   2.536  12.987 -0.2748 -0.8112 -0.6477
 4463TIP3    H134880   2.789   2.555  12.998  0.0710  1.1526 -0.7808
 4463TIP3    H234881   2.909   2.498  13.070 -1.6986 -3.7730 -1.4580
 4464TIP3   OH234882   0.502   5.687   2.975 -0.7296 -0.2730  0.5354
 4464TIP3    H134883   0.414   5.682   3.012 -0.5498 -0.6352  0.9161
 4464TIP3    H234884   0.544   5.605   3.001 -0.4968 -0.3920 -0.2065
 4465TIP3   OH234885   6.021   2.143  13.836 -0.3240 -0.5605 -0.7370
 4465TIP3    H134886   6.073   2.205  13.887  0.1363 -1.0746 -0.5799
 4465TIP3    H234887   6.081   2.070  13.818  0.2652  0.6251 -4.0239
 4466TIP3   OH234888   0.701   4.343  13.314 -0.8370 -0.2842  0.5000
 4466TIP3    H134889   0.748   4.411  13.267 -0.1363 -0.6006  0.7314
 4466TIP3    H234890   0.661   4.389  13.388 -3.5563  0.5690 -1.4379
 4467TIP3   OH234891   2.276   3.801   3.712 -0.2384  0.3986 -0.1256
 4467TIP3    H134892   2.279   3.865   3.783 -0.8038 -1.7081  1.8848
 4467TIP3    H234893   2.361   3.758   3.714 -0.5460 -0.2256 -0.1735
 4468TIP3   OH234894   1.904   3.992  13.027  0.3659  0.5208 -0.2844
 4468TIP3    H134895   1.918   3.946  12.944 -0.1395 -0.1448 -0.0075
 4468TIP3    H234896   1.940   3.933  13.093  1.1970  1.2636 -0.0684
 4469TIP3   OH234897   5.701   2.339  15.942  0.4784 -0.4317  0.8407
 4469TIP3    H134898   5.655   2.422  15.928  1.3786 -0.0192  0.2704
 4469TIP3    H234899   5.730   2.344  16.034  0.9373  0.0988  0.6718
 4470TIP3   OH234900   0.141   6.194   6.019  0.3444 -0.1838 -0.0464
 4470TIP3    H134901   0.148   6.239   6.103  2.6718 -1.0255  0.2501
 4470TIP3    H234902   0.160   6.262   5.954 -0.4027  0.2272  0.1605
 4471TIP3   OH234903   4.930   6.388   2.640  0.1400 -0.0749  0.7274
 4471TIP3    H134904   4.933   6.447   2.715 -1.0135 -0.5434  1.1358
 4471TIP3    H234905   4.977   6.310   2.668  1.4328  0.5129  0.2768
 4472TIP3   OH234906   5.228   6.337   0.764  0.2743 -0.0946  0.6558
 4472TIP3    H134907   5.289   6.395   0.718  0.7417  1.0039  2.5997
 4472TIP3    H234908   5.279   6.300   0.836 -0.6693 -1.1500  0.7944
 4473TIP3   OH234909   3.972   0.398   2.675  0.0777 -0.1154 -0.9400
 4473TIP3    H134910   3.906   0.436   2.616 -0.0535  1.9863  0.5024
 4473TIP3    H234911   4.056   0.424   2.636 -0.0078  1.0962 -0.3466
 4474TIP3   OH234912   0.723   1.007   4.218 -0.2611  0.4922 -0.4913
 4474TIP3    H134913   0.631   1.028   4.203 -0.3676 -1.5770 -3.1331
 4474TIP3    H234914   0.723   0.913   4.238  1.2737  0.4399 -0.6724
 4475TIP3   OH234915   5.676   3.110   1.583 -0.1720 -0.0110  0.1551
 4475TIP3    H134916   5.767   3.132   1.566 -0.3521  0.1814 -0.5782
 4475TIP3    H234917   5.635   3.193   1.605 -0.0124 -0.2110  1.1949
 4476TIP3   OH234918   6.368   4.167  14.840  0.5122 -0.2199  0.0432
 4476TIP3    H134919   6.428   4.237  14.812 -0.9255  0.7033 -0.7996
 4476TIP3    H234920   6.327   4.137  14.759 -0.8486 -0.1860  0.7027
 4477TIP3   OH234921   3.933   0.330   4.540  0.2347  0.0941  0.0183
 4477TIP3    H134922   3.876   0.326   4.463  0.9617 -0.1716 -0.5044
 4477TIP3    H234923   3.894   0.400   4.594 -0.1869  0.3890 -0.6530
 4478TIP3   OH234924   3.737   5.188  14.343  0.0215 -0.7967 -0.5477
 4478TIP3    H134925   3.790   5.194  14.422 -1.0189 -1.8983  0.2491
 4478TIP3    H234926   3.648   5.178  14.374 -0.5972  0.4322 -1.8811
 4479TIP3   OH234927   2.932   1.820   3.968  0.1113  0.1675  0.2716
 4479TIP3    H134928   2.941   1.727   3.988 -0.2566  0.0947  0.0970
 4479TIP3    H234929   3.016   1.845   3.929  0.1546 -0.1234  0.1797
 4480TIP3   OH234930   3.275   5.702   2.484 -0.0085  0.0361 -0.1626
 4480TIP3    H134931   3.244   5.638   2.548  0.0788 -0.1774 -0.3330
 4480TIP3    H234932   3.196   5.747   2.455 -0.5848 -2.4782 -2.7595
 4481TIP3   OH234933   0.092   6.544   1.584 -0.5721  0.1445  0.6210
 4481TIP3    H134934   0.010   6.496   1.595  0.0587 -1.3528 -0.8713
 4481TIP3    H234935   0.072   6.611   1.520 -0.5539 -0.4528 -0.0186
 4482TIP3   OH234936   4.885   5.762   1.676 -0.0799 -0.2848 -0.4720
 4482TIP3    H134937   4.936   5.828   1.629 -0.4638  0.0111 -0.4738
 4482TIP3    H234938   4.951   5.705   1.717  0.2645 -0.8374 -1.7741
 4483TIP3   OH234939   0.782   3.490  13.977  0.5262  0.4021  0.4481
 4483TIP3    H134940   0.774   3.513  14.069 -0.2177  1.4870  0.1156
 4483TIP3    H234941   0.810   3.571  13.934 -0.3052  0.2153 -0.4576
 4484TIP3   OH234942   4.660   4.895   1.695 -1.0896  0.0236  0.1415
 4484TIP3    H134943   4.621   4.935   1.617  1.7729  3.8721  0.5097
 4484TIP3    H234944   4.618   4.940   1.769  1.5350  1.8659  0.5880
 4485TIP3   OH234945   4.815   4.192   2.437  0.3254 -0.3302  0.3885
 4485TIP3    H134946   4.800   4.135   2.512  1.1596 -2.1227 -0.7614
 4485TIP3    H234947   4.818   4.133   2.362 -0.0137  1.3709 -1.0113
 4486TIP3   OH234948   5.038   0.400  15.181 -0.3266  0.0950 -0.3924
 4486TIP3    H134949   4.969   0.379  15.119 -0.0604 -0.2093 -0.5863
 4486TIP3    H234950   5.117   0.362  15.144 -0.1625 -0.0748  0.1190
 4487TIP3   OH234951   1.650   0.786   3.440 -0.4053  0.1761 -0.6587
 4487TIP3    H134952   1.669   0.702   3.398 -0.5801 -0.0380 -0.3056
 4487TIP3    H234953   1.571   0.770   3.491 -0.3502  0.5154 -0.4678
 4488TIP3   OH234954   6.356   4.255   5.079 -0.5946  0.7803 -0.2117
 4488TIP3    H134955   6.335   4.311   5.154 -1.9300 -0.6608  0.5209
 4488TIP3    H234956   6.333   4.166   5.107  2.1364 -0.2820 -1.0942
 4489TIP3   OH234957   2.267   5.905  16.274 -0.5272  0.3712 -0.2426
 4489TIP3    H134958   2.239   5.995  16.289  2.3447  0.8872  2.5463
 4489TIP3    H234959   2.210   5.853  16.331 -0.1533  0.7670  0.5090
 4490TIP3   OH234960   0.047   3.251   1.225 -0.0587 -0.5537 -0.4795
 4490TIP3    H134961  -0.020   3.302   1.271  0.8829  0.6827 -0.4406
 4490TIP3    H234962  -0.002   3.199   1.161 -1.3913 -2.3187  1.8923
 4491TIP3   OH234963   3.426   2.707   1.732 -0.5042 -0.4170 -0.5058
 4491TIP3    H134964   3.432   2.731   1.825 -1.0427  0.0677 -0.5888
 4491TIP3    H234965   3.333   2.717   1.712 -0.2870  0.0947 -1.2643
 4492TIP3   OH234966   4.940   3.819   2.146 -0.4646  0.5460  0.0262
 4492TIP3    H134967   4.978   3.903   2.119 -3.0746  1.3892 -1.1758
 4492TIP3    H234968   4.856   3.842   2.184 -2.4297 -1.6784 -2.7431
 4493TIP3   OH234969   6.486   5.175  16.307 -0.4486 -0.0549  0.3585
 4493TIP3    H134970   6.521   5.241  16.247 -0.6820 -1.1415 -1.0277
 4493TIP3    H234971   6.555   5.162  16.372 -0.6355  1.9399  0.9849
 4494TIP3   OH234972   4.658   4.614  17.200  0.2842  0.4788 -0.2300
 4494TIP3    H134973   4.669   4.686  17.138  0.2098  0.8408  0.1815
 4494TIP3    H234974   4.640   4.656  17.284  1.3883  0.0179  0.2511
 4495TIP3   OH234975   5.495   2.597  16.870 -0.0956  0.1021  0.5381
 4495TIP3    H134976   5.518   2.509  16.900  0.1403  0.1435  0.4810
 4495TIP3    H234977   5.543   2.655  16.929 -1.9678  0.2355  1.9876
 4496TIP3   OH234978   6.595   5.468   5.673  0.0793 -0.3215 -0.4340
 4496TIP3    H134979   6.611   5.496   5.583  2.4218  1.1603  0.4100
 4496TIP3    H234980   6.562   5.378   5.665  1.0202 -0.4962 -2.7144
 4497TIP3   OH234981   2.325   3.230  13.529 -0.0723  0.2878  0.4471
 4497TIP3    H134982   2.389   3.164  13.504  0.0055  1.0884 -1.6498
 4497TIP3    H234983   2.376   3.298  13.573  0.0433 -0.4407  1.4445
 4498TIP3   OH234984   5.494   3.722  15.486 -0.0946 -0.1795  0.2495
 4498TIP3    H134985   5.562   3.739  15.552  0.9168 -2.3505 -0.1722
 4498TIP3    H234986   5.412   3.746  15.529  0.7703  0.7255  1.4362
 4499TIP3   OH234987   6.670   2.291  17.274 -0.2902  0.3847  0.2839
 4499TIP3    H134988   6.702   2.293  17.364  0.1816 -1.4342  0.1739
 4499TIP3    H234989   6.576   2.278  17.283 -0.0324 -1.4918  0.5147
 4500TIP3   OH234990   3.024   0.233  11.921  0.5316 -0.1406 -0.3755
 4500TIP3    H134991   3.013   0.140  11.943  0.0290 -0.0013 -0.0341
 4500TIP3    H234992   3.090   0.233  11.852  0.9557 -0.7087  0.0212
 4501TIP3   OH234993   3.963   3.174  12.470 -0.2411 -0.2981  0.0970
 4501TIP3    H134994   4.008   3.257  12.455 -1.1675  0.6943  2.5647
 4501TIP3    H234995   3.872   3.191  12.445 -0.3921 -0.6360  0.4208
 4502TIP3   OH234996   3.441   2.805  13.371  0.0580 -0.6343  0.0856
 4502TIP3    H134997   3.496   2.727  13.373  0.0029 -0.6448  2.2111
 4502TIP3    H234998   3.501   2.876  13.345 -0.0233 -1.4382 -2.4518
 4503TIP3   OH234999   5.160   1.883  10.249  0.1263 -0.5114 -0.2560
 4503TIP3    H135000   5.153   1.798  10.293 -1.2767 -0.0776  0.3824
 4503TIP3    H235001   5.108   1.873  10.169  1.2962 -0.7590 -0.9996
 4504TIP3   OH235002   6.155   0.071  16.966  0.2721  0.2015 -0.5045
 4504TIP3    H135003   6.151   0.093  16.873  1.4236 -0.2967 -0.6824
 4504TIP3    H235004   6.212  -0.006  16.970  0.8753  0.6902  0.6924
 4505TIP3   OH235005   5.732   0.335  13.141  0.0765  0.0421  0.2889
 4505TIP3    H135006   5.679   0.413  13.158  0.6196  0.6863 -0.9625
 4505TIP3    H235007   5.816   0.369  13.111  0.9460 -0.9945  1.4714
 4506TIP3   OH235008   5.390   3.374  16.096  0.0694 -0.4473 -0.2739
 4506TIP3    H135009   5.375   3.439  16.028  0.1451  0.0840  0.2088
 4506TIP3    H235010   5.426   3.298  16.050 -1.9099 -0.8966 -1.1166
 4507TIP3   OH235011   4.007   5.684   3.787 -0.6361  0.5101 -0.1057
 4507TIP3    H135012   4.078   5.628   3.819  1.0078  2.4500 -0.2525
 4507TIP3    H235013   4.040   5.721   3.705 -2.5378  0.0635 -1.0943
 4508TIP3   OH235014   5.543   0.182   1.148  0.7886 -0.0804  0.5396
 4508TIP3    H135015   5.549   0.231   1.229  0.1771  1.9966 -0.6280
 4508TIP3    H235016   5.592   0.233   1.084 -1.2270 -0.0887 -1.1060
 4509TIP3   OH235017   4.091   4.639   3.898 -0.0352  0.0990  0.0688
 4509TIP3    H135018   4.058   4.688   3.823  2.1583  1.2278 -0.2060
 4509TIP3    H235019   4.017   4.635   3.958 -0.6770  2.5905 -0.4848
 4510TIP3   OH235020   0.015   1.507  12.014  0.2634 -0.0977 -0.4459
 4510TIP3    H135021   0.029   1.462  12.098  1.9806 -0.9339 -1.1561
 4510TIP3    H235022   0.029   1.439  11.948  1.5863  1.1895 -1.5079
 4511TIP3   OH235023   2.201   3.384  16.178 -0.1879 -0.0715 -0.0477
 4511TIP3    H135024   2.243   3.456  16.225  2.6461 -1.1709 -0.7547
 4511TIP3    H235025   2.247   3.306  16.208 -0.8063 -1.1917 -1.9098
 4512TIP3   OH235026   3.842   6.617  14.433 -0.2121 -0.8459  0.0925
 4512TIP3    H135027   3.791   6.547  14.392 -0.5708  0.4224 -1.6875
 4512TIP3    H235028   3.789   6.644  14.508 -2.0321  0.2123 -1.5231
 4513TIP3   OH235029   4.537   3.370  11.753 -0.4517 -0.1073  0.3436
 4513TIP3    H135030   4.478   3.325  11.813 -0.7671 -0.1804 -0.0198
 4513TIP3    H235031   4.611   3.396  11.808 -0.6047 -0.4257  0.7050
 4514TIP3   OH235032   6.279   4.461  14.084  0.0447 -0.1730 -0.4872
 4514TIP3    H135033   6.241   4.526  14.143 -2.4617  0.2170 -2.4677
 4514TIP3    H235034   6.323   4.513  14.016 -0.6848 -0.5502 -1.2537
 4515TIP3   OH235035   6.176   1.528   0.308 -0.2312  0.7144 -0.4850
 4515TIP3    H135036   6.155   1.620   0.327 -0.1873  0.5106  0.5621
 4515TIP3    H235037   6.213   1.530   0.220  2.4291  2.0993  0.6117
 4516TIP3   OH235038   4.530   0.774   5.110 -0.5227 -0.0344 -0.2956
 4516TIP3    H135039   4.539   0.835   5.183  0.2642 -0.5882  0.0722
 4516TIP3    H235040   4.581   0.813   5.039 -2.2516  1.0948 -0.9346
 4517TIP3   OH235041   0.130   1.000  15.268  0.1753  0.1599 -0.0848
 4517TIP3    H135042   0.043   0.968  15.293 -0.1035  0.3699 -0.7722
 4517TIP3    H235043   0.169   1.031  15.349 -0.5468  0.4278  0.1636
 4518TIP3   OH235044   4.303   0.870  14.150  0.1960 -0.0645  0.4497
 4518TIP3    H135045   4.251   0.914  14.217  2.0373  0.9702  1.2656
 4518TIP3    H235046   4.241   0.850  14.080 -1.7132 -0.9331  2.3413
 4519TIP3   OH235047   3.635   5.595  15.217 -0.0243 -0.5983  0.7401
 4519TIP3    H135048   3.707   5.578  15.279 -0.2006 -2.4011  0.4781
 4519TIP3    H235049   3.582   5.662  15.260  1.5393  0.3857  1.1702
 4520TIP3   OH235050   5.711   1.279   4.601 -0.7781 -0.1798 -0.4170
 4520TIP3    H135051   5.691   1.190   4.632 -1.5905 -0.3957 -1.5648
 4520TIP3    H235052   5.655   1.336   4.654  0.5272 -0.2368  1.0897
 4521TIP3   OH235053   2.310   5.789  12.472 -0.5125 -0.2083  0.0817
 4521TIP3    H135054   2.276   5.725  12.410 -0.0596 -0.9776  0.6175
 4521TIP3    H235055   2.270   5.766  12.555  1.7734 -1.5379  0.8607
 4522TIP3   OH235056   2.790   6.687  11.790 -0.1547  0.1549 -0.1345
 4522TIP3    H135057   2.702   6.696  11.753 -0.2336 -0.7813 -0.1867
 4522TIP3    H235058   2.848   6.725  11.724 -0.3883 -0.5831 -0.7755
 4523TIP3   OH235059   2.120   4.351   2.935  0.1701 -0.0875 -0.3410
 4523TIP3    H135060   2.097   4.370   3.026 -0.3332  1.1538 -0.7123
 4523TIP3    H235061   2.037   4.358   2.888 -0.0804 -3.3602 -0.5296
 4524TIP3   OH235062   0.592   4.180   6.037 -0.1307 -0.1886  0.0324
 4524TIP3    H135063   0.613   4.088   6.023 -0.7800 -0.5966  1.6179
 4524TIP3    H235064   0.638   4.204   6.117  0.9903  1.2049 -1.0119
 4525TIP3   OH235065   6.607   1.213   3.410 -0.2212  0.4783 -0.2213
 4525TIP3    H135066   6.670   1.284   3.424  1.9521 -1.6996  1.3173
 4525TIP3    H235067   6.634   1.174   3.327 -0.3861  0.4009 -0.2379
 4526TIP3   OH235068   0.468   2.692   0.449 -0.3752  0.3354  0.4525
 4526TIP3    H135069   0.423   2.776   0.456 -0.3324  0.5011 -0.9980
 4526TIP3    H235070   0.407   2.629   0.490 -1.3590  0.7600 -0.3248
 4527TIP3   OH235071   3.551   4.601   4.067  0.5653  0.2378  0.2947
 4527TIP3    H135072   3.596   4.524   4.032 -0.4927 -0.2102 -0.0814
 4527TIP3    H235073   3.620   4.649   4.113  1.6305  0.0258 -1.0535
 4528TIP3   OH235074   0.051   2.438  13.550 -0.0775  0.1377  0.6038
 4528TIP3    H135075   0.036   2.452  13.644 -1.0035  1.4750  0.2690
 4528TIP3    H235076  -0.032   2.462  13.509  0.1810 -0.8734 -0.5282
 4529TIP3   OH235077   5.868   6.671  16.614  0.3436  0.7441  0.2757
 4529TIP3    H135078   5.929   6.672  16.687  0.1815 -3.9389  0.6173
 4529TIP3    H235079   5.814   6.749  16.627  1.0110  0.6044  4.5742
 4530TIP3   OH235080   5.253   6.294   2.571 -0.0865  0.5189  0.5413
 4530TIP3    H135081   5.292   6.236   2.637 -0.1620  0.0159  0.1493
 4530TIP3    H235082   5.173   6.249   2.544 -0.8776  1.4941  1.2567
 4531TIP3   OH235083   4.590   2.620  14.320  0.1343  0.0695 -0.4316
 4531TIP3    H135084   4.654   2.689  14.302 -1.6951  1.4559 -1.8403
 4531TIP3    H235085   4.505   2.664  14.318 -0.9307 -1.8487  0.7459
 4532TIP3   OH235086   2.225   3.090   6.438  0.3873 -0.1854 -0.4937
 4532TIP3    H135087   2.191   3.026   6.375 -0.3302 -1.9161  1.5903
 4532TIP3    H235088   2.305   3.049   6.473 -0.2363 -0.0919  1.0701
 4533TIP3   OH235089   5.080   3.923   0.068 -0.1192  0.3030  0.4344
 4533TIP3    H135090   5.136   3.869   0.123 -0.3614 -0.0842  0.3048
 4533TIP3    H235091   5.133   3.999   0.047  0.9178 -0.7614 -0.9372
 4534TIP3   OH235092   4.239   5.042  12.152  0.0179 -0.2303  0.6394
 4534TIP3    H135093   4.163   5.100  12.137  0.5631  0.1344 -0.7639
 4534TIP3    H235094   4.307   5.077  12.095 -0.2260 -3.3944 -1.7632
 4535TIP3   OH235095   1.180   0.689   0.431 -0.1500  0.4617  0.5169
 4535TIP3    H135096   1.219   0.602   0.423 -1.0920 -0.0157  1.0243
 4535TIP3    H235097   1.105   0.688   0.370  0.0927  1.0629  0.2044
 4536TIP3   OH235098   3.092   3.123   6.572  0.0570 -0.0231  0.5221
 4536TIP3    H135099   3.049   3.061   6.514  0.1232  0.5818 -0.1880
 4536TIP3    H235100   3.166   3.156   6.521  0.9807 -0.5730  1.4937
 4537TIP3   OH235101   3.579   4.950   0.219  0.1726 -0.0611  0.3002
 4537TIP3    H135102   3.489   4.958   0.248  0.0961 -0.2683  0.1221
 4537TIP3    H235103   3.573   4.928   0.126  0.3909 -0.7473  0.4463
 4538TIP3   OH235104   4.757   1.464  14.703  0.1181  0.9443  0.1900
 4538TIP3    H135105   4.814   1.541  14.696  1.3315  0.3483  2.9072
 4538TIP3    H235106   4.817   1.392  14.722 -1.2248 -0.3323 -0.3248
 4539TIP3   OH235107   0.561   3.557   2.047  0.1461  0.9982 -0.4576
 4539TIP3    H135108   0.590   3.646   2.026  0.5119  1.4159  1.6584
 4539TIP3    H235109   0.522   3.566   2.134 -0.7460 -0.7311 -0.6748
 4540TIP3   OH235110   5.217   2.973   5.474  0.2266  0.2879 -0.3622
 4540TIP3    H135111   5.154   2.976   5.546 -0.0019  1.1216 -0.5929
 4540TIP3    H235112   5.204   2.887   5.434 -0.1675  0.1211  0.1301
 4541TIP3   OH235113   6.390   1.213  15.673  0.1906 -0.1407 -0.1649
 4541TIP3    H135114   6.321   1.253  15.725 -0.0496 -0.4512 -0.2445
 4541TIP3    H235115   6.361   1.123  15.659  0.1118  0.0173 -1.0745
 4542TIP3   OH235116   5.342   5.699   3.291  0.1472 -0.2392  0.2695
 4542TIP3    H135117   5.261   5.653   3.312  1.2883 -2.3556  0.2392
 4542TIP3    H235118   5.343   5.704   3.195  0.4793 -1.0681  0.2220
 4543TIP3   OH235119   2.125   6.675  10.497 -0.0332  0.2394  0.3631
 4543TIP3    H135120   2.135   6.581  10.513  0.8621  0.5393  1.5945
 4543TIP3    H235121   2.057   6.703  10.559 -0.1361  0.4549  0.1542
 4544TIP3   OH235122   5.851   0.620  13.730  0.0712  0.5102  0.1331
 4544TIP3    H135123   5.894   0.669  13.800 -0.8541  0.9470  0.4016
 4544TIP3    H235124   5.758   0.634  13.745 -0.1335  0.3989 -1.0498
 4545TIP3   OH235125   3.778   1.220  16.316  0.1553 -0.9038  0.3442
 4545TIP3    H135126   3.701   1.262  16.278  0.0914 -2.0577 -0.8784
 4545TIP3    H235127   3.797   1.270  16.394 -0.3561  0.9194 -0.6702
 4546TIP3   OH235128   4.822   5.039   4.113 -0.8273  0.4924  0.3033
 4546TIP3    H135129   4.809   5.002   4.026  0.1097  1.6164 -0.3199
 4546TIP3    H235130   4.878   4.976   4.158 -1.8286 -0.4051  0.3260
 4547TIP3   OH235131   6.477   5.816   1.425 -0.5534 -0.2976  0.0298
 4547TIP3    H135132   6.475   5.729   1.384 -0.8560 -0.1701 -0.2239
 4547TIP3    H235133   6.439   5.874   1.360 -1.9081 -0.2559  0.8515
 4548TIP3   OH235134   3.616   2.376  11.185  0.4956 -0.4743  0.3153
 4548TIP3    H135135   3.540   2.435  11.185  0.2327 -0.8094  0.7609
 4548TIP3    H235136   3.656   2.388  11.099 -0.5337 -0.8902 -0.2357
 4549TIP3   OH235137   1.701   5.068  13.792  0.2575  0.5094  0.1461
 4549TIP3    H135138   1.741   5.152  13.768  0.8554  0.5871  1.3568
 4549TIP3    H235139   1.759   5.033  13.860 -0.4534 -0.4956  0.2438
 4550TIP3   OH235140   6.447   1.584  11.388  0.1213 -0.2373 -0.0981
 4550TIP3    H135141   6.429   1.623  11.474  0.3657  2.6213 -1.3009
 4550TIP3    H235142   6.380   1.516  11.378  0.1940 -0.7439  2.3953
 4551TIP3   OH235143   6.709   2.022  14.846 -0.1267 -0.0441 -0.3051
 4551TIP3    H135144   6.689   2.093  14.908  2.0324  1.1743 -0.9477
 4551TIP3    H235145   6.634   2.021  14.787 -0.2843  1.5872 -0.1626
 4552TIP3   OH235146   2.114   0.531  13.557  0.1570  1.0818 -0.3164
 4552TIP3    H135147   2.020   0.531  13.539  0.0994  1.5928 -0.0343
 4552TIP3    H235148   2.151   0.591  13.493  0.2268  1.2687 -0.1023
 4553TIP3   OH235149   1.812   5.484  11.304 -0.2225 -0.5065  0.3476
 4553TIP3    H135150   1.896   5.528  11.296 -0.6385  0.6927  2.3109
 4553TIP3    H235151   1.818   5.409  11.244  2.5961 -0.9945  1.1905
 4554TIP3   OH235152   4.790   4.846  12.040 -0.0784 -0.1978  0.4240
 4554TIP3    H135153   4.763   4.860  12.131 -1.0677  0.4013  0.0434
 4554TIP3    H235154   4.814   4.754  12.036 -0.2798 -0.2865  1.2343
 4555TIP3   OH235155   1.519   4.340  14.792 -0.4074  0.9032 -0.3313
 4555TIP3    H135156   1.456   4.275  14.822  0.5984  0.1032  0.0846
 4555TIP3    H235157   1.466   4.415  14.766 -1.3767  1.2662  2.5331
 4556TIP3   OH235158   2.991   1.788  11.154  0.2510  0.8952  0.0341
 4556TIP3    H135159   2.954   1.722  11.096  1.2218  1.3541 -1.1227
 4556TIP3    H235160   3.082   1.760  11.169  0.6120  1.8311 -0.3013
 4557TIP3   OH235161   0.019   6.050  16.464 -0.1330  0.3644  0.4998
 4557TIP3    H135162   0.111   6.023  16.470  0.1194  1.0987  0.0957
 4557TIP3    H235163  -0.029   5.985  16.515  0.8056  0.9701  2.2076
 4558TIP3   OH235164   4.263   6.458  17.284  0.2463 -0.0790 -0.9693
 4558TIP3    H135165   4.169   6.454  17.269  0.2419 -1.2609 -0.7057
 4558TIP3    H235166   4.293   6.532  17.232 -0.6022 -0.6232 -2.2724
 4559TIP3   OH235167   0.009   5.876   3.079 -0.0529  0.3967 -0.2002
 4559TIP3    H135168   0.010   5.962   3.036 -0.9928  0.4702 -0.1007
 4559TIP3    H235169  -0.084   5.851   3.078  0.3799 -1.2381 -1.4430
 4560TIP3   OH235170   4.449   2.602   4.429  0.1550  0.2543 -0.0589
 4560TIP3    H135171   4.495   2.655   4.493 -0.5393 -0.5317  1.1061
 4560TIP3    H235172   4.367   2.577   4.472  0.1318 -1.1371 -0.8643
 4561TIP3   OH235173   4.686   2.108  13.390  0.4043  0.5725 -0.3535
 4561TIP3    H135174   4.602   2.153  13.391  0.2033  0.1950 -0.2313
 4561TIP3    H235175   4.673   2.031  13.445  0.0368 -0.9396 -2.4768
 4562TIP3   OH235176   2.612   1.261  17.161  0.3914 -0.2652  0.1348
 4562TIP3    H135177   2.573   1.313  17.231  3.3858  0.2446  1.5191
 4562TIP3    H235178   2.590   1.171  17.182 -2.2535  0.1464 -0.6222
 4563TIP3   OH235179   5.390   1.058  13.800 -0.1665 -0.0224  0.5939
 4563TIP3    H135180   5.483   1.078  13.807 -0.3124  0.7674  0.2751
 4563TIP3    H235181   5.349   1.100  13.876 -0.4846  1.0136 -0.1368
 4564TIP3   OH235182   2.087   1.411   5.700  0.2119 -0.1173  0.5558
 4564TIP3    H135183   2.067   1.490   5.649 -0.2913 -0.6412 -0.0785
 4564TIP3    H235184   2.023   1.346   5.669  1.1947 -1.0335  0.4287
 4565TIP3   OH235185   5.763   4.205   4.085 -0.9644  0.1638  0.4682
 4565TIP3    H135186   5.752   4.178   4.176 -0.1979 -1.5167  0.0906
 4565TIP3    H235187   5.854   4.233   4.080 -1.2452  1.0613  0.4192
 4566TIP3   OH235188   1.667   2.532   1.134  0.0119 -0.3237 -0.0023
 4566TIP3    H135189   1.652   2.438   1.126 -1.8200  0.0289 -0.8304
 4566TIP3    H235190   1.705   2.557   1.049  0.2828 -0.2700  0.1342
 4567TIP3   OH235191   3.454   5.312   0.299  0.4785 -0.4385 -0.1508
 4567TIP3    H135192   3.490   5.389   0.343  0.4891 -0.1557 -0.6512
 4567TIP3    H235193   3.422   5.345   0.215  1.6607 -1.1987 -0.9272
 4568TIP3   OH235194   3.194   5.618  12.231 -0.1087  0.1367 -0.1808
 4568TIP3    H135195   3.194   5.544  12.171 -1.3852  0.8971 -1.1635
 4568TIP3    H235196   3.104   5.622  12.264 -0.9742  3.1871 -2.6645
 4569TIP3   OH235197   5.985   2.053   4.570  0.3287  0.7847 -0.1848
 4569TIP3    H135198   6.073   2.019   4.586  0.3252  1.6960  2.0054
 4569TIP3    H235199   5.990   2.145   4.596 -1.3961  0.7205  0.4389
 4570TIP3   OH235200   4.146   4.410  16.872 -0.1748 -0.2635 -0.3783
 4570TIP3    H135201   4.153   4.459  16.953 -0.2010 -2.0917  0.7571
 4570TIP3    H235202   4.122   4.475  16.806 -3.1808  0.7330  1.6292
 4571TIP3   OH235203   5.346   1.170  14.054 -0.0201 -0.0479  0.8150
 4571TIP3    H135204   5.369   1.120  14.132  1.7498 -0.0625  0.3057
 4571TIP3    H235205   5.365   1.261  14.077  0.5464 -0.0566  0.3890
 4572TIP3   OH235206   3.732   0.689  13.197 -0.1809 -0.3575 -0.0939
 4572TIP3    H135207   3.780   0.748  13.256  0.1156  0.5796 -1.2570
 4572TIP3    H235208   3.701   0.618  13.254  0.4755  0.3068  1.1085
 4573TIP3   OH235209   4.644   3.653  11.021 -0.0643 -0.6637  0.4466
 4573TIP3    H135210   4.699   3.719  10.980  0.8788 -2.0948 -0.6547
 4573TIP3    H235211   4.573   3.639  10.959 -0.8868  0.0977  1.1895
 4574TIP3   OH235212   2.079   3.899   5.965  0.1821  0.1731 -0.5250
 4574TIP3    H135213   2.102   3.979   5.919  0.6472 -0.2035 -0.9585
 4574TIP3    H235214   2.161   3.851   5.972 -0.1764 -0.4659 -0.6628
 4575TIP3   OH235215   6.432   1.130   1.480 -0.3546  0.5296  0.8289
 4575TIP3    H135216   6.453   1.037   1.466  0.3970  0.6182  1.3458
 4575TIP3    H235217   6.342   1.129   1.512 -0.7993  0.0703 -0.4200
 4576TIP3   OH235218   0.529   0.546  16.580 -0.3727  0.2439 -0.7888
 4576TIP3    H135219   0.447   0.582  16.615 -0.9840  1.4783 -3.3402
 4576TIP3    H235220   0.597   0.606  16.611 -0.8402  1.0189 -1.2364
 4577TIP3   OH235221   3.712   4.885  14.295 -0.1476  0.0115  0.4975
 4577TIP3    H135222   3.678   4.951  14.355 -0.4949 -1.8441  2.4008
 4577TIP3    H235223   3.681   4.912  14.209 -1.1882  1.7217  1.3991
 4578TIP3   OH235224   2.586   0.122  13.882  0.3390 -0.0963  0.3038
 4578TIP3    H135225   2.603   0.060  13.953 -2.6516  0.2706  1.3952
 4578TIP3    H235226   2.585   0.208  13.925 -1.4372  0.1296 -0.1521
 4579TIP3   OH235227   4.685   4.940   2.969  0.4179  0.7432  0.5191
 4579TIP3    H135228   4.646   4.877   2.909  0.3194 -0.2990  1.6580
 4579TIP3    H235229   4.611   4.975   3.018  0.4019  2.1762 -0.4722
 4580TIP3   OH235230   2.803   6.652  14.700 -0.4909  0.4055  0.1820
 4580TIP3    H135231   2.746   6.577  14.684 -1.7738  0.8761  2.3411
 4580TIP3    H235232   2.888   6.625  14.666 -1.5448 -1.0303 -1.3967
 4581TIP3   OH235233   3.929   1.234  11.727 -0.3100 -0.0021  0.5767
 4581TIP3    H135234   3.953   1.204  11.640 -0.2208  3.6187 -0.6933
 4581TIP3    H235235   4.005   1.215  11.781  1.0635  1.0631 -0.9510
 4582TIP3   OH235236   2.781   3.283   3.109 -0.3156  0.4256  0.1224
 4582TIP3    H135237   2.827   3.360   3.143  0.8137  0.4331 -1.3655
 4582TIP3    H235238   2.805   3.279   3.016 -1.1757 -1.1420 -0.0642
 4583TIP3   OH235239   1.865   1.936   5.970 -0.0535  0.1553 -0.4943
 4583TIP3    H135240   1.857   1.867   6.035 -1.1452  0.8726  0.1477
 4583TIP3    H235241   1.859   1.890   5.886 -3.1307 -0.3194 -0.0836
 4584TIP3   OH235242   6.252   1.324  14.741  0.2370 -0.4252 -0.0476
 4584TIP3    H135243   6.265   1.411  14.780  1.5880 -0.8519  0.5018
 4584TIP3    H235244   6.341   1.290  14.730 -0.2744 -1.5903 -0.6019
 4585TIP3   OH235245   1.398   0.541   1.526 -0.0689  0.1401  0.2424
 4585TIP3    H135246   1.433   0.463   1.568  0.3093 -0.5915 -1.3850
 4585TIP3    H235247   1.401   0.609   1.593  1.6629 -0.6880  1.0154
 4586TIP3   OH235248   4.013   4.396  12.003  0.1864 -0.2026  0.0968
 4586TIP3    H135249   4.032   4.400  12.097 -0.0764 -1.2329  0.1972
 4586TIP3    H235250   4.048   4.478  11.968  1.6719 -0.4988  0.8383
 4587TIP3   OH235251   4.332   2.395   3.080 -0.2042  0.2159 -0.3936
 4587TIP3    H135252   4.316   2.459   3.011 -1.2551 -0.7011 -1.0138
 4587TIP3    H235253   4.267   2.415   3.147  0.8219  1.1134  0.3670
 4588TIP3   OH235254   2.323   3.485   5.501  0.0755 -0.7744 -0.0382
 4588TIP3    H135255   2.248   3.476   5.443 -0.6329  0.6041  0.6470
 4588TIP3    H235256   2.302   3.559   5.557  2.8206  0.9951 -1.2031
 4589TIP3   OH235257   0.572   2.473   3.457  0.1625  0.4543 -0.2602
 4589TIP3    H135258   0.661   2.481   3.491 -0.0572 -0.3135  0.4869
 4589TIP3    H235259   0.565   2.382   3.428 -1.0902 -0.1156  1.7210
 4590TIP3   OH235260   1.974   0.926   1.625 -0.3105  0.0815  0.3998
 4590TIP3    H135261   2.067   0.937   1.646  0.2983 -1.1394 -1.5556
 4590TIP3    H235262   1.935   1.010   1.649  0.6822 -0.4533  4.2313
 4591TIP3   OH235263   5.703   4.720   6.462 -0.5143  0.0292 -0.3711
 4591TIP3    H135264   5.751   4.670   6.396 -2.7294 -2.7313  0.0154
 4591TIP3    H235265   5.765   4.786   6.491  2.2496 -1.9051 -1.5919
 4592TIP3   OH235266   3.712   3.977   1.979 -0.1061  0.4734 -1.0932
 4592TIP3    H135267   3.723   3.903   1.920 -1.2400  2.4943 -3.9471
 4592TIP3    H235268   3.619   3.996   1.978  0.1307  1.8084 -0.2145
 4593TIP3   OH235269   3.219   4.847   0.260  0.3227 -0.1118 -0.1013
 4593TIP3    H135270   3.251   4.929   0.222  1.5136  0.4275  1.9721
 4593TIP3    H235271   3.129   4.864   0.285 -0.2280 -0.2411 -1.9764
 4594TIP3   OH235272   3.918   2.555   3.753 -0.1520 -0.0272 -0.0708
 4594TIP3    H135273   3.850   2.504   3.708  1.2960 -1.9017 -0.1846
 4594TIP3    H235274   3.929   2.510   3.837  1.3978 -0.1245 -0.3201
 4595TIP3   OH235275   0.005   5.462   0.593  0.0385 -0.3605 -0.4974
 4595TIP3    H135276  -0.090   5.459   0.585 -0.0163  1.9338 -0.9213
 4595TIP3    H235277   0.022   5.476   0.686 -0.0962  1.1860 -0.7036
 4596TIP3   OH235278   1.941   5.799   3.503  0.7097  0.3202  0.4120
 4596TIP3    H135279   1.970   5.871   3.448 -0.0580 -0.6490 -1.2835
 4596TIP3    H235280   1.852   5.779   3.472  0.3114 -0.3220  1.9028
 4597TIP3   OH235281   4.167   4.988  12.457 -0.4036 -0.3495  0.1501
 4597TIP3    H135282   4.227   4.999  12.383 -1.7438 -0.3374 -0.9614
 4597TIP3    H235283   4.184   4.899  12.488  1.7995  0.4356  1.3302
 4598TIP3   OH235284   1.102   4.385  15.760  0.0965 -0.9381 -0.2433
 4598TIP3    H135285   1.169   4.319  15.780 -0.3986 -1.8164 -1.4195
 4598TIP3    H235286   1.022   4.334  15.750 -0.2849 -0.1565 -1.1836
 4599TIP3   OH235287   4.516   3.694  17.249  0.1268 -0.0167 -0.0018
 4599TIP3    H135288   4.523   3.700  17.345 -0.4301 -0.5849  0.0817
 4599TIP3    H235289   4.552   3.777  17.217 -0.7769  0.6843  0.7582
 4600TIP3   OH235290   5.772   5.766   4.945  0.1379  0.2435  0.2152
 4600TIP3    H135291   5.831   5.751   5.019 -0.2561  0.0975  0.4986
 4600TIP3    H235292   5.813   5.838   4.897 -1.6897  3.1554  2.8078
 4601TIP3   OH235293   3.260   4.448  15.658  0.0063  0.3842  0.0317
 4601TIP3    H135294   3.217   4.486  15.581  0.2038 -0.5772 -0.5650
 4601TIP3    H235295   3.210   4.368  15.674  0.9303 -0.2034 -0.0337
 4602TIP3   OH235296   5.117   0.629  15.713 -0.6255  1.0092  0.4800
 4602TIP3    H135297   5.076   0.602  15.631  2.9041  1.6159 -1.5831
 4602TIP3    H235298   5.148   0.547  15.753 -1.6202  0.7925  0.8135
 4603TIP3   OH235299   3.733   6.424   5.511 -0.0033  0.0502  0.0123
 4603TIP3    H135300   3.789   6.502   5.509 -0.3124  0.2706 -0.0688
 4603TIP3    H235301   3.793   6.351   5.524  0.1420  0.4553  1.6526
 4604TIP3   OH235302   2.038   3.329  15.948 -0.3323  0.0048 -0.1413
 4604TIP3    H135303   1.964   3.317  16.007 -0.3856 -1.3421 -0.4646
 4604TIP3    H235304   2.114   3.332  16.006 -0.3106 -2.0430 -0.0426
 4605TIP3   OH235305   4.955   4.984   1.392  0.1259 -0.2290 -0.0227
 4605TIP3    H135306   4.919   4.898   1.417  1.9172 -1.1683 -0.5926
 4605TIP3    H235307   4.898   5.014   1.321  1.2720 -2.3625 -1.9199
 4606TIP3   OH235308   2.768   1.580   1.982  0.2735  0.6613 -0.3845
 4606TIP3    H135309   2.789   1.653   1.925  1.7507  0.7847  0.2872
 4606TIP3    H235310   2.823   1.593   2.059  0.4793 -1.0920 -0.2052
 4607TIP3   OH235311   5.092   0.690  14.324 -0.2045  0.2134 -0.8845
 4607TIP3    H135312   5.038   0.762  14.290  0.0211  2.0335  2.4218
 4607TIP3    H235313   5.061   0.676  14.413  3.1700 -0.3006  0.2981
 4608TIP3   OH235314   4.344   2.004  10.993  0.4489 -0.1187 -0.6104
 4608TIP3    H135315   4.409   1.964  10.935 -0.0290 -2.5674  0.4543
 4608TIP3    H235316   4.350   1.952  11.074 -2.0603  0.3174 -0.1050
 4609TIP3   OH235317   2.169   3.742   5.096  0.6183  0.4302 -0.1721
 4609TIP3    H135318   2.084   3.785   5.081  1.1516  1.2874 -0.7802
 4609TIP3    H235319   2.222   3.808   5.140  1.3844  0.3318 -0.9420
 4610TIP3   OH235320   4.497   4.119   0.824  0.4496  0.2226 -0.4306
 4610TIP3    H135321   4.471   4.196   0.875 -0.0509  0.8320 -1.5890
 4610TIP3    H235322   4.538   4.155   0.746  1.8576 -0.7119 -0.1463
 4611TIP3   OH235323   5.257   3.717   0.709  0.2864 -0.2038  0.4810
 4611TIP3    H135324   5.317   3.713   0.635 -0.8704  0.4125 -0.4953
 4611TIP3    H235325   5.239   3.810   0.721 -3.4832 -0.5653 -1.7172
 4612TIP3   OH235326   0.619   5.653   1.998  0.2095  0.1609  0.1718
 4612TIP3    H135327   0.577   5.605   2.069  2.3288  0.8052  1.9215
 4612TIP3    H235328   0.617   5.745   2.027 -1.0533  0.7490 -1.7120
 4613TIP3   OH235329   3.958   0.290  14.508  0.3443  0.2518 -0.1216
 4613TIP3    H135330   3.965   0.231  14.433 -0.7088  0.1613 -0.1652
 4613TIP3    H235331   4.036   0.272  14.561 -1.2448 -3.1012  1.2236
 4614TIP3   OH235332   0.683   2.061  17.196  0.5447  0.1923  0.1095
 4614TIP3    H135333   0.772   2.033  17.173  0.0126 -2.5055  1.2221
 4614TIP3    H235334   0.696   2.131  17.260  1.8686 -0.3371  0.4438
 4615TIP3   OH235335   5.547   0.856   4.338 -0.2033 -0.2512 -0.1563
 4615TIP3    H135336   5.576   0.938   4.378 -2.5193  0.1424  0.8450
 4615TIP3    H235337   5.562   0.789   4.405 -1.1887 -0.1093  0.2180
 4616TIP3   OH235338   0.221   2.568   6.640 -0.2808  0.0900 -0.0056
 4616TIP3    H135339   0.212   2.615   6.723 -1.4053 -1.6815  0.9033
 4616TIP3    H235340   0.142   2.590   6.591 -0.6353 -0.5732  0.2712
 4617TIP3   OH235341   1.425   4.886  15.553 -0.5560 -0.3680 -0.2053
 4617TIP3    H135342   1.501   4.943  15.567 -1.0469 -0.0509  1.2209
 4617TIP3    H235343   1.440   4.812  15.612 -1.1363 -0.5149 -0.2392
 4618TIP3   OH235344   2.200   6.035  13.172  0.1366 -0.3851 -0.3094
 4618TIP3    H135345   2.115   5.992  13.174 -0.1842  0.2863  0.8020
 4618TIP3    H235346   2.241   6.004  13.090 -1.3546 -0.3184 -1.0896
 4619TIP3   OH235347   2.489   1.237   3.049  0.0776 -0.4229  0.5027
 4619TIP3    H135348   2.461   1.146   3.059 -0.2650 -0.4050 -0.2307
 4619TIP3    H235349   2.580   1.231   3.020 -0.3232 -0.5678 -0.7669
 4620TIP3   OH235350   1.998   1.051  14.021  0.6512  0.2992  0.2823
 4620TIP3    H135351   1.924   1.107  13.998  0.8155  0.7756  0.8759
 4620TIP3    H235352   2.056   1.055  13.945  0.8823  1.3308  0.4967
 4621TIP3   OH235353   1.951   3.745   4.210  0.2905 -0.5121 -0.3922
 4621TIP3    H135354   1.882   3.680   4.222  0.6683 -1.2164 -1.8771
 4621TIP3    H235355   1.966   3.747   4.116  1.3550  0.6241 -0.2140
 4622TIP3   OH235356   2.481   1.139  11.359 -0.0475  0.1686  0.2666
 4622TIP3    H135357   2.419   1.211  11.355 -1.8338 -1.3326 -0.1280
 4622TIP3    H235358   2.504   1.122  11.267 -0.1472 -0.1612  0.2984
 4623TIP3   OH235359   3.590   1.518   1.574  0.3077  0.1832 -0.4254
 4623TIP3    H135360   3.673   1.566   1.582  0.7506  0.2668 -4.4257
 4623TIP3    H235361   3.617   1.428   1.557 -0.4322  0.0189 -0.7221
 4624TIP3   OH235362   5.709   4.007   5.794 -0.0535  0.0563 -0.8801
 4624TIP3    H135363   5.751   4.091   5.779  0.9928 -0.4901 -1.0233
 4624TIP3    H235364   5.758   3.967   5.866 -1.8013  0.4224  0.5733
 4625TIP3   OH235365   4.575   6.075   1.507 -0.3134 -0.8060 -0.3732
 4625TIP3    H135366   4.525   6.047   1.584 -1.9413 -0.4402 -1.2682
 4625TIP3    H235367   4.639   6.138   1.541 -3.1668  1.8597  0.2468
 4626TIP3   OH235368   1.280   5.154   2.344 -0.0316 -0.8165  0.1451
 4626TIP3    H135369   1.264   5.212   2.270 -0.7686 -0.2712  0.7229
 4626TIP3    H235370   1.320   5.076   2.305  0.9916  0.0886 -0.6257
 4627TIP3   OH235371   2.271   6.093   0.403 -0.2035 -0.0801  0.1730
 4627TIP3    H135372   2.193   6.083   0.348  1.3480  1.1439 -2.3400
 4627TIP3    H235373   2.245   6.157   0.469 -1.6871 -0.5735  0.0916
 4628TIP3   OH235374   0.374   5.011  13.457 -0.3057  0.2516  0.1381
 4628TIP3    H135375   0.343   4.993  13.546 -1.7833  0.7750 -0.2570
 4628TIP3    H235376   0.425   5.092  13.466  0.5150 -0.3285  0.7055
 4629TIP3   OH235377   1.584   1.400  13.888  0.3087  0.0066  0.1705
 4629TIP3    H135378   1.538   1.449  13.956  0.4160 -0.6689  0.7456
 4629TIP3    H235379   1.616   1.466  13.827 -0.5852  0.5570  0.2878
 4630TIP3   OH235380   1.096   5.781  13.998  0.2212  1.2881  0.5123
 4630TIP3    H135381   1.113   5.724  14.073  1.3656 -0.4378 -1.0103
 4630TIP3    H235382   1.174   5.772  13.943 -0.8392  2.0845 -1.1492
 4631TIP3   OH235383   5.470   3.751  13.262 -0.0273 -0.1026  0.1842
 4631TIP3    H135384   5.561   3.766  13.240 -0.1979  0.0720 -0.3975
 4631TIP3    H235385   5.473   3.689  13.335  0.5296 -0.5886 -0.2556
 4632TIP3   OH235386   6.242   2.243   5.557  0.0241  0.2658 -0.1283
 4632TIP3    H135387   6.171   2.218   5.498 -1.3679  2.2305  0.6407
 4632TIP3    H235388   6.221   2.198   5.640  0.5255 -0.3640 -0.3364
 4633TIP3   OH235389   1.324   5.223  14.218 -0.2660 -0.0648 -0.0477
 4633TIP3    H135390   1.246   5.183  14.179  0.3863 -0.1168 -1.3450
 4633TIP3    H235391   1.293   5.307  14.252 -0.9172 -0.1449 -0.4382
 4634TIP3   OH235392   4.342   1.714  16.994  0.3103 -0.2056  0.1868
 4634TIP3    H135393   4.277   1.722  17.064 -0.9357 -1.3855 -0.7896
 4634TIP3    H235394   4.291   1.725  16.913  1.4685 -0.3219 -0.5653
 4635TIP3   OH235395   3.588   6.688   3.092 -0.3181 -0.5281  0.1106
 4635TIP3    H135396   3.513   6.723   3.044  0.4660 -0.3754 -1.0025
 4635TIP3    H235397   3.659   6.750   3.076 -0.1511 -0.2231  1.8421
 4636TIP3   OH235398   4.654   6.676  13.108  0.2722  0.1817  0.4129
 4636TIP3    H135399   4.612   6.590  13.110 -0.0116  0.2971 -0.3099
 4636TIP3    H235400   4.717   6.674  13.180 -2.3707  0.7260  2.8544
 4637TIP3   OH235401   1.883   4.868   5.549 -0.0476 -0.3342  0.4287
 4637TIP3    H135402   1.829   4.838   5.622  0.7301 -1.3162  0.6129
 4637TIP3    H235403   1.842   4.828   5.472 -0.1122 -0.3499  0.4712
 4638TIP3   OH235404   0.312   2.610   1.196 -0.4438  0.0190  1.1676
 4638TIP3    H135405   0.324   2.679   1.262 -0.3134  0.6071  0.5409
 4638TIP3    H235406   0.368   2.637   1.123 -2.1509  0.4807 -0.0310
 4639TIP3   OH235407   3.845   3.689   5.636  0.5087 -0.9132  0.0625
 4639TIP3    H135408   3.787   3.635   5.690 -0.1605  0.2338  0.5124
 4639TIP3    H235409   3.898   3.737   5.699  1.0935 -1.0309 -0.3387
 4640TIP3   OH235410   5.742   5.219  12.120 -0.4415  0.4180  0.1297
 4640TIP3    H135411   5.735   5.132  12.158  0.9458  0.3071  0.1620
 4640TIP3    H235412   5.695   5.213  12.037  0.3978 -0.6059 -0.2756
 4641TIP3   OH235413   1.432   2.379   2.464 -0.4371  0.0671  0.3031
 4641TIP3    H135414   1.426   2.300   2.517 -0.3201  0.6009  1.1254
 4641TIP3    H235415   1.361   2.434   2.496 -0.0510  0.6009  0.2442
 4642TIP3   OH235416   4.532   6.457   4.683 -0.1388  0.1871 -0.3385
 4642TIP3    H135417   4.580   6.385   4.725 -0.2142 -0.3034 -1.0815
 4642TIP3    H235418   4.582   6.474   4.603  0.7735  2.0034  0.5711
 4643TIP3   OH235419   0.462   0.380  16.996  0.0458 -0.1277 -0.4119
 4643TIP3    H135420   0.502   0.324  16.929  0.3935 -0.3477 -0.0224
 4643TIP3    H235421   0.535   0.431  17.031 -0.1628  0.0994 -0.3060
 4644TIP3   OH235422   6.128   1.095   3.588  0.2207 -0.0730 -0.4216
 4644TIP3    H135423   6.046   1.140   3.607 -0.4806 -1.8639  0.8856
 4644TIP3    H235424   6.188   1.166   3.562  0.1129  2.1680  4.7880
 4645TIP3   OH235425   2.059   5.084   5.588 -0.2756  0.0633  0.2423
 4645TIP3    H135426   2.141   5.043   5.560 -1.3071 -0.1005 -2.7024
 4645TIP3    H235427   1.995   5.013   5.583 -0.8231  0.4787  1.3852
 4646TIP3   OH235428   3.349   2.280  16.877 -0.3380  0.7524 -0.2375
 4646TIP3    H135429   3.253   2.280  16.872 -0.5530  2.0769  2.7985
 4646TIP3    H235430   3.371   2.190  16.902 -0.7892  0.5214 -0.6500
 4647TIP3   OH235431   0.314   6.052  16.972  0.3025  0.1130  0.0662
 4647TIP3    H135432   0.390   6.037  17.028  0.0447  0.4752  0.5215
 4647TIP3    H235433   0.316   6.145  16.952 -0.0279  0.1275  0.0924
 4648TIP3   OH235434   4.179   3.180   2.259 -0.3805 -0.4832  0.1145
 4648TIP3    H135435   4.254   3.233   2.286 -0.2831  0.3469 -1.6977
 4648TIP3    H235436   4.127   3.239   2.203 -1.4718 -1.5812 -0.0541
 4649TIP3   OH235437   3.611   1.988   1.859 -0.3030 -0.2914  0.1559
 4649TIP3    H135438   3.581   2.005   1.770  0.6528  0.5656 -0.0201
 4649TIP3    H235439   3.604   2.073   1.903  0.3006 -0.4538  0.5713
 4650TIP3   OH235440   0.402   5.692   3.410  0.4666  0.2745 -0.0037
 4650TIP3    H135441   0.442   5.614   3.372 -0.6257 -0.6858  0.7958
 4650TIP3    H235442   0.323   5.706   3.358  1.4942  1.8294 -1.2024
 4651TIP3   OH235443   5.699   3.478  15.736  0.2032  0.3691 -0.1604
 4651TIP3    H135444   5.788   3.497  15.706  0.8577 -0.6388  1.1151
 4651TIP3    H235445   5.693   3.382  15.737 -0.6030  0.4151  0.5876
 4652TIP3   OH235446   3.911   1.884   3.997 -0.0658 -0.3286 -0.3615
 4652TIP3    H135447   3.853   1.888   3.921 -0.1938 -0.4892 -0.2741
 4652TIP3    H235448   3.964   1.963   3.991  0.1293 -0.4835 -0.7835
 4653TIP3   OH235449   0.492   6.158   6.077  0.5366  0.3434 -0.8050
 4653TIP3    H135450   0.440   6.237   6.093  0.2616 -0.0557  0.3287
 4653TIP3    H235451   0.531   6.172   5.990 -1.0231  0.8922 -1.4383
 4654TIP3   OH235452   0.102   2.154   1.358 -0.1616 -0.5704 -0.2141
 4654TIP3    H135453   0.175   2.191   1.407 -1.0691 -0.7230  1.2832
 4654TIP3    H235454   0.129   2.064   1.341  0.8614 -0.0391 -1.4446
 4655TIP3   OH235455   6.776   5.465   4.680  0.4225 -0.4027  0.7412
 4655TIP3    H135456   6.800   5.404   4.610  0.1087 -1.5783  1.6483
 4655TIP3    H235457   6.707   5.420   4.729 -1.2504  1.4968  0.2312
 4656TIP3   OH235458   2.787   2.080  12.759 -0.2724 -0.0478 -0.4994
 4656TIP3    H135459   2.808   2.171  12.776 -0.3611 -0.0899 -0.1456
 4656TIP3    H235460   2.860   2.047  12.706 -0.5204  0.3754 -1.1011
 4657TIP3   OH235461   1.870   3.653  10.559 -0.1378  0.2398 -0.0674
 4657TIP3    H135462   1.776   3.669  10.547 -0.2715 -1.0659 -0.9335
 4657TIP3    H235463   1.878   3.558  10.551  1.6151  0.5654 -2.3989
 4658TIP3   OH235464   6.006   2.458   4.928  0.2745  0.2199 -0.4917
 4658TIP3    H135465   6.052   2.402   4.991  0.8919  0.5169 -0.6684
 4658TIP3    H235466   5.955   2.518   4.983  0.1302 -0.0842 -0.2917
 4659TIP3   OH235467   3.616   4.964   2.734  0.6037 -0.2530  0.4093
 4659TIP3    H135468   3.679   4.894   2.753  1.5628  0.4321 -0.2025
 4659TIP3    H235469   3.576   4.940   2.651 -1.7324 -1.9336  1.9533
 4660TIP3   OH235470   4.292   5.919  12.828  0.7630 -0.9251 -0.8595
 4660TIP3    H135471   4.337   5.936  12.745 -1.7115 -1.7822 -2.4247
 4660TIP3    H235472   4.237   5.996  12.841 -0.8505 -1.9560 -1.4175
 4661TIP3   OH235473   2.131   3.836  10.804 -0.3542 -0.4761  0.2901
 4661TIP3    H135474   2.199   3.894  10.838 -2.2215  0.1873  3.0767
 4661TIP3    H235475   2.145   3.753  10.849  0.3831 -1.2492 -1.3344
 4662TIP3   OH235476   3.597   2.220   2.565 -0.6364 -0.1584 -0.3728
 4662TIP3    H135477   3.688   2.238   2.588 -0.6291  0.5087 -0.9055
 4662TIP3    H235478   3.595   2.223   2.469 -0.8414 -2.0127 -0.4488
 4663TIP3   OH235479   5.547   5.652   4.565 -0.4616  0.3126 -0.4074
 4663TIP3    H135480   5.614   5.584   4.559  1.7092  2.4216 -0.5053
 4663TIP3    H235481   5.549   5.696   4.481 -0.3119  1.9427  0.4438
 4664TIP3   OH235482   6.461   3.736   1.045 -0.3755  0.1210 -0.0671
 4664TIP3    H135483   6.541   3.739   0.992  0.7204 -2.5890  1.3167
 4664TIP3    H235484   6.394   3.704   0.985 -0.9427  4.1284 -1.7327
 4665TIP3   OH235485   4.777   1.914  14.658  0.1827  0.0895  0.6212
 4665TIP3    H135486   4.827   1.983  14.701  0.8989 -1.1860  1.9310
 4665TIP3    H235487   4.828   1.834  14.676  0.7307 -0.4347 -3.0293
 4666TIP3   OH235488   1.329   4.738   0.070  0.5771 -0.0311  0.2312
 4666TIP3    H135489   1.386   4.663   0.056  2.6245  1.3573  0.9658
 4666TIP3    H235490   1.314   4.739   0.165 -0.5777 -0.3133  0.0582
 4667TIP3   OH235491   0.286   6.350  12.314 -0.1308  0.5811  0.5985
 4667TIP3    H135492   0.343   6.425  12.296 -2.4357  1.8366 -1.8252
 4667TIP3    H235493   0.307   6.288  12.245  1.2177 -0.7183  2.1486
 4668TIP3   OH235494   3.562   1.494  11.831 -0.0571 -0.1621 -0.3515
 4668TIP3    H135495   3.484   1.474  11.884  0.4244 -0.4032  0.2818
 4668TIP3    H235496   3.634   1.450  11.878  1.0391  2.9704  1.0353
 4669TIP3   OH235497   6.517   4.947  13.373 -0.0582  0.1006  0.0030
 4669TIP3    H135498   6.553   4.859  13.355  1.4515  1.0173 -1.6697
 4669TIP3    H235499   6.424   4.940  13.351 -0.7243 -1.9691  3.1305
 4670TIP3   OH235500   5.956   4.733  15.116 -0.1901 -0.4896 -0.2388
 4670TIP3    H135501   6.007   4.657  15.143  1.0894  0.6656  0.6100
 4670TIP3    H235502   6.008   4.774  15.047  0.2925  0.9582  0.9574
 4671TIP3   OH235503   2.283   5.761  14.268 -0.2645  0.3147 -0.1663
 4671TIP3    H135504   2.301   5.824  14.338  0.6102 -0.3514  0.2154
 4671TIP3    H235505   2.316   5.804  14.189  1.0181  0.0342  0.2072
 4672TIP3   OH235506   5.441   3.170   4.041 -0.1111  0.2130 -0.4156
 4672TIP3    H135507   5.503   3.234   4.006  1.0791 -0.8129 -0.2431
 4672TIP3    H235508   5.418   3.116   3.965  0.3735 -0.3381 -0.1719
 4673TIP3   OH235509   4.683   6.670  14.062  0.0680 -0.1424 -0.2673
 4673TIP3    H135510   4.676   6.612  13.986 -0.3949 -0.9514  0.3690
 4673TIP3    H235511   4.775   6.665  14.087 -0.1686 -1.4784  0.4261
 4674TIP3   OH235512   5.047   1.511   0.638  0.6483  0.1629 -0.6417
 4674TIP3    H135513   5.017   1.598   0.614  1.3653  0.4931 -0.3544
 4674TIP3    H235514   4.977   1.453   0.609 -0.4590  0.9531  0.4085
 4675TIP3   OH235515   2.006   0.278  13.682 -1.0217 -0.6344 -0.0047
 4675TIP3    H135516   2.033   0.363  13.647 -4.3752  0.7531  0.5325
 4675TIP3    H235517   2.049   0.273  13.767  1.8877 -1.0476 -1.4321
 4676TIP3   OH235518   1.926   3.688   1.876 -0.7177 -0.3124 -0.0004
 4676TIP3    H135519   1.970   3.608   1.905  0.8414  0.7140  0.5348
 4676TIP3    H235520   1.968   3.758   1.926 -0.7735  1.0520 -1.7890
 4677TIP3   OH235521   5.242   6.561   2.131 -0.1338  0.5092 -0.2765
 4677TIP3    H135522   5.186   6.546   2.208  0.0173 -1.5367 -0.5530
 4677TIP3    H235523   5.184   6.546   2.056  0.0421  1.2883 -0.5737
 4678TIP3   OH235524   2.217   6.759   0.174 -0.2297 -0.1343  0.2981
 4678TIP3    H135525   2.235   6.788   0.084 -3.5875  0.1764 -0.3379
 4678TIP3    H235526   2.237   6.836   0.228  2.4262 -0.5233 -0.0616
 4679TIP3   OH235527   4.037   1.665  12.705  0.0574  0.6703 -0.1077
 4679TIP3    H135528   4.020   1.574  12.682  1.5090  0.3886 -0.1019
 4679TIP3    H235529   3.992   1.716  12.637  0.4858 -0.0777 -0.9585
 4680TIP3   OH235530   5.292   0.333   3.491 -0.1532 -0.1158  0.6049
 4680TIP3    H135531   5.300   0.315   3.397  0.2483  0.5891  0.4986
 4680TIP3    H235532   5.346   0.267   3.533 -0.6557 -0.6873  0.3637
 4681TIP3   OH235533   4.226   5.793   2.792 -0.2836 -0.3303  0.1839
 4681TIP3    H135534   4.249   5.812   2.883  1.1630  0.1601 -0.2702
 4681TIP3    H235535   4.207   5.699   2.791 -0.3198 -0.3353  0.9838
 4682TIP3   OH235536   1.552   2.175   1.763 -0.5404  0.2681 -0.0818
 4682TIP3    H135537   1.638   2.216   1.766  0.0272 -0.9272  0.1517
 4682TIP3    H235538   1.495   2.242   1.725  0.3711  1.2597  0.2827
 4683TIP3   OH235539   4.966   3.803  15.780  0.5458 -0.1447  0.1772
 4683TIP3    H135540   4.913   3.861  15.726  0.4331 -1.9375 -1.6794
 4683TIP3    H235541   4.963   3.843  15.868 -0.7873  1.7771 -0.7054
 4684TIP3   OH235542   6.539   0.069   2.082 -0.5552 -0.2081  0.6026
 4684TIP3    H135543   6.597   0.034   2.149  2.0092  1.2365 -0.7544
 4684TIP3    H235544   6.495   0.142   2.124 -0.3374 -0.4484  1.2526
 4685TIP3   OH235545   0.980   1.156  14.492 -0.1530 -0.5384 -0.1732
 4685TIP3    H135546   0.916   1.211  14.536 -0.4036 -0.2974 -0.8282
 4685TIP3    H235547   0.929   1.082  14.459 -0.0787 -0.4038 -0.5931
 4686TIP3   OH235548   6.758   1.052  12.205  0.1406 -0.0265 -0.3334
 4686TIP3    H135549   6.685   1.022  12.259  0.5129 -1.9575 -0.8505
 4686TIP3    H235550   6.834   1.006  12.240  0.6558 -0.0607 -1.4723
 4687TIP3   OH235551   2.427   4.677   6.363 -0.2431 -0.4656 -0.2989
 4687TIP3    H135552   2.426   4.583   6.380  1.1395 -0.7681 -1.7888
 4687TIP3    H235553   2.516   4.704   6.386 -0.5465  0.4279 -0.1622
 4688TIP3   OH235554   5.161   1.751   5.699  0.0789 -0.4277 -0.2841
 4688TIP3    H135555   5.238   1.806   5.715 -0.0564 -0.2228 -0.3323
 4688TIP3    H235556   5.121   1.788   5.621 -0.5331 -0.0179  0.2216
 4689TIP3   OH235557   0.293   5.278  10.957  0.5805  0.0029 -0.4354
 4689TIP3    H135558   0.312   5.351  10.898  0.9323  0.5778  0.3820
 4689TIP3    H235559   0.204   5.252  10.935  0.1125  1.2866 -0.0999
 4690TIP3   OH235560   5.091   3.376  11.708  0.1800 -0.4334 -0.1441
 4690TIP3    H135561   5.124   3.428  11.781  2.7830 -1.0250 -0.8492
 4690TIP3    H235562   5.073   3.290  11.746 -1.6653  0.2046  0.4737
 4691TIP3   OH235563   1.267   2.166  11.105  0.7944  0.0844 -0.0106
 4691TIP3    H135564   1.360   2.186  11.111  0.9811 -0.4369 -1.1959
 4691TIP3    H235565   1.225   2.237  11.154  1.8009  0.3512  0.4894
 4692TIP3   OH235566   3.548   1.125  15.290  0.0761 -0.2439 -0.3323
 4692TIP3    H135567   3.543   1.047  15.234 -0.6979 -0.2478 -0.2638
 4692TIP3    H235568   3.524   1.092  15.377  1.9848 -0.3922  0.1676
 4693TIP3   OH235569   6.667   1.509  17.023  0.4800  0.0194 -0.0781
 4693TIP3    H135570   6.691   1.600  17.008 -0.5348  0.2562 -0.3180
 4693TIP3    H235571   6.585   1.514  17.073  1.5077 -0.7648  1.7077
 4694TIP3   OH235572   1.932   4.806  15.287  0.0060 -0.3348 -0.1269
 4694TIP3    H135573   1.847   4.774  15.316 -0.4334 -1.0850 -2.1723
 4694TIP3    H235574   1.933   4.789  15.193  1.6942  1.3152 -0.4274
 4695TIP3   OH235575   3.362   2.478  11.469 -0.0092  0.7169 -0.3337
 4695TIP3    H135576   3.274   2.449  11.493 -0.9412  3.0289 -0.7949
 4695TIP3    H235577   3.353   2.573  11.458  2.4973  0.9431 -0.6084
 4696TIP3   OH235578   5.574   0.435  16.263  0.4770 -0.4044  0.2933
 4696TIP3    H135579   5.668   0.431  16.249  0.4246 -0.6417 -0.0176
 4696TIP3    H235580   5.543   0.346  16.244 -0.1245  0.2635 -1.9852
 4697TIP3   OH235581   4.188   4.808  13.981 -0.6990 -0.3910 -0.0420
 4697TIP3    H135582   4.283   4.798  13.994 -0.5264  1.1789  0.0024
 4697TIP3    H235583   4.149   4.761  14.055  0.0542 -0.6543  0.1947
 4698TIP3   OH235584   0.363   6.660  12.180  0.0301 -0.2943  0.6287
 4698TIP3    H135585   0.272   6.640  12.157  0.0662 -0.6814  0.8287
 4698TIP3    H235586   0.409   6.655  12.096  0.1200 -1.4949  0.7443
 4699TIP3   OH235587   5.655   1.096   5.759  0.5141  0.0515 -0.2786
 4699TIP3    H135588   5.639   1.138   5.843  1.4035 -0.7381  0.2935
 4699TIP3    H235589   5.592   1.025   5.754  0.8402 -0.2589 -0.0179
 4700TIP3   OH235590   4.411   5.458  12.076  0.0079  0.1567 -0.1025
 4700TIP3    H135591   4.317   5.472  12.065  0.0196  1.2663  1.1186
 4700TIP3    H235592   4.451   5.541  12.050  0.7311 -0.6453 -1.5882
 4701TIP3   OH235593   2.024   3.710  16.853 -0.5803 -0.0071 -0.7294
 4701TIP3    H135594   2.101   3.701  16.797 -0.5833 -1.2469 -0.5541
 4701TIP3    H235595   2.056   3.754  16.932  0.2022 -1.5347 -0.1744
 4702TIP3   OH235596   2.801   0.573   1.831 -0.0342 -0.1718  0.4951
 4702TIP3    H135597   2.895   0.583   1.847  0.5090 -0.9459 -2.0295
 4702TIP3    H235598   2.781   0.483   1.856  0.1255 -0.3445  0.0038
 4703TIP3   OH235599   1.777   2.298  13.443  0.3992 -0.3708 -0.2090
 4703TIP3    H135600   1.739   2.245  13.514  0.8186 -2.3517 -1.4245
 4703TIP3    H235601   1.714   2.291  13.371  1.1841 -0.4793 -0.8940
 4704TIP3   OH235602   1.563   4.958   0.647 -0.0982  0.4042  0.4840
 4704TIP3    H135603   1.519   4.896   0.705 -1.0969  0.1533 -0.5222
 4704TIP3    H235604   1.508   4.961   0.569 -0.5689  3.2809  0.9032
 4705TIP3   OH235605   1.528   1.513  12.746  0.1931  0.3590  0.5346
 4705TIP3    H135606   1.576   1.535  12.827  2.6929 -3.4519  0.2441
 4705TIP3    H235607   1.491   1.426  12.764 -0.5212  0.1535 -1.8687
 4706TIP3   OH235608   0.072   0.214  16.574  0.1725 -0.3546  0.0144
 4706TIP3    H135609   0.042   0.264  16.651  0.7647 -0.3435  0.2445
 4706TIP3    H235610   0.080   0.124  16.606 -0.7234 -0.5644 -0.3528
 4707TIP3   OH235611   0.042   2.404  13.198  0.0635 -0.2582  0.8213
 4707TIP3    H135612   0.066   2.393  13.290  0.1237  0.4938  0.8944
 4707TIP3    H235613   0.036   2.498  13.186 -0.4073 -0.3703  0.1716
 4708TIP3   OH235614   2.663   4.099  13.447 -0.7254  0.0625  0.0772
 4708TIP3    H135615   2.685   4.188  13.472  0.1292 -0.3500  0.8458
 4708TIP3    H235616   2.609   4.108  13.369 -1.2605  1.2783  0.5844
 4709TIP3   OH235617   3.204   2.880  10.742  0.2890 -0.4103  0.1796
 4709TIP3    H135618   3.267   2.944  10.777  0.5390 -1.3543  1.4984
 4709TIP3    H235619   3.131   2.933  10.710  0.4738  0.5423  1.2945
 4710TIP3   OH235620   3.235   6.747   0.687  0.2908 -0.3216  0.8491
 4710TIP3    H135621   3.223   6.655   0.663  0.8583 -0.6125  1.6809
 4710TIP3    H235622   3.149   6.774   0.720 -0.2868 -0.1332 -0.7333
 4711TIP3   OH235623   1.050   1.150   3.294 -0.4623  0.1102  0.2958
 4711TIP3    H135624   1.066   1.168   3.201  0.8632  1.4478  0.7460
 4711TIP3    H235625   1.004   1.228   3.325 -1.5097 -0.6348  0.6175
 4712TIP3   OH235626   3.078   2.277   0.921  0.3058 -0.5741  0.1208
 4712TIP3    H135627   3.009   2.320   0.871  0.8949 -0.9468 -1.0161
 4712TIP3    H235628   3.109   2.207   0.864  1.0250 -0.9656  0.9838
 4713TIP3   OH235629   1.482   3.726   3.031  0.2529 -0.1107  0.2231
 4713TIP3    H135630   1.568   3.695   3.003  0.4180  1.3361 -0.9322
 4713TIP3    H235631   1.470   3.689   3.118  2.8936  1.2804  1.2276
 4714TIP3   OH235632   0.291   6.519   1.306 -0.4294  0.1596  0.5354
 4714TIP3    H135633   0.344   6.559   1.374  1.0423 -1.4079  0.3374
 4714TIP3    H235634   0.318   6.427   1.305 -2.1818 -0.3684 -0.4916
 4715TIP3   OH235635   6.534   3.710   6.281  0.2603  0.1538 -0.1777
 4715TIP3    H135636   6.461   3.661   6.244  0.4030 -0.4493  0.3290
 4715TIP3    H235637   6.599   3.643   6.303 -0.8987  0.1977  3.6933
 4716TIP3   OH235638   0.352   4.290   3.849  0.1540  0.1521  0.0679
 4716TIP3    H135639   0.271   4.307   3.896  0.5580  0.4678  0.6503
 4716TIP3    H235640   0.371   4.197   3.866  1.7855  0.9426  2.8684
 4717TIP3   OH235641   1.327   0.612   2.588 -0.5203 -0.5074 -0.1574
 4717TIP3    H135642   1.323   0.537   2.648 -0.4927  0.1056  0.6263
 4717TIP3    H235643   1.255   0.668   2.615 -0.1992  0.0155 -0.3798
 4718TIP3   OH235644   1.090   0.737  16.822  0.0247  0.2085 -0.3752
 4718TIP3    H135645   1.029   0.704  16.888 -0.6596 -1.7151 -1.9350
 4718TIP3    H235646   1.033   0.783  16.759  0.5840  1.2963 -0.1106
 4719TIP3   OH235647   2.914   0.509  11.788  0.1993  0.2111  0.3135
 4719TIP3    H135648   2.988   0.448  11.789  2.0586  2.3851  0.0269
 4719TIP3    H235649   2.843   0.460  11.747  1.5436 -1.8488  0.3688
 4720TIP3   OH235650   1.766   3.574  16.369 -0.6446 -0.3077  0.3156
 4720TIP3    H135651   1.741   3.635  16.299 -0.3016  1.4045  1.6626
 4720TIP3    H235652   1.830   3.516  16.328 -0.9117  0.2738 -0.9695
 4721TIP3   OH235653   1.538   2.354  11.712  0.5738  0.4783 -0.0197
 4721TIP3    H135654   1.462   2.343  11.655 -0.9414  2.7267  1.4864
 4721TIP3    H235655   1.531   2.281  11.774 -0.0076  0.3084 -0.2741
 4722TIP3   OH235656   6.519   2.198   5.028  0.5032 -0.2571 -0.4998
 4722TIP3    H135657   6.538   2.165   5.116 -1.4925 -0.0161  0.0486
 4722TIP3    H235658   6.458   2.271   5.043  0.9904  0.4678 -2.0174
 4723TIP3   OH235659   3.407   4.141  11.835 -0.5037 -0.4022  0.1630
 4723TIP3    H135660   3.384   4.118  11.744 -0.2135  0.9973 -0.2651
 4723TIP3    H235661   3.462   4.218  11.827 -1.8988  0.7676  1.6315
 4724TIP3   OH235662   4.044   1.906   1.762 -0.4308 -0.5657 -0.4997
 4724TIP3    H135663   4.025   1.994   1.795  0.1338 -0.2484 -1.0211
 4724TIP3    H235664   3.997   1.902   1.678 -0.5244 -0.7924 -0.4361
 4725TIP3   OH235665   2.541   5.915  16.387  0.4436 -0.0649  0.1815
 4725TIP3    H135666   2.475   5.878  16.328  0.0570 -1.2271  1.3282
 4725TIP3    H235667   2.492   5.938  16.465  1.3168 -0.5004  0.8641
 4726TIP3   OH235668   5.269   1.597   4.526 -0.1311  0.0836  0.2398
 4726TIP3    H135669   5.234   1.551   4.450  0.5885 -0.4805  0.2479
 4726TIP3    H235670   5.253   1.538   4.599  2.5287 -1.0062 -0.0388
 4727TIP3   OH235671   4.710   5.333  14.729 -0.4068 -0.2177 -0.2569
 4727TIP3    H135672   4.647   5.404  14.726 -0.6926 -0.4136  0.8144
 4727TIP3    H235673   4.796   5.376  14.723 -0.6513 -0.0286 -2.7033
 4728TIP3   OH235674   6.363   2.542   2.698  0.1577  0.0907  0.1984
 4728TIP3    H135675   6.276   2.580   2.705 -0.1300 -0.5608  0.1820
 4728TIP3    H235676   6.391   2.528   2.789  1.0040  1.9905  0.2580
 4729TIP3   OH235677   1.419   1.224   2.161 -0.0996  0.4800  0.0030
 4729TIP3    H135678   1.328   1.230   2.191 -1.1584  0.9243 -3.1601
 4729TIP3    H235679   1.451   1.314   2.163 -0.2976  0.5613 -0.6279
 4730TIP3   OH235680   5.417   3.431   0.555 -0.2558  0.1558 -0.3922
 4730TIP3    H135681   5.484   3.367   0.532 -0.2186  0.9567 -2.6325
 4730TIP3    H235682   5.421   3.437   0.651 -1.2849 -4.2241  0.0110
 4731TIP3   OH235683   4.673   0.981  15.786 -0.6150  0.0593 -0.3461
 4731TIP3    H135684   4.739   0.927  15.742 -2.7309 -1.4254 -1.8123
 4731TIP3    H235685   4.637   1.036  15.716 -0.4969  1.3301  0.5740
 4732TIP3   OH235686   3.905   4.858  15.455 -0.4694 -0.0505  0.0623
 4732TIP3    H135687   3.851   4.840  15.378  0.3994  0.5863 -0.7158
 4732TIP3    H235688   3.946   4.774  15.476 -0.7948 -0.2516 -0.1066
 4733TIP3   OH235689   6.740   4.652   6.034 -0.4201  0.4302 -0.1966
 4733TIP3    H135690   6.710   4.647   5.943  2.1335 -1.4290 -0.9803
 4733TIP3    H235691   6.798   4.728   6.036  0.5726 -0.3141 -0.4548
 4734TIP3   OH235692   2.058   5.366   1.873  0.4433 -0.5251 -0.1655
 4734TIP3    H135693   2.064   5.321   1.789  0.5240  1.7651 -1.4055
 4734TIP3    H235694   2.112   5.444   1.863 -1.4142  0.9869  1.2084
 4735TIP3   OH235695   5.337   4.486   4.265 -0.1424  0.1932  0.4717
 4735TIP3    H135696   5.389   4.446   4.195  0.0752  0.5427  0.4291
 4735TIP3    H235697   5.382   4.462   4.346 -0.3497 -0.1455  0.4904
 4736TIP3   OH235698   3.101   0.397  13.314 -0.5797 -0.1408 -0.0944
 4736TIP3    H135699   3.157   0.322  13.298 -1.0660 -0.5569  0.1480
 4736TIP3    H235700   3.035   0.366  13.376 -1.2107  0.2702 -0.5450
 4737TIP3   OH235701   3.051   5.617   0.564  0.0330  0.1175  0.0863
 4737TIP3    H135702   3.007   5.532   0.574 -0.6091  0.6078  1.4883
 4737TIP3    H235703   3.125   5.613   0.624  0.1592  0.4498 -0.0473
 4738TIP3   OH235704   1.943   3.167   4.267  0.1739  0.0277  0.2044
 4738TIP3    H135705   2.026   3.165   4.315 -0.2813 -0.5716  0.9735
 4738TIP3    H235706   1.922   3.075   4.250 -1.0993  0.0801  1.3634
 4739TIP3   OH235707   0.218   1.488   0.521 -0.5696  0.2003  0.1951
 4739TIP3    H135708   0.256   1.543   0.452  1.2506 -0.0317  0.9857
 4739TIP3    H235709   0.162   1.548   0.571 -0.4868  0.7794 -0.3873
 4740TIP3   OH235710   3.036   4.135   1.839  0.4191 -0.2227 -0.1599
 4740TIP3    H135711   3.085   4.054   1.827 -0.3523 -0.7739  0.4517
 4740TIP3    H235712   3.019   4.166   1.749 -1.0345 -1.7752 -0.4369
 4741TIP3   OH235713   2.945   4.619  13.211  0.1218  0.2229  0.1547
 4741TIP3    H135714   2.892   4.699  13.215 -0.3696 -0.1116  0.3130
 4741TIP3    H235715   3.009   4.637  13.142  1.2362  1.5023  1.4716
 4742TIP3   OH235716   2.886   3.539  12.249 -0.4789 -0.0513  0.0524
 4742TIP3    H135717   2.865   3.574  12.163 -0.6708 -0.6105 -0.1333
 4742TIP3    H235718   2.963   3.589  12.278  1.3498 -1.7651 -1.6718
 4743TIP3   OH235719   0.192   5.566  15.798 -0.0968  0.4277 -0.4066
 4743TIP3    H135720   0.132   5.638  15.819  1.2750  1.8752 -1.2840
 4743TIP3    H235721   0.279   5.603  15.811  0.6355 -1.0065 -1.1121
 4744TIP3   OH235722   4.332   0.545  11.157 -0.6420  0.4317  0.4637
 4744TIP3    H135723   4.341   0.616  11.094 -1.6065  0.1541  0.0002
 4744TIP3    H235724   4.267   0.486  11.119  1.2716 -1.5272  0.0876
 4745TIP3   OH235725   3.381   0.369   5.396 -0.3291 -0.5897 -0.1478
 4745TIP3    H135726   3.377   0.384   5.302  0.7983  1.0266  0.0395
 4745TIP3    H235727   3.290   0.369   5.425 -0.5720  2.3668 -0.7517
 4746TIP3   OH235728   4.681   1.853   0.476  0.0918  0.6440 -0.2448
 4746TIP3    H135729   4.621   1.800   0.528  0.4135 -0.2097 -0.7240
 4746TIP3    H235730   4.669   1.821   0.386  0.2449  1.4232 -0.5430
 4747TIP3   OH235731   5.219   2.733  14.408  0.3230 -0.6064 -0.0357
 4747TIP3    H135732   5.149   2.753  14.470  2.0828 -1.1641  2.2086
 4747TIP3    H235733   5.177   2.680  14.340 -1.8829  0.9923  0.0281
 4748TIP3   OH235734   4.903   6.610  13.646 -0.2561 -0.5148 -0.1996
 4748TIP3    H135735   4.912   6.701  13.674  1.7036 -0.1581 -1.8585
 4748TIP3    H235736   4.851   6.615  13.566 -0.7353 -0.9253  0.0850
 4749TIP3   OH235737   2.475   6.430  14.129 -0.3601  0.5611 -0.4077
 4749TIP3    H135738   2.533   6.368  14.172 -1.8071 -1.7251 -1.6532
 4749TIP3    H235739   2.429   6.473  14.201  1.8234  1.4003  0.5281
 4750TIP3   OH235740   5.575   1.180  12.584  0.4297  0.6136 -0.4677
 4750TIP3    H135741   5.648   1.147  12.635 -0.7660  0.7210  1.3759
 4750TIP3    H235742   5.533   1.102  12.547 -0.2169  0.3365  0.8427
 4751TIP3   OH235743   1.337   3.162   4.685  0.6533 -0.0476 -0.1758
 4751TIP3    H135744   1.322   3.076   4.646 -0.7846  0.2796 -0.3544
 4751TIP3    H235745   1.425   3.156   4.722  0.4513 -1.6938  0.0770
 4752TIP3   OH235746   6.508   6.043  13.719 -0.4335  0.0823 -0.5275
 4752TIP3    H135747   6.573   5.973  13.721  0.8702  1.2597 -0.4723
 4752TIP3    H235748   6.428   6.002  13.685  0.3786 -1.3574 -0.7170
 4753TIP3   OH235749   3.123   1.319   2.113 -0.6505 -0.1366  0.7982
 4753TIP3    H135750   3.191   1.338   2.049 -2.2372 -0.8943 -1.1839
 4753TIP3    H235751   3.159   1.347   2.197  1.3600  1.1579 -0.4759
 4754TIP3   OH235752   4.266   5.118  14.146 -0.3307 -0.0468 -0.1223
 4754TIP3    H135753   4.295   5.047  14.203  0.8874  1.5486  1.3231
 4754TIP3    H235754   4.173   5.129  14.167 -0.1382 -0.1591  0.8321
 4755TIP3   OH235755   5.487   2.291  13.828  0.6887  0.4699  0.0517
 4755TIP3    H135756   5.578   2.311  13.847  0.2189  2.1280  0.6187
 4755TIP3    H235757   5.441   2.303  13.912 -0.1108 -0.0109 -0.3038
 4756TIP3   OH235758   5.385   3.195   3.417 -0.0434  0.8494  0.2429
 4756TIP3    H135759   5.472   3.206   3.455  0.1602 -0.6824  0.2358
 4756TIP3    H235760   5.382   3.104   3.389 -1.4459  1.0445 -0.2873
 4757TIP3   OH235761   6.610   4.748  13.173 -0.0973 -0.0578 -0.3238
 4757TIP3    H135762   6.632   4.669  13.123 -0.4348 -1.9408  2.4119
 4757TIP3    H235763   6.514   4.749  13.174 -0.1228  1.3354 -1.7317
 4758TIP3   OH235764   2.162   5.838  13.419  0.2714  0.0309 -0.6083
 4758TIP3    H135765   2.094   5.822  13.353  1.7381 -1.8504 -1.7289
 4758TIP3    H235766   2.148   5.771  13.486 -1.9661  2.6922  1.6829
 4759TIP3   OH235767   2.856   3.752  15.435 -0.1671  0.4770 -0.4992
 4759TIP3    H135768   2.844   3.722  15.345  0.7679  1.2455 -0.8963
 4759TIP3    H235769   2.876   3.845  15.427  0.7921  0.3689  0.4339
 4760TIP3   OH235770   2.954   5.685  12.435 -0.3251  0.2616  0.0533
 4760TIP3    H135771   2.923   5.758  12.487  1.8604  0.6234  0.9111
 4760TIP3    H235772   2.935   5.710  12.345 -4.0574 -0.3303  0.5978
 4761TIP3   OH235773   3.457   6.784  16.672  0.1163 -0.0888 -0.4434
 4761TIP3    H135774   3.506   6.707  16.643 -0.1633 -1.1758  1.7900
 4761TIP3    H235775   3.522   6.854  16.679  0.7616 -0.6746 -0.5516
 4762TIP3   OH235776   0.736   5.917  15.200 -0.4598 -0.3585 -0.5148
 4762TIP3    H135777   0.658   5.968  15.224  0.1994  0.5898 -0.3825
 4762TIP3    H235778   0.709   5.826  15.212 -1.5925 -0.0431 -0.5837
 4763TIP3   OH235779   6.020   3.486  11.217  0.0545 -0.0070  0.0670
 4763TIP3    H135780   5.945   3.497  11.276 -0.4014 -0.2458 -0.4672
 4763TIP3    H235781   6.016   3.395  11.190  0.6925 -0.0881  0.2408
 4764TIP3   OH235782   5.786   3.203   5.394 -0.0398 -0.2488 -0.2461
 4764TIP3    H135783   5.716   3.196   5.458 -0.3026 -0.6790 -0.5765
 4764TIP3    H235784   5.742   3.203   5.309  0.2020  1.9548 -0.3840
 4765TIP3   OH235785   5.333   6.446   3.863  0.0019 -0.2046 -0.1376
 4765TIP3    H135786   5.403   6.506   3.889  0.3086 -0.8409  0.5459
 4765TIP3    H235787   5.253   6.488   3.896  0.1144  0.2759 -0.4729
 4766TIP3   OH235788   0.559   4.603  15.640 -0.1951 -0.3015 -0.4210
 4766TIP3    H135789   0.555   4.543  15.715 -0.5757 -0.4872 -0.5876
 4766TIP3    H235790   0.645   4.588  15.601 -0.1126 -0.4139 -0.1953
 4767TIP3   OH235791   0.132   4.908   5.768 -0.2231  0.0807  0.1965
 4767TIP3    H135792   0.196   4.973   5.741  2.2264 -2.7796 -1.2360
 4767TIP3    H235793   0.106   4.864   5.687 -1.4088 -1.0605  1.1595
 4768TIP3   OH235794   3.051   1.526   1.175 -0.0598  0.4784  0.6089
 4768TIP3    H135795   3.090   1.613   1.182  2.0369 -0.4634  1.0732
 4768TIP3    H235796   3.054   1.507   1.081  0.1335  0.6230  0.5848
 4769TIP3   OH235797   3.748   5.045   0.466  0.6928 -0.0451  0.1634
 4769TIP3    H135798   3.692   5.013   0.395  1.0633 -0.1225 -0.0918
 4769TIP3    H235799   3.820   4.982   0.471  0.3325 -0.3971  1.0335
 4770TIP3   OH235800   5.628   5.485  14.385  0.3968  0.6757 -0.4024
 4770TIP3    H135801   5.594   5.419  14.446  0.2876  1.7152  0.6869
 4770TIP3    H235802   5.697   5.440  14.337 -0.5999 -0.6278 -0.6423
 4771TIP3   OH235803   3.689   0.727  12.650  0.1435 -0.1119  0.2669
 4771TIP3    H135804   3.596   0.732  12.629  0.3206  1.7320 -0.1096
 4771TIP3    H235805   3.691   0.703  12.743 -0.6923 -0.7609  0.1245
 4772TIP3   OH235806   0.972   1.531   0.772  0.1428 -0.5258 -0.2642
 4772TIP3    H135807   0.893   1.574   0.805  0.2178 -1.4104  1.0928
 4772TIP3    H235808   0.974   1.447   0.818  0.9715 -1.2203 -1.5442
 4773TIP3   OH235809   0.372   4.819  15.226  0.2854  0.3769 -0.4557
 4773TIP3    H135810   0.278   4.806  15.239  0.4128 -0.7366 -0.5583
 4773TIP3    H235811   0.407   4.730  15.215  1.4443  0.7366  0.2285
 4774TIP3   OH235812   4.455   6.020   2.836  0.2401 -0.3039  0.1535
 4774TIP3    H135813   4.469   6.075   2.913  1.3467 -1.0562  0.4980
 4774TIP3    H235814   4.417   6.079   2.771 -1.1363  0.2417  1.4061
 4775TIP3   OH235815   2.446   0.198   1.826  0.3292 -0.3723 -0.2539
 4775TIP3    H135816   2.425   0.106   1.816 -0.9046 -0.2846  1.3254
 4775TIP3    H235817   2.364   0.239   1.853  0.3236  1.5617 -2.9139
 4776TIP3   OH235818   6.091   6.654   3.589  0.4799  0.1247  0.7343
 4776TIP3    H135819   6.028   6.621   3.525  2.1763 -0.3093 -0.7836
 4776TIP3    H235820   6.154   6.583   3.599  1.2696  0.9102  1.4659
 4777TIP3   OH235821   6.805   5.431  15.929  0.5089 -0.2420  0.1302
 4777TIP3    H135822   6.816   5.481  16.010  0.4912  0.0424 -0.0418
 4777TIP3    H235823   6.880   5.456  15.875 -1.5951  2.7241 -1.5936
 4778TIP3   OH235824   6.388   4.863   2.712  0.0537 -0.0982 -0.1467
 4778TIP3    H135825   6.423   4.870   2.801 -0.1963 -1.2968  0.0567
 4778TIP3    H235826   6.405   4.948   2.673  0.6514  0.2646  0.8774
 4779TIP3   OH235827   3.611   0.959   1.186  0.0273  0.0426  0.7925
 4779TIP3    H135828   3.580   0.891   1.127  0.4979 -0.2482  0.8763
 4779TIP3    H235829   3.537   1.018   1.195  0.5121  1.0373 -1.4542
 4780TIP3   OH235830   2.654   0.430  15.496 -0.1100  0.2431  0.2433
 4780TIP3    H135831   2.617   0.387  15.419 -0.1558 -1.5410  1.2467
 4780TIP3    H235832   2.582   0.432  15.559  0.7419 -0.9008  1.2705
 4781TIP3   OH235833   4.030   6.118   1.832  0.2559 -0.0767 -0.1362
 4781TIP3    H135834   4.108   6.150   1.787  0.4471  0.4824  0.5750
 4781TIP3    H235835   3.997   6.047   1.777  0.1839  0.9413 -1.4212
 4782TIP3   OH235836   1.844   4.921  12.701  0.1182  0.3059  0.1515
 4782TIP3    H135837   1.776   4.980  12.734 -0.1723 -0.0293  0.1513
 4782TIP3    H235838   1.804   4.877  12.626  0.1124 -0.3700  0.5449
 4783TIP3   OH235839   6.239   0.048   4.429  1.1829  0.4676 -0.0262
 4783TIP3    H135840   6.275  -0.023   4.483  1.0932  0.1634 -0.3611
 4783TIP3    H235841   6.254   0.127   4.480 -0.1400  0.0372  1.0650
 4784TIP3   OH235842   2.557   6.088  16.934 -0.2089  0.7250  1.0764
 4784TIP3    H135843   2.609   6.007  16.939 -0.5116  0.6126  2.7563
 4784TIP3    H235844   2.613   6.154  16.975  0.2900  1.5354 -0.8312
 4785TIP3   OH235845   1.140   1.322  13.673  0.1409 -0.0912 -0.3990
 4785TIP3    H135846   1.087   1.267  13.616  0.4281  0.8314 -1.5906
 4785TIP3    H235847   1.103   1.310  13.760 -1.7171  0.1462 -1.1263
 4786TIP3   OH235848   5.639   3.022  10.691 -0.5402 -0.0060 -0.0205
 4786TIP3    H135849   5.631   3.076  10.770  1.1326  0.2260  0.0027
 4786TIP3    H235850   5.635   3.085  10.619 -1.1779 -0.1269 -0.0943
 4787TIP3   OH235851   1.143   5.514  12.929 -0.3020  0.6558 -0.1380
 4787TIP3    H135852   1.049   5.513  12.915  0.1022 -0.5887 -3.2426
 4787TIP3    H235853   1.171   5.424  12.909  1.9176  1.7888 -2.4046
 4788TIP3   OH235854   2.562   4.294   3.855 -0.1863  0.1552 -0.4825
 4788TIP3    H135855   2.559   4.245   3.773  0.9565  0.0634 -0.4731
 4788TIP3    H235856   2.470   4.307   3.878 -0.5278 -2.3759 -0.2492
 4789TIP3   OH235857   3.056   4.734  17.195 -0.2998  0.0342  0.1217
 4789TIP3    H135858   3.126   4.798  17.180  0.1726 -0.4723  0.1533
 4789TIP3    H235859   3.064   4.672  17.123 -0.3353 -0.3652  0.4624
 4790TIP3   OH235860   1.640   0.188   1.401  0.0741 -0.1237  0.5489
 4790TIP3    H135861   1.576   0.228   1.342  1.7685  2.3680  0.3233
 4790TIP3    H235862   1.606   0.207   1.488 -1.2438 -1.8121  0.4292
 4791TIP3   OH235863   2.327   4.347  12.479 -0.0156 -0.2896 -0.2332
 4791TIP3    H135864   2.368   4.384  12.557 -1.1835  2.4549 -0.8380
 4791TIP3    H235865   2.385   4.373  12.407 -1.8360  2.1995 -0.8959
 4792TIP3   OH235866   2.355   1.139   1.550  0.0402  0.4596 -0.4855
 4792TIP3    H135867   2.288   1.192   1.505 -0.4810  0.2783  0.0698
 4792TIP3    H235868   2.372   1.187   1.631  0.7822  0.6412 -0.7420
 4793TIP3   OH235869   0.633   3.155   3.699  0.4656  0.6544  0.6606
 4793TIP3    H135870   0.676   3.234   3.732 -0.5292  0.8262  1.5410
 4793TIP3    H235871   0.690   3.083   3.726 -0.0876  0.8347  2.3316
 4794TIP3   OH235872   2.282   6.785  13.802 -0.0502  0.0991 -0.1185
 4794TIP3    H135873   2.358   6.841  13.813  0.2324 -0.3608  0.3025
 4794TIP3    H235874   2.211   6.831  13.847  0.1058  0.2776 -0.0571
 4795TIP3   OH235875   1.833   6.539  12.676 -0.0774  0.8007  0.0588
 4795TIP3    H135876   1.758   6.545  12.617  0.4250  1.8163 -0.4863
 4795TIP3    H235877   1.903   6.500  12.622 -0.0306  0.4356  0.3836
 4796TIP3   OH235878   4.718   1.621  14.302  0.5723  0.6221  0.2279
 4796TIP3    H135879   4.805   1.584  14.318  0.6347  0.0599 -1.3177
 4796TIP3    H235880   4.677   1.623  14.388  1.1389 -1.6087  0.5943
 4797TIP3   OH235881   4.447   1.313   4.897 -0.3862  0.4166  0.4879
 4797TIP3    H135882   4.464   1.388   4.954  0.2237  0.5442  0.1334
 4797TIP3    H235883   4.530   1.296   4.853 -0.4359 -0.6619  0.7983
 4798TIP3   OH235884   0.959   3.608   0.843 -0.2593 -0.2675  0.3400
 4798TIP3    H135885   0.980   3.628   0.934 -1.4430  0.7192  0.4062
 4798TIP3    H235886   0.910   3.525   0.848  0.6642 -0.8063  0.4931
 4799TIP3   OH235887   1.509   0.139  16.030 -0.1632  0.0007 -0.5046
 4799TIP3    H135888   1.428   0.088  16.024  1.9830 -3.9137  1.5651
 4799TIP3    H235889   1.570   0.093  15.972  0.8463  2.4459 -1.4478
 4800TIP3   OH235890   1.180   4.895  12.259 -0.3019  0.3210  0.0506
 4800TIP3    H135891   1.240   4.899  12.185 -0.2016  0.0537  0.1175
 4800TIP3    H235892   1.223   4.837  12.322 -1.8212 -2.0686 -1.0143
 4801TIP3   OH235893   3.377   6.476  16.604  0.4415  0.7680 -0.2169
 4801TIP3    H135894   3.386   6.522  16.687 -1.5413 -1.5733  1.3559
 4801TIP3    H235895   3.315   6.528  16.554  1.4818  2.0737 -0.1775
 4802TIP3   OH235896   4.785   1.665   2.392 -0.2757 -0.4693 -0.0068
 4802TIP3    H135897   4.846   1.629   2.328 -0.5804 -2.3891  0.7597
 4802TIP3    H235898   4.824   1.749   2.417  0.5840 -0.3663 -1.6242
 4803TIP3   OH235899   1.144   0.649   5.645 -0.5346  0.4071  0.6230
 4803TIP3    H135900   1.060   0.634   5.687 -0.4317 -0.1319  0.6470
 4803TIP3    H235901   1.123   0.672   5.555 -0.7044  0.1648  0.6007
 4804TIP3   OH235902   1.793   2.387   5.442  0.2147  0.6480 -0.1372
 4804TIP3    H135903   1.882   2.356   5.424 -0.0013  0.3653 -0.7437
 4804TIP3    H235904   1.803   2.479   5.464  0.7936  0.3287  0.9770
 4805TIP3   OH235905   0.585   4.912  16.088  0.1943  0.0228  0.4122
 4805TIP3    H135906   0.621   4.855  16.020  0.1988  2.0297 -1.3186
 4805TIP3    H235907   0.549   4.987  16.040  0.6907  1.7652  2.6625
 4806TIP3   OH235908   3.541   4.452  16.510  0.4375 -0.8687  0.1265
 4806TIP3    H135909   3.562   4.526  16.453 -0.6656 -1.2970 -0.8692
 4806TIP3    H235910   3.531   4.378  16.450  2.0463 -1.9485  1.1667
 4807TIP3   OH235911   2.656   4.814   3.020 -0.2021 -0.1111  0.5711
 4807TIP3    H135912   2.619   4.728   3.043  0.0831 -0.0770  1.1813
 4807TIP3    H235913   2.719   4.831   3.090  0.5187  0.1079 -0.1350
 4808TIP3   OH235914   0.597   5.856   2.526 -0.4512 -0.0979  0.0868
 4808TIP3    H135915   0.580   5.949   2.537 -0.8878 -0.1872  0.1897
 4808TIP3    H235916   0.590   5.840   2.432 -2.3454 -0.3940  0.2585
 4809TIP3   OH235917   1.035   3.508  10.773 -0.4107  0.2013  0.0731
 4809TIP3    H135918   1.043   3.419  10.738 -3.4164 -0.1325  0.1464
 4809TIP3    H235919   1.077   3.504  10.859 -0.7606 -1.2009  0.1782
 4810TIP3   OH235920   5.934   5.102   2.434 -0.3226  0.3945 -0.3160
 4810TIP3    H135921   5.848   5.110   2.393 -0.2641  0.6502 -0.3905
 4810TIP3    H235922   5.996   5.123   2.363 -0.2023  0.2712 -0.2469
 4811TIP3   OH235923   2.713   3.946  11.106  0.4839  0.3164 -0.3993
 4811TIP3    H135924   2.640   3.909  11.155  1.5192 -0.5343  0.5323
 4811TIP3    H235925   2.709   3.904  11.020 -0.2094  0.4090 -0.4193
 4812TIP3   OH235926   5.468   4.189   0.401 -0.3091  0.4807 -0.3768
 4812TIP3    H135927   5.385   4.194   0.447 -0.7370  1.4084 -1.2167
 4812TIP3    H235928   5.492   4.280   0.385  1.7675  0.2720  1.4356
 4813TIP3   OH235929   2.067   3.625   4.449 -0.7280  0.6037 -0.1886
 4813TIP3    H135930   2.143   3.653   4.500 -1.4660  0.6290  0.9268
 4813TIP3    H235931   2.058   3.691   4.380  1.4578 -0.5095 -1.5773
 4814TIP3   OH235932   5.513   1.600  16.674  0.4026  0.5435 -0.6356
 4814TIP3    H135933   5.447   1.589  16.743 -0.8113  3.3566 -1.2406
 4814TIP3    H235934   5.520   1.514  16.634 -0.5761 -0.5842  1.5051
 4815TIP3   OH235935   6.599   4.823  16.409  0.0350  0.1236 -0.1877
 4815TIP3    H135936   6.512   4.832  16.372  0.1969  0.9053 -0.3978
 4815TIP3    H235937   6.585   4.810  16.503 -0.3179 -0.2316 -0.2891
 4816TIP3   OH235938   3.381   1.478  15.454 -0.6373  0.2813 -0.5352
 4816TIP3    H135939   3.393   1.397  15.504  0.3260  0.3388 -0.6681
 4816TIP3    H235940   3.353   1.449  15.368 -2.2763  0.1807  0.0095
 4817TIP3   OH235941   4.717   6.285  15.065  0.0475 -0.3880  0.1269
 4817TIP3    H135942   4.716   6.335  15.147  0.9267 -0.7012  0.3353
 4817TIP3    H235943   4.732   6.351  14.997 -1.5131 -0.0146  0.1235
 4818TIP3   OH235944   2.762   4.221  12.968  0.5538 -0.2954  0.3929
 4818TIP3    H135945   2.774   4.270  13.050 -0.4170 -0.5747  0.7081
 4818TIP3    H235946   2.755   4.130  12.995 -0.4784 -0.3188  0.0686
 4819TIP3   OH235947   2.464   1.988  13.936  0.6704  0.5394 -0.0264
 4819TIP3    H135948   2.498   2.073  13.966  1.4083 -0.1444  1.0941
 4819TIP3    H235949   2.509   1.924  13.990 -2.0411 -0.4312  1.1668
 4820TIP3   OH235950   0.754   1.626  16.997 -0.3936  0.0499 -0.0622
 4820TIP3    H135951   0.848   1.636  16.983 -0.1884 -1.0769  0.4145
 4820TIP3    H235952   0.734   1.538  16.964 -1.6994  1.0969 -2.1618
 4821TIP3   OH235953   1.841   3.094   4.525 -0.3940 -0.2168  0.4035
 4821TIP3    H135954   1.859   3.188   4.519  0.2719 -0.4112 -0.9326
 4821TIP3    H235955   1.851   3.062   4.435 -1.8579 -1.3434  0.6128
 4822TIP3   OH235956   1.586   3.036   5.397 -0.5670 -0.4484 -0.2967
 4822TIP3    H135957   1.512   3.015   5.453 -0.2906  0.7664  0.5405
 4822TIP3    H235958   1.550   3.035   5.308 -1.4619 -0.3898  0.0623
 4823TIP3   OH235959   1.749   6.426   5.288  0.2191  0.6876 -0.1214
 4823TIP3    H135960   1.831   6.470   5.266  0.8231 -0.5702 -0.4253
 4823TIP3    H235961   1.775   6.350   5.340 -0.7335  0.1401 -0.4293
 4824TIP3   OH235962   0.657   4.338   5.597  0.2078 -0.1419 -0.9212
 4824TIP3    H135963   0.637   4.345   5.504  0.4075 -0.2819 -0.9727
 4824TIP3    H235964   0.678   4.427   5.624 -0.1101 -0.0571 -0.9523
 4825TIP3   OH235965   1.397   3.417   2.831  0.0056 -0.4851 -0.6996
 4825TIP3    H135966   1.332   3.375   2.888 -0.9114  0.2367 -1.2003
 4825TIP3    H235967   1.478   3.414   2.882 -0.2545 -1.9840 -0.3301
 4826TIP3   OH235968   6.635   6.369   2.308 -0.4325 -0.6096 -0.2234
 4826TIP3    H135969   6.547   6.381   2.272 -1.2112 -0.1741  1.7930
 4826TIP3    H235970   6.672   6.457   2.311 -0.9835 -0.4353  1.5787
 4827TIP3   OH235971   0.210   4.660   4.292 -0.4187 -0.2504  0.2479
 4827TIP3    H135972   0.162   4.699   4.365 -1.9032 -1.2441 -0.1723
 4827TIP3    H235973   0.215   4.567   4.313  1.1834 -0.1843  0.1940
 4828TIP3   OH235974   1.896   2.306  16.424 -0.0304  0.3803  0.7384
 4828TIP3    H135975   1.824   2.360  16.392 -2.1601 -0.6763  3.5756
 4828TIP3    H235976   1.937   2.359  16.493  2.2313  1.1254 -1.0842
 4829TIP3   OH235977   2.881   4.407   0.035  0.5676  0.0952 -0.0376
 4829TIP3    H135978   2.891   4.472   0.105 -0.2237  0.6933 -0.4730
 4829TIP3    H235979   2.791   4.420   0.004  1.2059  0.4191 -1.7643
 4830TIP3   OH235980   4.338   0.396  13.436  0.3218 -0.0496  0.2685
 4830TIP3    H135981   4.372   0.382  13.524 -0.5654  0.1969  0.6609
 4830TIP3    H235982   4.279   0.323  13.421 -0.0997  0.3068  0.1743
 4831TIP3   OH235983   1.169   5.589   4.606  0.1902 -0.3264 -0.3334
 4831TIP3    H135984   1.101   5.615   4.668  0.1108  2.1102 -1.3871
 4831TIP3    H235985   1.150   5.498   4.586 -0.2352 -0.9335  2.6164
 4832TIP3   OH235986   1.015   0.314   4.348  0.2221 -0.0609 -0.0028
 4832TIP3    H135987   1.087   0.289   4.405  0.7542  0.6503 -0.3514
 4832TIP3    H235988   0.936   0.287   4.394  0.7587 -2.0742 -0.2205
 4833TIP3   OH235989   1.432   3.766  12.086 -0.3904  1.0316  0.2274
 4833TIP3    H135990   1.437   3.691  12.145 -0.2289  1.4108  0.6969
 4833TIP3    H235991   1.497   3.749  12.019 -0.7016  0.5095  0.0588
 4834TIP3   OH235992   0.227   5.294  14.447 -0.6276  0.0940 -0.3097
 4834TIP3    H135993   0.209   5.203  14.472 -1.5101  0.4743  0.4698
 4834TIP3    H235994   0.209   5.297  14.353  0.6170 -0.8251 -0.6042
 4835TIP3   OH235995   0.501   4.155   5.754 -0.5010  0.3824  0.3757
 4835TIP3    H135996   0.505   4.242   5.715  0.6633 -0.0039 -0.3942
 4835TIP3    H235997   0.510   4.170   5.848  1.2170  0.9895  0.1172
 4836TIP3   OH235998   3.915   0.853   2.650  0.0148  0.1606 -0.0263
 4836TIP3    H135999   3.870   0.922   2.700 -0.5947 -0.5015  0.3499
 4836TIP3    H236000   3.881   0.771   2.686  2.2382 -0.3833  0.9116
 4837TIP3   OH236001   5.046   1.047   0.305 -0.1406 -0.2132 -0.3378
 4837TIP3    H136002   5.033   0.955   0.282  2.1781 -0.6833  0.1355
 4837TIP3    H236003   5.011   1.055   0.394  1.2545 -1.0737  0.3079
 4838TIP3   OH236004   3.548   4.208  16.037 -0.2693  0.3515  0.0007
 4838TIP3    H136005   3.474   4.157  16.071  0.4210 -0.8464 -0.2393
 4838TIP3    H236006   3.620   4.187  16.096  0.5723 -0.6215 -1.3399
 4839TIP3   OH236007   1.522   4.178   4.428  0.6577  0.0285 -0.1493
 4839TIP3    H136008   1.522   4.263   4.384  0.4495 -0.0149 -0.2349
 4839TIP3    H236009   1.607   4.140   4.406  0.3499 -0.2090 -0.9372
 4840TIP3   OH236010   1.475   3.388  15.349  0.0964  0.4618 -0.4336
 4840TIP3    H136011   1.553   3.404  15.401  0.0690  1.2972 -0.6457
 4840TIP3    H236012   1.445   3.302  15.377  0.4999  0.5878  0.3931
 4841TIP3   OH236013   1.663   0.019  11.645 -0.2051  0.1802 -0.1863
 4841TIP3    H136014   1.724   0.040  11.716 -0.8546  0.3446  0.3327
 4841TIP3    H236015   1.599  -0.040  11.685  1.1583 -2.2104 -1.4299
 4842TIP3   OH236016   3.946   4.099  15.566 -0.5450  0.4702  0.2736
 4842TIP3    H136017   3.923   4.058  15.483  1.9377 -1.3504  0.4343
 4842TIP3    H236018   4.041   4.110  15.562 -0.4532  0.7905  2.6767
 4843TIP3   OH236019   5.190   5.616  12.509  0.3776  0.5510 -0.6124
 4843TIP3    H136020   5.163   5.623  12.601 -0.2192 -1.4910 -0.6075
 4843TIP3    H236021   5.108   5.615  12.460  0.6339  0.0203 -1.0343
 4844TIP3   OH236022   6.318   1.266   3.509  0.9029  0.5401 -0.5085
 4844TIP3    H136023   6.394   1.255   3.452  1.4502  0.1988  0.2687
 4844TIP3    H236024   6.355   1.267   3.598 -0.0514 -0.2165 -0.0853
 4845TIP3   OH236025   6.385   1.755  11.579  0.6816  0.4760  0.3970
 4845TIP3    H136026   6.307   1.811  11.585  0.2267  0.1081 -1.5221
 4845TIP3    H236027   6.407   1.733  11.669 -1.3498  0.7197  0.9654
 4846TIP3   OH236028   5.931   3.378   2.530 -0.4495  0.2019 -0.0354
 4846TIP3    H136029   5.864   3.341   2.473 -0.1796  1.2986 -1.0943
 4846TIP3    H236030   6.013   3.369   2.480 -0.2507  1.3725  0.0678
 4847TIP3   OH236031   0.353   5.696   5.921 -0.1241 -0.2400 -0.6263
 4847TIP3    H136032   0.326   5.765   5.981  0.7806  0.0071 -0.4900
 4847TIP3    H236033   0.376   5.742   5.840 -0.6791 -0.5042 -0.9405
 4848TIP3   OH236034   6.757   4.294  15.817  0.3911  0.0373 -0.0635
 4848TIP3    H136035   6.689   4.359  15.838  0.5319  0.9869 -2.4169
 4848TIP3    H236036   6.714   4.234  15.757  1.7383  0.8757 -1.8943
 4849TIP3   OH236037   6.073   2.729  11.180 -0.4784  0.1197 -0.1093
 4849TIP3    H136038   6.012   2.734  11.253 -0.5786 -2.2325  0.0247
 4849TIP3    H236039   6.019   2.744  11.103 -0.7905  0.4516  0.1726
 4850TIP3   OH236040   0.770   3.378   4.110 -0.0550 -0.2578  0.0450
 4850TIP3    H136041   0.779   3.283   4.106  1.4940 -0.0737 -1.6233
 4850TIP3    H236042   0.729   3.402   4.027 -1.0684  0.4774  0.7490
 4851TIP3   OH236043   3.471   1.498  12.306  0.2240 -0.3131  0.1880
 4851TIP3    H136044   3.524   1.529  12.233 -0.0705  0.5913  0.3442
 4851TIP3    H236045   3.385   1.481  12.268  0.3013 -0.6290  0.1613
 4852TIP3   OH236046   2.894   4.737   0.668 -0.0400  0.5544  0.3954
 4852TIP3    H136047   2.817   4.704   0.623 -0.6082  0.9645  1.0554
 4852TIP3    H236048   2.889   4.832   0.658 -1.3328  0.8313  3.1122
 4853TIP3   OH236049   6.028   0.194   4.202 -0.2799  0.1412  1.2758
 4853TIP3    H136050   5.956   0.148   4.244  0.8266 -1.9542  0.9626
 4853TIP3    H236051   6.107   0.154   4.239  0.7893  3.1612  2.4799
 4854TIP3   OH236052   6.288   4.907  11.965  0.3697 -0.5608  0.2872
 4854TIP3    H136053   6.215   4.967  11.981  1.2282  0.2166  1.3785
 4854TIP3    H236054   6.263   4.860  11.886 -0.9680  0.2295  0.2176
 4855TIP3   OH236055   0.111   3.358   5.613  0.1341 -0.2881 -0.1638
 4855TIP3    H136056   0.175   3.429   5.620 -0.2932  0.0395  0.6106
 4855TIP3    H236057   0.031   3.402   5.585  0.5348 -0.8689 -2.2996
 4856TIP3   OH236058   2.175   0.815  14.530  0.0388 -0.0388 -0.4505
 4856TIP3    H136059   2.105   0.875  14.504  0.7617  2.7790  3.6261
 4856TIP3    H236060   2.129   0.735  14.556 -1.4662  0.8273 -0.3786
 4857TIP3   OH236061   3.379   2.985   3.414 -0.5609 -0.5690  0.6684
 4857TIP3    H136062   3.456   2.960   3.364 -1.5732  1.1554 -1.8624
 4857TIP3    H236063   3.390   3.079   3.428 -1.3776 -0.6330  1.7811
 4858TIP3   OH236064   3.317   2.109   1.313  0.3862 -0.0237 -0.6636
 4858TIP3    H136065   3.252   2.143   1.250  0.5273  0.7068 -0.4226
 4858TIP3    H236066   3.326   2.017   1.290  0.7113  0.3206 -1.9673
 4859TIP3   OH236067   3.902   6.766  16.531 -1.1295  0.1727  0.1960
 4859TIP3    H136068   3.991   6.731  16.523 -1.4941 -0.9694  1.0479
 4859TIP3    H236069   3.914   6.861  16.528 -0.0392  0.0154 -1.2988
 4860TIP3   OH236070   5.734   5.328   1.240 -0.3928 -0.4539 -0.2996
 4860TIP3    H136071   5.782   5.393   1.292 -2.2246  0.6746  0.0623
 4860TIP3    H236072   5.775   5.331   1.153 -1.0888  1.9718 -0.5861
 4861TIP3   OH236073   0.899   0.529  16.297  0.2999  0.4644 -0.3827
 4861TIP3    H136074   0.842   0.452  16.306  0.8588  0.1661  0.7282
 4861TIP3    H236075   0.893   0.572  16.383  0.1783  1.5276 -0.9195
 4862TIP3   OH236076   2.263   3.758   2.848 -0.2245 -0.4066  0.7936
 4862TIP3    H136077   2.189   3.798   2.802 -1.1574 -2.2949  0.6092
 4862TIP3    H236078   2.234   3.748   2.938 -0.2147 -1.1582  0.7218
 4863TIP3   OH236079   4.696   2.951  15.650  1.0957  0.6184 -0.4277
 4863TIP3    H136080   4.627   3.014  15.629 -0.4584 -1.1469 -0.6874
 4863TIP3    H236081   4.671   2.915  15.734 -0.6878 -3.1680 -2.4538
 4864TIP3   OH236082   2.817   3.213   6.540  0.0667  0.0833 -0.1445
 4864TIP3    H136083   2.902   3.171   6.543  0.3006  0.5486 -0.1782
 4864TIP3    H236084   2.793   3.226   6.632 -0.7016 -1.5026 -0.1079
 4865TIP3   OH236085   6.284   2.798   0.049 -0.0844 -0.5303 -0.1575
 4865TIP3    H136086   6.364   2.801   0.101  0.0610  3.2289 -0.4493
 4865TIP3    H236087   6.214   2.806   0.113 -0.0912 -0.5802 -0.1588
 4866TIP3   OH236088   4.969   1.935  10.933 -0.5890 -0.2446 -0.1224
 4866TIP3    H136089   5.049   1.981  10.908  0.9202 -2.1741  1.0166
 4866TIP3    H236090   4.947   1.970  11.019 -1.2210  0.5854 -0.6142
 4867TIP3   OH236091   3.776   2.324  11.474 -0.3173 -0.3616  0.0851
 4867TIP3    H136092   3.718   2.373  11.533 -0.4684 -0.0616 -0.3076
 4867TIP3    H236093   3.855   2.309  11.525 -0.1268  0.6148  0.0872
 4868TIP3   OH236094   1.279   4.662   0.341  0.8770 -0.3251  0.2773
 4868TIP3    H136095   1.185   4.669   0.326  1.1994 -0.4548 -2.1209
 4868TIP3    H236096   1.291   4.574   0.375  0.2432 -0.7662 -0.6014
 4869TIP3   OH236097   1.291   2.430  16.827 -0.4991  0.4788  0.0812
 4869TIP3    H136098   1.240   2.506  16.855 -0.3094  0.9811 -0.9248
 4869TIP3    H236099   1.348   2.411  16.901 -0.9112  0.9985  0.5342
 4870TIP3   OH236100   4.479   5.217  12.391  0.0551  0.3184 -0.1839
 4870TIP3    H136101   4.532   5.175  12.458 -0.2853  0.1809  0.0014
 4870TIP3    H236102   4.515   5.187  12.308  2.2488  2.6264 -0.1246
 4871TIP3   OH236103   3.925   1.006  17.283 -0.4554 -0.0342  0.0969
 4871TIP3    H136104   4.017   1.019  17.261 -0.8710 -0.1135 -1.7962
 4871TIP3    H236105   3.878   1.034  17.205 -2.1641  2.0788  1.7934
 4872TIP3   OH236106   1.683   1.456  14.269  0.0643  0.2311 -0.0297
 4872TIP3    H136107   1.616   1.466  14.201  0.2219 -0.7729 -0.3338
 4872TIP3    H236108   1.659   1.376  14.315  1.2149 -0.2833 -0.3147
 4873TIP3   OH236109   0.775   4.761   0.420  0.1018 -0.1874 -0.0701
 4873TIP3    H136110   0.791   4.804   0.504 -1.2774  1.7627 -0.7703
 4873TIP3    H236111   0.680   4.757   0.413  0.2110 -1.2239 -1.0981
 4874TIP3   OH236112   0.596   5.083   1.797 -0.0098  0.0162 -0.4440
 4874TIP3    H136113   0.647   5.005   1.819 -0.1929  0.0830  0.2158
 4874TIP3    H236114   0.586   5.129   1.880 -0.7043  0.2664 -0.6658
 4875TIP3   OH236115   2.613   2.667  12.045 -0.1233  0.3711  0.2368
 4875TIP3    H136116   2.635   2.618  12.124 -0.9672 -0.5987 -0.1080
 4875TIP3    H236117   2.526   2.635  12.021 -0.8113  2.2684  0.1596
 4876TIP3   OH236118   4.666   6.688   0.428 -0.3808  0.4890 -0.0964
 4876TIP3    H136119   4.631   6.773   0.403 -1.0254  0.1958 -0.2086
 4876TIP3    H236120   4.616   6.663   0.506 -0.0659  0.2950  0.0463
 4877TIP3   OH236121   4.148   5.882  15.302  0.1764  0.0509 -0.2235
 4877TIP3    H136122   4.068   5.903  15.351  0.5986  1.9666 -0.3046
 4877TIP3    H236123   4.180   5.967  15.271  1.0495 -0.9181 -2.0672
 4878TIP3   OH236124   3.228   0.482   3.873 -0.2250  0.8435 -0.5671
 4878TIP3    H136125   3.215   0.462   3.966  1.1764  0.8479 -0.3599
 4878TIP3    H236126   3.187   0.408   3.827 -1.2308  1.0173  0.0341
 4879TIP3   OH236127   4.379   5.870  12.567  0.2171  0.4659 -0.3442
 4879TIP3    H136128   4.456   5.815  12.576 -0.3150 -0.3439 -0.7192
 4879TIP3    H236129   4.306   5.809  12.556 -0.4732  1.2252 -0.0377
 4880TIP3   OH236130   3.025   2.334   3.385 -0.7175 -0.1644  0.4052
 4880TIP3    H136131   3.009   2.240   3.375  1.9487 -0.7581  1.2944
 4880TIP3    H236132   3.077   2.358   3.308 -1.0537  0.4867  0.3825
 4881TIP3   OH236133   2.273   4.332  16.283 -0.2583  0.2641  0.0334
 4881TIP3    H136134   2.238   4.367  16.365 -0.4211  1.4450 -0.5268
 4881TIP3    H236135   2.209   4.357  16.216  0.0123 -0.4440 -0.5033
 4882TIP3   OH236136   3.801   3.466  11.828 -0.5246  0.0975 -0.0256
 4882TIP3    H136137   3.798   3.558  11.801 -0.1599 -0.4334 -1.8845
 4882TIP3    H236138   3.721   3.427  11.792 -0.5412 -0.3855  0.5211
 4883TIP3   OH236139   0.778   4.756  15.282  0.1828  0.8174 -0.1375
 4883TIP3    H136140   0.747   4.799  15.361  0.8425 -0.3418  0.7678
 4883TIP3    H236141   0.812   4.827  15.227  2.6257  1.3130  1.9365
 4884TIP3   OH236142   5.149   2.532   2.570  0.0529  0.6535 -0.3114
 4884TIP3    H136143   5.240   2.513   2.592  0.1281  2.8322  1.3979
 4884TIP3    H236144   5.126   2.467   2.503  2.4857 -0.6530  0.0872
 4885TIP3   OH236145   6.054   2.685  16.298  0.2136  0.1797  0.1737
 4885TIP3    H136146   6.141   2.649  16.284 -0.1136 -0.1824 -0.9773
 4885TIP3    H236147   6.063   2.778  16.277 -0.2916 -0.3720 -2.6568
 4886TIP3   OH236148   6.094   0.777  12.947  0.5932  0.3065 -0.0091
 4886TIP3    H136149   6.051   0.742  13.025  0.2276  1.3301  0.2627
 4886TIP3    H236150   6.168   0.718  12.931  1.5329  0.9102  1.9749
 4887TIP3   OH236151   3.796   4.541  13.229  0.5938 -0.5966  0.2766
 4887TIP3    H136152   3.712   4.557  13.187 -0.8667 -1.8874  2.5952
 4887TIP3    H236153   3.819   4.626  13.268 -0.0907 -0.4636  0.4063
 4888TIP3   OH236154   4.344   2.536  14.092  0.3440  0.1088  0.3862
 4888TIP3    H136155   4.286   2.524  14.168  0.6673 -0.6472  0.5212
 4888TIP3    H236156   4.428   2.500  14.121 -0.1645 -2.4459 -1.1460
 4889TIP3   OH236157   2.583   2.969  17.037 -0.1698  0.0872  0.2258
 4889TIP3    H136158   2.513   2.919  17.080  1.5490 -2.0722  0.6101
 4889TIP3    H236159   2.655   2.967  17.100  0.3205  2.1361 -0.2460
 4890TIP3   OH236160   4.900   4.920   3.848 -0.4072  0.1416  0.4269
 4890TIP3    H136161   4.820   4.915   3.796 -0.5567  0.5896  0.6076
 4890TIP3    H236162   4.934   4.830   3.849 -0.2108  0.1945 -0.7289
 4891TIP3   OH236163   4.575   2.723  10.959  0.2081  0.2214  0.2694
 4891TIP3    H136164   4.505   2.737  11.023 -0.8081 -0.4466 -0.6729
 4891TIP3    H236165   4.634   2.661  11.001 -0.8801 -0.8393  0.2625
 4892TIP3   OH236166   5.572   2.206   2.736 -0.1558  0.2432  0.0879
 4892TIP3    H136167   5.634   2.204   2.663 -1.5699 -0.4392 -1.1159
 4892TIP3    H236168   5.541   2.116   2.744 -0.6782  0.4900  0.9716
 4893TIP3   OH236169   0.133   0.398   0.951  0.2722  0.0133 -0.0687
 4893TIP3    H136170   0.160   0.489   0.936 -0.2765  0.1265 -0.3726
 4893TIP3    H236171   0.039   0.398   0.933 -0.1986 -0.0912  2.2984
 4894TIP3   OH236172   6.377   1.631   3.459 -0.4457  0.0938 -0.2253
 4894TIP3    H136173   6.377   1.554   3.402  0.1197  1.3470 -1.9473
 4894TIP3    H236174   6.289   1.666   3.452 -0.0378  0.9397 -1.3147
 4895TIP3   OH236175   2.068   5.539   6.667 -0.2233  0.0856 -0.1001
 4895TIP3    H136176   2.068   5.491   6.585 -1.0564  0.8389 -0.5557
 4895TIP3    H236177   2.076   5.471   6.735  1.2506 -0.4729 -0.8171
 4896TIP3   OH236178   5.900   1.260  16.458 -0.2205  0.1201  0.0678
 4896TIP3    H136179   5.840   1.332  16.477 -0.0423  0.5239 -0.8866
 4896TIP3    H236180   5.978   1.278  16.510 -0.8166 -0.2649  1.1103
 4897TIP3   OH236181   3.791   4.126  14.551 -0.3911  0.0720  0.0085
 4897TIP3    H136182   3.884   4.148  14.540 -0.0654 -0.8134  0.9887
 4897TIP3    H236183   3.788   4.031  14.540 -1.3702  0.2266 -1.2311
 4898TIP3   OH236184   3.071   0.422   3.159  0.2392  0.0068 -0.2061
 4898TIP3    H136185   2.987   0.395   3.121  0.1200 -0.5892  0.4688
 4898TIP3    H236186   3.059   0.514   3.181 -1.0411 -0.6466  2.0055
 4899TIP3   OH236187   3.503   0.755  13.070  0.1624  0.1234 -0.6765
 4899TIP3    H136188   3.498   0.783  12.978  1.4523 -1.2454 -1.1892
 4899TIP3    H236189   3.595   0.733  13.083 -0.1303 -0.2934  0.7856
 4900TIP3   OH236190   3.230   5.533   3.484  0.2014  0.2743 -0.3209
 4900TIP3    H136191   3.164   5.547   3.552  1.6634 -0.7326  1.3931
 4900TIP3    H236192   3.181   5.513   3.405 -1.5491  0.0369  0.7997
 4901TIP3   OH236193   0.112   1.762   1.736  0.2429 -0.2315  0.5609
 4901TIP3    H136194   0.102   1.857   1.743 -1.1241 -0.4154  1.2947
 4901TIP3    H236195   0.067   1.728   1.814  1.7072 -1.4251  0.9106
 4902TIP3   OH236196   1.775   3.805   4.498  0.4792  0.1192 -0.1462
 4902TIP3    H136197   1.806   3.738   4.559  0.1421 -1.6260 -1.8452
 4902TIP3    H236198   1.695   3.768   4.460 -0.1832  1.8610 -0.4892
 4903TIP3   OH236199   1.150   1.069  16.700 -0.0868  0.4026  0.8488
 4903TIP3    H136200   1.191   1.155  16.697  0.3096  0.1502 -1.6581
 4903TIP3    H236201   1.223   1.009  16.720 -0.0949  0.4948  1.1488
 4904TIP3   OH236202   3.375   6.734  16.244 -0.3966  0.0823  0.4449
 4904TIP3    H136203   3.410   6.684  16.171 -1.0891 -1.7769  1.3635
 4904TIP3    H236204   3.451   6.759  16.295 -0.0530 -0.1583  0.0541
 4905TIP3   OH236205   6.655   3.436  13.754  0.7734 -0.1768  0.0045
 4905TIP3    H136206   6.627   3.452  13.665  1.8100  0.9230 -0.1483
 4905TIP3    H236207   6.587   3.380  13.792 -0.2815  0.3467 -1.0941
 4906TIP3   OH236208   3.386   5.399   5.661 -0.8709  0.0501 -0.1093
 4906TIP3    H136209   3.471   5.442   5.668 -1.0417  0.5786 -1.1339
 4906TIP3    H236210   3.396   5.318   5.711  0.1260  0.2617  0.0513
 4907TIP3   OH236211   0.948   4.986   5.914  0.0190  0.0832  0.1635
 4907TIP3    H136212   0.946   5.027   6.001 -0.0375  2.8146 -1.1035
 4907TIP3    H236213   0.864   4.940   5.908 -0.6572  1.1736  0.9623
 4908TIP3   OH236214   4.015   0.557  13.090  0.1224  0.5085 -0.3468
 4908TIP3    H136215   3.937   0.507  13.115 -2.1814  2.7861 -2.6246
 4908TIP3    H236216   3.999   0.644  13.125  1.4568  1.1199 -1.2261
 4909TIP3   OH236217   2.115   2.170   3.834  0.6829  0.3228  0.5699
 4909TIP3    H136218   2.192   2.146   3.887  0.7014 -1.8868 -0.3955
 4909TIP3    H236219   2.152   2.212   3.757  0.6736  3.2630  2.1168
 4910TIP3   OH236220   4.927   2.051   0.776 -0.6813  0.5174  0.1881
 4910TIP3    H136221   4.832   2.060   0.778 -0.6472  0.6811  2.5613
 4910TIP3    H236222   4.960   2.141   0.781 -0.3687  0.7618 -4.6591
 4911TIP3   OH236223   2.100   0.225  15.487 -0.3966 -0.0620 -0.0598
 4911TIP3    H136224   2.141   0.139  15.496 -1.0358 -0.6314 -2.2675
 4911TIP3    H236225   2.028   0.224  15.550  0.3212 -0.6810  0.7663
 4912TIP3   OH236226   2.270   6.236   2.263 -0.2673 -0.4791 -0.3082
 4912TIP3    H136227   2.234   6.319   2.229  0.8339  0.9909  2.0265
 4912TIP3    H236228   2.326   6.262   2.336  0.8618 -3.2371 -0.1430
 4913TIP3   OH236229   6.685   0.759   2.722  0.0545  0.0227 -0.6020
 4913TIP3    H136230   6.735   0.838   2.699 -0.4133 -0.3656 -3.2022
 4913TIP3    H236231   6.653   0.727   2.637  0.0047 -2.8081  0.4646
 4914TIP3   OH236232   4.962   3.219  11.421  0.1597  0.4133 -0.5090
 4914TIP3    H136233   4.897   3.149  11.416 -0.0270  0.6244 -1.0877
 4914TIP3    H236234   4.993   3.217  11.511 -0.6180  0.2783 -0.2404
 4915TIP3   OH236235   4.430   4.243  15.039  0.4993 -0.0420 -0.1807
 4915TIP3    H136236   4.469   4.324  15.070 -0.8218  1.2646 -1.8047
 4915TIP3    H236237   4.410   4.193  15.118  3.4029  0.2006  0.7341
 4916TIP3   OH236238   3.751   0.551  12.884 -0.3050  0.0635  0.6269
 4916TIP3    H136239   3.817   0.610  12.921 -0.3573  0.1514  0.5822
 4916TIP3    H236240   3.707   0.513  12.960 -2.1675  2.2273  0.6929
 4917TIP3   OH236241   5.146   6.062   3.794 -0.2143 -0.0318  0.0024
 4917TIP3    H136242   5.215   6.098   3.739  0.2085 -0.5885  0.1744
 4917TIP3    H236243   5.135   6.127   3.864 -0.3546  0.3925 -0.4073
 4918TIP3   OH236244   0.051   4.197  11.443 -0.2021 -0.0177 -0.1514
 4918TIP3    H136245   0.014   4.137  11.507 -0.1538  1.4251  1.2678
 4918TIP3    H236246  -0.018   4.263  11.430  0.9378  1.3808  0.7428
 4919TIP3   OH236247   1.242   5.686   3.095  0.0366  0.5369  0.5763
 4919TIP3    H136248   1.198   5.646   3.020 -0.4678  2.2652 -0.0823
 4919TIP3    H236249   1.171   5.715   3.152  0.3288  1.7662  0.3460
 4920TIP3   OH236250   3.598   3.850  12.880  0.0308  0.0965  0.1462
 4920TIP3    H136251   3.608   3.935  12.923  2.0207 -1.1869  2.3366
 4920TIP3    H236252   3.683   3.835  12.838 -0.6659 -0.3517 -1.1296
 4921TIP3   OH236253   1.909   6.581  14.506 -0.6780  0.7040  0.3628
 4921TIP3    H136254   1.907   6.661  14.453  1.3392 -0.0783 -0.9511
 4921TIP3    H236255   1.864   6.516  14.453  0.1810  0.2468  0.1991
 4922TIP3   OH236256   3.486   3.283  16.684 -0.5687 -0.4627 -0.1129
 4922TIP3    H136257   3.503   3.355  16.624 -1.1189  0.9688  1.4087
 4922TIP3    H236258   3.394   3.293  16.708 -0.8434 -2.1031 -0.4238
 4923TIP3   OH236259   2.249   2.062  13.246 -0.9312 -0.2232 -0.2777
 4923TIP3    H136260   2.192   1.984  13.243  0.1416 -1.1013  1.3805
 4923TIP3    H236261   2.188   2.135  13.254 -1.8808 -1.0570  0.2989
 4924TIP3   OH236262   1.881   5.587   5.428 -0.4047 -0.0029  0.5784
 4924TIP3    H136263   1.930   5.509   5.450 -0.4280 -0.2037 -0.0623
 4924TIP3    H236264   1.791   5.556   5.414 -0.1483 -0.0847 -0.9946
 4925TIP3   OH236265   3.577   0.453   3.063 -0.0257  0.3364 -0.2751
 4925TIP3    H136266   3.564   0.403   2.982  2.0429 -1.5283  0.5187
 4925TIP3    H236267   3.672   0.459   3.073 -0.2453  2.1064  1.1085
 4926TIP3   OH236268   2.121   2.978  12.237  0.1951  0.0374 -0.0782
 4926TIP3    H136269   2.092   2.901  12.286  1.3151 -0.1326  0.3451
 4926TIP3    H236270   2.216   2.978  12.248  0.3109  0.8348 -1.0352
 4927TIP3   OH236271   6.129   3.338  14.881 -0.1437  0.2434  0.3437
 4927TIP3    H136272   6.075   3.365  14.806 -0.2898 -0.1375  0.3077
 4927TIP3    H236273   6.122   3.242  14.882  0.0819  0.2290  0.6791
 4928TIP3   OH236274   5.459   4.136  14.638 -0.1593 -0.0320  0.1982
 4928TIP3    H136275   5.466   4.127  14.733  2.5818 -0.1527  0.0215
 4928TIP3    H236276   5.473   4.229  14.620  0.7970 -0.2545 -0.2100
 4929TIP3   OH236277   2.728   1.207  16.184 -0.5253  0.7913  0.0701
 4929TIP3    H136278   2.695   1.296  16.199  1.0353  1.9910 -3.3371
 4929TIP3    H236279   2.782   1.213  16.106 -0.8576 -3.3045 -0.6071
 4930TIP3   OH236280   4.095   5.976   4.201 -0.3749  0.5242 -0.2718
 4930TIP3    H136281   4.021   5.953   4.145 -0.2134 -0.6059 -0.0469
 4930TIP3    H236282   4.060   6.039   4.263 -0.9240  0.6786 -0.7400
 4931TIP3   OH236283   1.384   4.737  12.368  0.5491  1.0210  0.4610
 4931TIP3    H136284   1.383   4.659  12.424  0.8908  1.4884  1.1296
 4931TIP3    H236285   1.424   4.707  12.286 -1.3063 -0.0274 -0.0971
 4932TIP3   OH236286   2.420   6.557  16.518  0.1959 -0.0785  0.0961
 4932TIP3    H136287   2.428   6.621  16.448  2.1541  0.2145  0.5556
 4932TIP3    H236288   2.385   6.606  16.592  0.8149  0.2488  0.1719
 4933TIP3   OH236289   0.679   2.139  11.876 -0.2768  0.6245 -1.1325
 4933TIP3    H136290   0.672   2.105  11.787 -0.1613  0.6529 -1.1512
 4933TIP3    H236291   0.766   2.112  11.906  0.1185  1.5704 -1.4210
 4934TIP3   OH236292   6.144   0.006   6.063  0.2349 -0.2871  0.0965
 4934TIP3    H136293   6.201  -0.004   6.139  1.1500  2.7156 -0.1201
 4934TIP3    H236294   6.071   0.059   6.095 -0.1420 -0.2941 -0.7272
 4935TIP3   OH236295   1.780   5.683   2.821  0.1524  0.3344  0.1340
 4935TIP3    H136296   1.814   5.733   2.896 -0.0086  0.0277  0.4110
 4935TIP3    H236297   1.715   5.624   2.859 -0.2121  0.4485 -0.3029
 4936TIP3   OH236298   6.611   3.996  16.406 -0.3874  0.5839  0.2962
 4936TIP3    H136299   6.583   3.954  16.487  0.6965  0.8552  0.8221
 4936TIP3    H236300   6.645   4.081  16.433  1.0047  0.2415 -0.3012
 4937TIP3   OH236301   1.357   0.561  11.018  0.6839  0.4877  0.4656
 4937TIP3    H136302   1.374   0.564  11.112 -0.7583 -0.3557  0.7579
 4937TIP3    H236303   1.323   0.648  10.997 -1.3050 -0.0781  1.1997
 4938TIP3   OH236304   6.372   6.375  16.318 -0.4656 -0.0101 -0.0595
 4938TIP3    H136305   6.411   6.386  16.405  1.0739 -1.2924 -0.5517
 4938TIP3    H236306   6.388   6.283  16.297 -1.3108  0.1623 -1.4763
 4939TIP3   OH236307   0.060   5.790  12.631  0.0068  0.0478  0.0165
 4939TIP3    H136308  -0.006   5.724  12.611  0.6405 -0.4068 -0.5464
 4939TIP3    H236309   0.009   5.870  12.645 -0.7664 -0.5705  0.8325
 4940TIP3   OH236310   0.295   2.361  15.473  0.0277 -0.3608  0.2738
 4940TIP3    H136311   0.360   2.361  15.403  0.4213  1.0309  0.6271
 4940TIP3    H236312   0.240   2.437  15.456  1.1030  0.9358  2.3343
 4941TIP3   OH236313   5.365   2.737   2.278  0.6861  0.2672 -0.6316
 4941TIP3    H136314   5.369   2.755   2.372  0.6227  0.8124 -0.7301
 4941TIP3    H236315   5.296   2.672   2.269 -0.1024  1.0626 -0.4199
 4942TIP3   OH236316   1.510   2.926  13.155 -0.6743  0.0358 -0.4724
 4942TIP3    H136317   1.419   2.926  13.125 -0.0189  1.4082 -2.5433
 4942TIP3    H236318   1.554   2.864  13.098  0.2692  1.5386 -1.4281
 4943TIP3   OH236319   1.727   2.670   6.050 -0.4627 -0.4739 -0.4031
 4943TIP3    H136320   1.821   2.689   6.050 -0.2476 -1.4998 -0.7100
 4943TIP3    H236321   1.720   2.586   6.095 -1.0169 -1.3925 -2.1377
 4944TIP3   OH236322   5.040   0.238   0.390 -0.3419 -0.5595  0.3585
 4944TIP3    H136323   4.998   0.322   0.371  0.7050 -0.0197  0.4021
 4944TIP3    H236324   5.021   0.184   0.313  0.0556  0.1348 -0.2335
 4945TIP3   OH236325   5.917   1.151  13.999  0.7003  0.0597  0.4187
 4945TIP3    H136326   5.883   1.224  14.050  0.5245 -0.3883  0.9420
 4945TIP3    H236327   5.923   1.078  14.061 -0.6208 -0.8214 -0.4625
 4946TIP3   OH236328   1.132   2.765   6.685  0.1916  0.3377 -0.1631
 4946TIP3    H136329   1.184   2.837   6.719 -1.2802  1.8433 -1.0596
 4946TIP3    H236330   1.053   2.806   6.650 -0.6581 -1.6966 -0.7124
 4947TIP3   OH236331   3.929   6.060   5.828 -0.0910 -0.0770  0.2367
 4947TIP3    H136332   3.847   6.105   5.846  0.4465  0.4236  1.5588
 4947TIP3    H236333   3.996   6.119   5.864  0.9225  0.0474 -1.7844
 4948TIP3   OH236334   5.071   4.606   4.796  0.2731  0.2074 -0.3940
 4948TIP3    H136335   5.140   4.656   4.839 -0.6557  3.3003 -2.3452
 4948TIP3    H236336   4.990   4.641   4.834 -0.4044  0.5316 -2.0946
 4949TIP3   OH236337   4.113   3.191   1.838  0.2171  0.4873  0.1994
 4949TIP3    H136338   4.033   3.144   1.813  0.3532 -0.2141  1.0883
 4949TIP3    H236339   4.168   3.125   1.880  0.5816  1.3427  1.0764
 4950TIP3   OH236340   4.302   2.227  11.199 -0.2970  0.2556 -0.5067
 4950TIP3    H136341   4.242   2.171  11.248  0.4865  0.2353  0.4379
 4950TIP3    H236342   4.336   2.170  11.129  0.6718 -0.5333  0.5843
 4951TIP3   OH236343   5.412   1.346   4.286  0.0664  0.2301 -0.4956
 4951TIP3    H136344   5.339   1.294   4.320 -0.1521  0.2777 -0.8963
 4951TIP3    H236345   5.487   1.287   4.292  0.3362  0.7461  1.5153
 4952TIP3   OH236346   4.571   0.022   4.237  0.6266 -0.0003 -0.6824
 4952TIP3    H136347   4.519   0.089   4.194  0.3906 -0.7953 -1.6680
 4952TIP3    H236348   4.658   0.060   4.246  0.7779  0.0468 -2.2193
 4953TIP3   OH236349   4.457   0.598  15.922  0.5002  0.0940  0.6761
 4953TIP3    H136350   4.448   0.523  15.863  0.1759  0.6402  0.0215
 4953TIP3    H236351   4.490   0.668  15.866 -0.3788  0.7872  1.0128
 4954TIP3   OH236352   0.508   1.484   2.659 -0.2359 -0.0205 -0.0146
 4954TIP3    H136353   0.510   1.419   2.589  1.1401  0.7257 -0.6898
 4954TIP3    H236354   0.419   1.519   2.656  0.0928  0.7298 -2.1149
 4955TIP3   OH236355   3.619   1.719   2.522  0.3257  0.0034  0.2242
 4955TIP3    H136356   3.592   1.738   2.612 -1.7691  0.6868 -0.5339
 4955TIP3    H236357   3.635   1.805   2.483  0.7618 -0.2686 -0.2059
 4956TIP3   OH236358   0.326   2.047   6.216  0.1861  0.2130  0.0663
 4956TIP3    H136359   0.410   2.014   6.186  1.0323  0.0453  2.4920
 4956TIP3    H236360   0.271   1.969   6.225 -0.0589  0.2613 -0.9750
 4957TIP3   OH236361   1.785   2.413  13.786 -0.3505 -0.1454  0.2014
 4957TIP3    H136362   1.775   2.448  13.697 -1.6163  0.0582  0.4073
 4957TIP3    H236363   1.834   2.332  13.775 -0.6549 -0.2078 -0.7097
 4958TIP3   OH236364   6.444   4.702   0.156 -0.3922 -0.1210 -0.0532
 4958TIP3    H136365   6.379   4.633   0.147  1.4819 -2.0679  0.9438
 4958TIP3    H236366   6.528   4.656   0.163  1.1095  2.3186 -1.2967
 4959TIP3   OH236367   3.641   0.409  14.591 -0.1265 -0.5784 -0.4924
 4959TIP3    H136368   3.735   0.421  14.595 -0.3737  1.0536  1.2090
 4959TIP3    H236369   3.609   0.485  14.541 -0.5500 -1.1717 -1.1450
 4960TIP3   OH236370   4.384   6.374  16.467 -0.2958  0.4472  0.3415
 4960TIP3    H136371   4.387   6.394  16.560 -0.1979 -0.2946  0.5052
 4960TIP3    H236372   4.363   6.281  16.463 -0.9843  0.6262 -0.3924
 4961TIP3   OH236373   3.895   3.315  14.691 -0.2939  0.1220 -0.9110
 4961TIP3    H136374   3.813   3.285  14.653 -0.2043 -0.3214 -0.7681
 4961TIP3    H236375   3.963   3.268  14.642 -0.0142  2.2658 -2.6103
 4962TIP3   OH236376   2.723   6.625  10.765 -0.4607 -0.1435  0.2821
 4962TIP3    H136377   2.687   6.567  10.697 -1.1804  1.3343 -0.6200
 4962TIP3    H236378   2.656   6.692  10.777  0.4122  0.5715  1.2406
 4963TIP3   OH236379   3.750   5.686  11.729  0.0777  0.1994 -0.0558
 4963TIP3    H136380   3.655   5.678  11.733  0.2213 -1.5593  0.5297
 4963TIP3    H236381   3.777   5.696  11.820  0.6716 -2.8621  0.1810
 4964TIP3   OH236382   2.010   2.100   1.259 -0.2708 -0.2528 -0.4982
 4964TIP3    H136383   2.005   2.085   1.354 -0.2390  0.0539 -0.4475
 4964TIP3    H236384   2.104   2.108   1.242 -0.4086  2.7134 -0.0780
 4965TIP3   OH236385   3.335   2.233  12.359 -0.0026 -0.2259  0.2347
 4965TIP3    H136386   3.266   2.287  12.400 -0.6438 -1.1128  0.3456
 4965TIP3    H236387   3.376   2.291  12.296 -0.6825  0.4039  0.3550
 4966TIP3   OH236388   0.542   2.343  13.452  0.4707  0.3524  0.3430
 4966TIP3    H136389   0.606   2.398  13.498  1.8289 -2.1219  1.5432
 4966TIP3    H236390   0.468   2.337  13.512  0.5580  0.4387  0.4607
 4967TIP3   OH236391   4.785   6.343   0.524  0.1004 -0.2350  0.3901
 4967TIP3    H136392   4.849   6.329   0.593 -0.5000  1.3387  1.2856
 4967TIP3    H236393   4.716   6.395   0.565 -1.1731 -0.8738 -0.8872
 4968TIP3   OH236394   4.674   0.941   2.181 -0.8117  0.3794 -0.2593
 4968TIP3    H136395   4.629   0.891   2.249 -2.2324  0.7882 -0.8892
 4968TIP3    H236396   4.626   1.024   2.176 -0.0371  0.7990 -1.0047
 4969TIP3   OH236397   6.020   5.657   6.754 -0.2186  0.2490 -0.3786
 4969TIP3    H136398   5.966   5.699   6.821  0.3397 -2.6258  1.9368
 4969TIP3    H236399   5.967   5.585   6.721  1.0381 -0.7732 -0.2020
 4970TIP3   OH236400   4.771   3.031  11.363  0.5512 -0.2300 -0.1774
 4970TIP3    H136401   4.844   2.977  11.333  0.8739 -0.0230  0.2250
 4970TIP3    H236402   4.721   2.973  11.420  0.7199 -0.2078 -0.0041
 4971TIP3   OH236403   2.396   5.505   2.494  0.5361  0.4218  0.0761
 4971TIP3    H136404   2.399   5.598   2.517  0.6570  0.5577 -0.4701
 4971TIP3    H236405   2.481   5.471   2.522 -0.3208 -0.0120  2.2475
 4972TIP3   OH236406   2.159   2.535   5.297 -0.1775 -0.0508  0.6921
 4972TIP3    H136407   2.141   2.568   5.385 -1.2412 -1.3190  0.9651
 4972TIP3    H236408   2.221   2.598   5.260 -0.4039  0.9733  2.0230
 4973TIP3   OH236409   2.205   0.316   1.896 -0.3375  0.2275  0.1329
 4973TIP3    H136410   2.115   0.291   1.916 -0.1041 -0.9495 -0.2869
 4973TIP3    H236411   2.197   0.372   1.818 -0.7589  0.6857  0.4963
 4974TIP3   OH236412   5.988   4.244   1.234  0.1694 -0.3678 -0.0646
 4974TIP3    H136413   5.964   4.152   1.249 -0.9869 -0.3644 -1.7356
 4974TIP3    H236414   6.080   4.249   1.260  0.9050 -2.5568 -1.9847
 4975TIP3   OH236415   1.415   6.542   4.201  0.5540 -0.5170  0.1709
 4975TIP3    H136416   1.371   6.624   4.222  0.0673 -0.8857  0.6306
 4975TIP3    H236417   1.505   6.555   4.231  0.7258  0.1936 -0.6455
 4976TIP3   OH236418   6.515   1.216  11.983 -0.0266  0.1794  0.4340
 4976TIP3    H136419   6.496   1.129  12.018  1.9589  1.0210  3.8207
 4976TIP3    H236420   6.434   1.265  11.993 -0.6890 -0.8217 -0.0033
 4977TIP3   OH236421   5.605   2.571   4.156 -0.1626  0.1313 -0.4896
 4977TIP3    H136422   5.562   2.645   4.198  0.6671 -0.6540  1.7962
 4977TIP3    H236423   5.561   2.494   4.192  1.0934 -0.5779 -0.4469
 4978TIP3   OH236424   6.526   1.102  12.674 -0.3994  0.0578  0.4545
 4978TIP3    H136425   6.542   1.009  12.689 -2.0585 -0.3503 -0.2311
 4978TIP3    H236426   6.598   1.146  12.719 -0.2228 -1.5035  1.7474
 4979TIP3   OH236427   6.699   2.926  13.857  0.2466  0.5121 -0.1449
 4979TIP3    H136428   6.719   2.956  13.945 -0.0947  2.5359 -0.7288
 4979TIP3    H236429   6.783   2.926  13.811  0.4428 -0.6536  0.1989
 4980TIP3   OH236430   2.797   4.901   2.762 -0.1274  0.7065 -0.2328
 4980TIP3    H136431   2.742   4.857   2.827 -0.9292  1.1891 -0.5751
 4980TIP3    H236432   2.878   4.850   2.760 -0.1453  0.6177  1.0532
 4981TIP3   OH236433   0.421   5.483   5.411 -0.0271  0.5246  0.1699
 4981TIP3    H136434   0.348   5.450   5.464  0.6232 -0.5216  0.4311
 4981TIP3    H236435   0.386   5.490   5.323 -0.5425  0.3476  0.3604
 4982TIP3   OH236436   6.649   1.519   0.506 -0.2366  0.0195  0.1877
 4982TIP3    H136437   6.554   1.516   0.501 -0.3667  0.6319  1.7994
 4982TIP3    H236438   6.676   1.428   0.515 -0.4872 -0.3693 -2.6277
 4983TIP3   OH236439   3.736   6.799   2.619 -0.0782  0.5367  0.1340
 4983TIP3    H136440   3.766   6.709   2.614  0.5492  0.7116  0.8454
 4983TIP3    H236441   3.643   6.794   2.597 -0.4741 -0.5211  1.9800
 4984TIP3   OH236442   4.362   3.841  13.270 -0.0165 -0.0314  0.1729
 4984TIP3    H136443   4.301   3.910  13.243  0.1291 -0.7297 -2.0057
 4984TIP3    H236444   4.402   3.811  13.189  2.3811 -0.4069  1.4570
 4985TIP3   OH236445   5.153   0.384  12.662  0.4811 -0.2386 -0.4305
 4985TIP3    H136446   5.208   0.327  12.716 -0.9567 -0.6719  0.6364
 4985TIP3    H236447   5.140   0.334  12.581 -0.9285 -1.5721  0.5708
 4986TIP3   OH236448   3.709   5.076  11.847  0.2867 -0.6217 -0.5801
 4986TIP3    H136449   3.786   5.040  11.892  0.6397 -1.3270 -1.7338
 4986TIP3    H236450   3.743   5.145  11.792  0.3281 -1.9733 -2.2842
 4987TIP3   OH236451   1.691   2.128   0.707 -0.0701  0.1986  0.0495
 4987TIP3    H136452   1.783   2.155   0.699 -0.1551  0.0179 -1.8062
 4987TIP3    H236453   1.683   2.052   0.650 -1.4094  0.3147  0.0526
 4988TIP3   OH236454   4.880   3.219  17.045 -0.1662 -0.9828 -0.4389
 4988TIP3    H136455   4.819   3.273  16.994 -0.2544 -0.2974  0.3867
 4988TIP3    H236456   4.858   3.129  17.020 -1.4563 -0.7393 -0.2237
 4989TIP3   OH236457   0.067   3.249  15.142 -0.1629  0.0947 -0.5040
 4989TIP3    H136458   0.124   3.256  15.218 -1.3992 -0.7463  0.5326
 4989TIP3    H236459   0.097   3.171  15.096  0.6571  0.6667 -0.9527
 4990TIP3   OH236460   1.357   0.520  13.938  0.0895  0.1025  0.0332
 4990TIP3    H136461   1.369   0.597  13.993 -0.4631  0.2832 -0.0926
 4990TIP3    H236462   1.262   0.506  13.937  0.0422  0.4672 -1.3632
 4991TIP3   OH236463   1.559   2.025   3.223 -0.1760 -0.5041 -0.0219
 4991TIP3    H136464   1.520   2.104   3.262 -1.8981 -1.3636  0.0747
 4991TIP3    H236465   1.641   2.055   3.185 -0.0057  1.0122  1.4655
 4992TIP3   OH236466   3.177   1.855  13.299 -0.2902  0.2382 -0.0219
 4992TIP3    H136467   3.188   1.887  13.209  0.1859 -0.8219 -0.3507
 4992TIP3    H236468   3.264   1.828  13.326 -0.6789 -0.8187  0.2280
 4993TIP3   OH236469   6.758   0.502  17.022 -0.2503  0.2013 -0.0114
 4993TIP3    H136470   6.713   0.437  17.075 -0.1389 -0.1612 -0.3648
 4993TIP3    H236471   6.733   0.586  17.062  1.5719 -0.1404  1.9839
 4994TIP3   OH236472   4.877   0.322  12.762 -0.3149  0.6232  0.0397
 4994TIP3    H136473   4.933   0.359  12.830  1.3059 -0.2311 -0.8178
 4994TIP3    H236474   4.848   0.238  12.797 -0.0554  0.5032 -0.0363
 4995TIP3   OH236475   4.820   3.792   1.665  0.4926  0.6497  0.2549
 4995TIP3    H136476   4.780   3.849   1.731  0.9810  2.4679 -0.9851
 4995TIP3    H236477   4.751   3.777   1.600  0.1018 -0.9104  0.9810
 4996TIP3   OH236478   2.756   2.834  14.979  0.0219 -0.3823  0.5008
 4996TIP3    H136479   2.756   2.861  15.071  0.3719 -0.1780  0.4402
 4996TIP3    H236480   2.845   2.854  14.948  0.2110 -1.3660  0.3919
 4997TIP3   OH236481   2.390   4.990   3.661  0.1972 -0.3500 -0.1823
 4997TIP3    H136482   2.434   5.056   3.608 -0.7770  1.1754  0.8644
 4997TIP3    H236483   2.308   5.032   3.688 -1.0068 -2.4409 -0.5186
 4998TIP3   OH236484   4.435   5.787  15.405  0.1735  1.2877 -0.1374
 4998TIP3    H136485   4.482   5.863  15.368  1.7916  0.2289 -0.3329
 4998TIP3    H236486   4.393   5.746  15.330  0.8297  0.9570 -0.3334
 4999TIP3   OH236487   1.129   1.566   2.310 -0.2029  0.2804 -0.4483
 4999TIP3    H136488   1.049   1.593   2.265 -0.3168  0.8431  0.0835
 4999TIP3    H236489   1.200   1.605   2.259 -0.2030 -1.1027 -1.5370
 5000TIP3   OH236490   2.815   2.389   5.526  0.1208  0.0144  0.1936
 5000TIP3    H136491   2.754   2.316   5.515 -0.7225  0.7260  0.1036
 5000TIP3    H236492   2.899   2.347   5.542 -0.2669 -0.9875 -0.3135
 5001TIP3   OH236493   4.022   5.943  13.990  0.2347 -0.7866 -0.1130
 5001TIP3    H136494   4.092   5.954  14.055 -2.4135  0.7893  2.6190
 5001TIP3    H236495   4.005   6.032  13.959  0.4848 -1.3575 -1.9269
 5002TIP3   OH236496   0.744   3.366   2.138  0.2697 -0.0924  0.3026
 5002TIP3    H136497   0.660   3.392   2.100  0.5949 -1.0350 -1.1244
 5002TIP3    H236498   0.787   3.448   2.160 -0.8679  0.4115  0.6975
 5003TIP3   OH236499   6.070   1.032  15.932 -0.4043  0.0850 -0.1856
 5003TIP3    H136500   6.029   1.014  15.848 -2.0413 -2.1416  1.0373
 5003TIP3    H236501   6.158   0.994  15.925  0.0482  1.3324 -1.4256
 5004TIP3   OH236502   3.847   0.506  11.487  0.0576  0.0021 -0.1617
 5004TIP3    H136503   3.920   0.483  11.430 -0.3923  0.6158 -0.9899
 5004TIP3    H236504   3.782   0.544  11.429 -1.3075 -1.3650  0.4215
 5005TIP3   OH236505   2.847   1.194  15.240  0.0626 -0.2937  1.2727
 5005TIP3    H136506   2.804   1.275  15.211 -0.0952 -0.4705  0.9992
 5005TIP3    H236507   2.781   1.126  15.224  0.8663 -0.7442 -0.3073
 5006TIP3   OH236508   3.197   5.854  15.981 -0.0319 -0.3898  0.2382
 5006TIP3    H136509   3.250   5.919  16.028  0.1817 -0.2330 -0.2194
 5006TIP3    H236510   3.127   5.833  16.042 -0.2318  0.4368  0.3096
 5007TIP3   OH236511   6.201   2.188  15.751  0.3477 -0.2092  0.3094
 5007TIP3    H136512   6.111   2.207  15.723 -0.3893 -0.0259  2.6987
 5007TIP3    H236513   6.252   2.190  15.670 -1.6648  0.4551 -0.9864
 5008TIP3   OH236514   3.828   3.508   2.171 -0.6794  0.2778  0.0605
 5008TIP3    H136515   3.886   3.578   2.198 -1.0633  0.1301  1.3184
 5008TIP3    H236516   3.884   3.430   2.167 -0.5840  0.3360  0.2718
 5009TIP3   OH236517   5.893   0.429   1.576  0.2265  0.4021  0.0791
 5009TIP3    H136518   5.888   0.489   1.502  1.0914  2.2041  1.4493
 5009TIP3    H236519   5.983   0.396   1.574  0.5453  1.1966  0.8744
 5010TIP3   OH236520   5.264   2.645   0.418 -0.1356 -0.6346  0.3039
 5010TIP3    H136521   5.198   2.694   0.467  0.6003  0.3836  0.2967
 5010TIP3    H236522   5.344   2.657   0.469  0.5957  0.2962 -1.0630
 5011TIP3   OH236523   0.646   4.190  12.747  0.4038 -0.3540 -0.2827
 5011TIP3    H136524   0.584   4.135  12.793 -1.4055  1.9039  0.0567
 5011TIP3    H236525   0.710   4.129  12.710 -1.6720 -2.6615 -0.1422
 5012TIP3   OH236526   0.890   2.831  14.183 -0.2328 -0.5227 -0.4057
 5012TIP3    H136527   0.873   2.832  14.278  1.0753  0.2858 -0.1653
 5012TIP3    H236528   0.974   2.876  14.174 -1.5643  1.7234 -2.1909
 5013TIP3   OH236529   2.171   6.313   3.554  0.2797  0.3808 -0.0076
 5013TIP3    H136530   2.237   6.243   3.552  1.6869  1.6817  0.7486
 5013TIP3    H236531   2.094   6.271   3.591  0.8411 -1.0217 -0.3878
 5014TIP3   OH236532   4.769   5.291   0.881  0.0159 -0.6827 -0.1121
 5014TIP3    H136533   4.854   5.272   0.842  0.4645  2.1625 -0.6359
 5014TIP3    H236534   4.788   5.356   0.949 -1.6618 -0.4505  0.1575
 5015TIP3   OH236535   3.739   3.980   0.865 -0.3545 -0.6852 -0.2626
 5015TIP3    H136536   3.762   3.893   0.900 -0.2194 -0.0565  1.2577
 5015TIP3    H236537   3.747   4.038   0.940 -2.4206  0.3273 -0.7944
 5016TIP3   OH236538   2.045   0.455  12.617  0.1502  0.1079 -0.0864
 5016TIP3    H136539   2.069   0.540  12.653  0.8187 -0.4168  0.7274
 5016TIP3    H236540   2.090   0.451  12.532  0.0163  0.6107 -0.1839
 5017TIP3   OH236541   5.755   2.872  11.970  0.3053 -0.6576  0.1789
 5017TIP3    H136542   5.765   2.923  11.890 -0.8315 -1.5583 -0.5505
 5017TIP3    H236543   5.827   2.808  11.967  0.5763 -0.3516  0.1403
 5018TIP3   OH236544   5.654   3.023   3.005 -0.3584  0.0078 -0.2257
 5018TIP3    H136545   5.686   3.113   3.006  0.8620 -0.4058 -1.3242
 5018TIP3    H236546   5.678   2.988   3.091 -1.3356  0.8785  0.4238
 5019TIP3   OH236547   2.678   2.720  14.556  0.6365 -0.2229 -0.0953
 5019TIP3    H136548   2.691   2.783  14.626  0.0151  1.3329 -1.3494
 5019TIP3    H236549   2.767   2.692  14.532  1.0077  1.4071 -0.6337
 5020TIP3   OH236550   2.914   4.965   6.095 -0.3566 -0.1012  0.8104
 5020TIP3    H136551   2.913   5.034   6.162 -0.8987 -0.4148  1.1432
 5020TIP3    H236552   2.967   4.895   6.134  2.7544  1.3012 -0.7841
 5021TIP3   OH236553   0.411   0.046   2.350  0.3404  0.7489 -0.0722
 5021TIP3    H136554   0.463   0.062   2.271  1.5271 -0.0645  0.5359
 5021TIP3    H236555   0.457   0.093   2.419 -0.8153  1.6316  0.1073
 5022TIP3   OH236556   0.607   2.763  11.753  0.5957 -0.0898 -0.0845
 5022TIP3    H136557   0.582   2.748  11.662 -0.7945  0.7424  0.1511
 5022TIP3    H236558   0.684   2.820  11.748  1.6698 -1.5713 -0.7794
 5023TIP3   OH236559   1.437   1.990   2.040  0.5251 -0.0568 -0.2034
 5023TIP3    H136560   1.413   1.930   1.969 -1.2147 -1.1277  1.2090
 5023TIP3    H236561   1.392   2.071   2.019  0.4693 -0.1963 -0.6278
 5024TIP3   OH236562   1.149   4.894  11.230 -0.1065  0.2232 -0.5414
 5024TIP3    H136563   1.172   4.951  11.156 -1.2260  1.7175  0.2385
 5024TIP3    H236564   1.099   4.950  11.289 -0.9246 -1.4795  0.4302
 5025TIP3   OH236565   6.200   5.968   5.635 -0.0095 -0.3238 -0.5142
 5025TIP3    H136566   6.206   6.061   5.613 -1.8280  0.1660  0.8686
 5025TIP3    H236567   6.119   5.961   5.685  0.8454 -2.4181  0.6379
 5026TIP3   OH236568   3.866   0.228  13.605 -0.2350 -0.2962 -0.1096
 5026TIP3    H136569   3.786   0.251  13.653  0.1142 -0.0090  0.3391
 5026TIP3    H236570   3.906   0.158  13.656  0.3074  0.2334  0.1983
 5027TIP3   OH236571   0.371   0.983  14.099 -0.0280  0.3757  0.2036
 5027TIP3    H136572   0.446   0.971  14.040  0.7290 -1.5327  1.4994
 5027TIP3    H236573   0.297   0.946  14.050  0.3262  0.1292 -0.1568
 5028TIP3   OH236574   0.027   2.390  12.741  0.1870 -0.1407  0.3336
 5028TIP3    H136575  -0.047   2.409  12.799 -1.1973 -3.3142 -0.2711
 5028TIP3    H236576   0.100   2.371  12.801 -0.1442  0.5546  0.9651
 5029TIP3   OH236577   6.182   5.127  11.551  0.1612 -0.8108  0.2102
 5029TIP3    H136578   6.132   5.172  11.483 -0.2731 -0.2541  0.9048
 5029TIP3    H236579   6.235   5.195  11.591 -0.4934 -0.9260  1.2630
 5030TIP3   OH236580   1.302   1.869   3.523 -0.5095 -0.4219 -0.2852
 5030TIP3    H136581   1.259   1.912   3.598 -0.1833 -0.3401 -0.1452
 5030TIP3    H236582   1.378   1.825   3.561  0.7013  1.1486 -0.8330
 5031TIP3   OH236583   0.675   4.146   1.035  0.2224  0.5643 -0.3101
 5031TIP3    H136584   0.691   4.235   1.067  0.3822  0.1825  0.6810
 5031TIP3    H236585   0.584   4.147   1.005 -0.4497  0.4751  1.6775
 5032TIP3   OH236586   0.945   1.007  17.244 -0.6805 -0.2011 -0.8792
 5032TIP3    H136587   1.039   1.009  17.260 -0.9905  1.1972  0.9487
 5032TIP3    H236588   0.917   1.098  17.255 -2.6572 -1.0326  1.2767
 5033TIP3   OH236589   1.872   4.408   6.213  0.1117  0.5173  0.1484
 5033TIP3    H136590   1.838   4.498   6.219  0.6642  0.7753 -0.5165
 5033TIP3    H236591   1.950   4.409   6.268 -0.5660  0.1130  1.1197
 5034TIP3   OH236592   4.671   6.025   2.041 -0.2303  0.3416 -0.1150
 5034TIP3    H136593   4.632   6.108   2.016  1.0053  0.9460 -0.0917
 5034TIP3    H236594   4.738   6.009   1.974  1.8677  1.0747  1.7726
 5035TIP3   OH236595   6.251   0.645   1.729  0.2249  0.0512  0.4972
 5035TIP3    H136596   6.310   0.695   1.786  0.3631  1.1352 -0.5865
 5035TIP3    H236597   6.257   0.689   1.644 -1.9055 -0.0309  0.2938
 5036TIP3   OH236598   0.435   4.070   2.538  0.1020 -0.3285  0.4993
 5036TIP3    H136599   0.467   4.012   2.469 -1.4022  0.7553 -1.1676
 5036TIP3    H236600   0.483   4.043   2.616  2.0873 -1.3785 -1.0275
 5037TIP3   OH236601   2.850   4.166   5.459  0.5514  0.1061  0.6513
 5037TIP3    H136602   2.867   4.253   5.423 -0.4613 -0.0501 -0.2203
 5037TIP3    H236603   2.933   4.119   5.447  0.5600  0.3953 -0.5069
 5038TIP3   OH236604   5.057   6.462  13.478 -0.6653 -0.1163 -0.0484
 5038TIP3    H136605   4.999   6.524  13.522 -0.4204  1.3864 -1.7972
 5038TIP3    H236606   5.098   6.513  13.408  1.7004 -1.5317  0.2731
 5039TIP3   OH236607   3.934   2.274  13.756  0.3489  0.6119  0.1679
 5039TIP3    H136608   3.892   2.248  13.838  1.7511 -1.6540  0.2118
 5039TIP3    H236609   4.021   2.235  13.760  0.7203  1.1280 -2.0700
 5040TIP3   OH236610   6.402   4.425  15.755  0.4766  0.2935 -0.2302
 5040TIP3    H136611   6.405   4.429  15.851  1.9626 -0.2269 -0.2452
 5040TIP3    H236612   6.364   4.510  15.730 -2.8710 -0.7659  0.8995
 5041TIP3   OH236613   3.856   2.629  11.064 -0.5360  0.3210 -0.3846
 5041TIP3    H136614   3.803   2.615  11.143 -0.1809  1.0012 -0.0298
 5041TIP3    H236615   3.876   2.541  11.033 -0.0076  0.0512  0.7246
 5042TIP3   OH236616   2.646   6.615  16.335  0.1628  0.1372 -0.5041
 5042TIP3    H136617   2.579   6.570  16.283  1.1917 -1.3321 -0.5976
 5042TIP3    H236618   2.670   6.551  16.402  0.1795  1.3319  0.6406
 5043TIP3   OH236619   5.364   1.513  11.230  0.6122 -0.1260  0.1752
 5043TIP3    H136620   5.450   1.556  11.231  0.6109 -0.1173 -0.0896
 5043TIP3    H236621   5.302   1.585  11.245  0.7199 -0.3046  1.5791
 5044TIP3   OH236622   2.513   5.949   1.024 -0.3903 -0.8372 -0.1601
 5044TIP3    H136623   2.456   5.874   1.010  0.0896 -1.0808 -0.8605
 5044TIP3    H236624   2.471   6.021   0.977 -1.0677 -0.5664  0.8666
 5045TIP3   OH236625   6.545   0.382  14.178 -0.3341 -0.9773  0.6006
 5045TIP3    H136626   6.529   0.362  14.086 -1.3646  1.2630  0.2860
 5045TIP3    H236627   6.462   0.416  14.211  0.6540  0.3780  1.7702
 5046TIP3   OH236628   5.931   4.858   0.258  0.9194 -0.1543  0.4912
 5046TIP3    H136629   5.880   4.839   0.337 -1.1916  0.8262 -0.6096
 5046TIP3    H236630   6.020   4.873   0.291  0.1826 -0.2293  2.6288
 5047TIP3   OH236631   2.205   4.431   2.437  0.2952  0.2091  0.1216
 5047TIP3    H136632   2.229   4.417   2.529 -0.3724 -2.2290 -0.0384
 5047TIP3    H236633   2.113   4.457   2.440 -0.1402 -1.2931  0.0707
 5048TIP3   OH236634   3.580   6.262   3.033 -0.4628 -0.2338 -0.9924
 5048TIP3    H136635   3.626   6.244   2.950  2.6486  1.6477  0.2431
 5048TIP3    H236636   3.589   6.181   3.083  0.6714 -0.2223 -1.1584
 5049TIP3   OH236637   3.312   5.419   0.105 -0.4605 -0.2352  0.4599
 5049TIP3    H136638   3.259   5.412   0.026  2.1445 -0.0211 -1.3631
 5049TIP3    H236639   3.353   5.505   0.100  1.0729 -0.9002  1.1573
 5050TIP3   OH236640   1.412   5.066  11.722 -0.4323  0.0785 -0.3812
 5050TIP3    H136641   1.436   5.140  11.667  1.0414 -0.2814 -0.2462
 5050TIP3    H236642   1.496   5.029  11.750 -1.1406 -1.6910 -0.5269
 5051TIP3   OH236643   0.660   3.832   1.944  0.7518 -0.1486  0.3234
 5051TIP3    H136644   0.747   3.802   1.969  1.6727  0.5511 -1.8547
 5051TIP3    H236645   0.663   3.836   1.848 -1.2848  1.0439  0.2800
 5052TIP3   OH236646   4.335   0.592  10.885  0.4782 -0.4033 -0.4411
 5052TIP3    H136647   4.292   0.660  10.833  0.9184 -0.1875 -0.5199
 5052TIP3    H236648   4.263   0.545  10.927  0.2852  1.6590  1.5868
 5053TIP3   OH236649   3.754   3.218   2.963 -0.5565 -0.0052  0.3015
 5053TIP3    H136650   3.738   3.296   3.016  1.1674 -0.6815  1.8508
 5053TIP3    H236651   3.807   3.249   2.889 -0.6096  0.4446  0.4516
 5054TIP3   OH236652   1.587   3.806  17.284 -0.7059  0.6443 -0.2171
 5054TIP3    H136653   1.591   3.848  17.369 -0.9430  1.4885 -0.6197
 5054TIP3    H236654   1.566   3.715  17.303  1.0750  0.4124  0.7363
 5055TIP3   OH236655   6.032   4.768  10.594 -0.2037  0.0698 -0.5719
 5055TIP3    H136656   6.100   4.731  10.650  0.5355  0.8881 -0.9117
 5055TIP3    H236657   6.055   4.739  10.505  0.0983  0.8959 -0.7763
 5056TIP3   OH236658   0.386   0.088  14.756 -0.3662 -0.1070 -0.7631
 5056TIP3    H136659   0.338   0.007  14.775  0.4174 -0.2806  0.5670
 5056TIP3    H236660   0.432   0.107  14.837 -0.7257  1.8129 -0.9937
 5057TIP3   OH236661   5.993   3.398   1.591 -0.0022  0.9781 -0.5958
 5057TIP3    H136662   5.984   3.414   1.497 -0.4207  0.2865 -0.6801
 5057TIP3    H236663   5.984   3.303   1.600 -0.0295  1.0470  0.1495
 5058TIP3   OH236664   1.236   6.598   4.870 -0.2604 -0.3495 -0.6428
 5058TIP3    H136665   1.265   6.556   4.789  0.0806 -2.1806  0.3993
 5058TIP3    H236666   1.142   6.579   4.873 -0.2922 -0.1909 -0.6766
 5059TIP3   OH236667   5.841   4.715  15.573 -0.0624  0.3761  0.4668
 5059TIP3    H136668   5.935   4.734  15.573 -0.2445  1.3190 -0.0160
 5059TIP3    H236669   5.826   4.670  15.490 -0.4514  2.4401 -0.6136
 5060TIP3   OH236670   1.132   2.002   1.513  0.4256  0.2754 -0.2468
 5060TIP3    H136671   1.107   2.009   1.605 -0.9353 -1.9517 -0.4031
 5060TIP3    H236672   1.082   2.071   1.469  1.7591  1.9185  0.7924
 5061TIP3   OH236673   2.040   5.071  14.851 -0.7031  0.5950 -0.6371
 5061TIP3    H136674   2.014   5.162  14.837  2.1511  1.4058 -1.0598
 5061TIP3    H236675   2.135   5.071  14.838 -0.4938 -2.2331  0.5023
 5062TIP3   OH236676   0.727   0.055  13.698  0.5976  0.0637  0.1921
 5062TIP3    H136677   0.720  -0.012  13.767  0.4658 -1.8721 -1.6599
 5062TIP3    H236678   0.811   0.037  13.656 -0.8713 -0.9575 -2.3767
 5063TIP3   OH236679   2.513   4.401  16.470  0.1396  0.4137  0.5669
 5063TIP3    H136680   2.423   4.415  16.499  0.2031 -0.9894  1.4829
 5063TIP3    H236681   2.531   4.474  16.410 -1.4642  0.9157  0.6858
 5064TIP3   OH236682   6.048   6.518  11.514 -0.4665 -0.4075 -0.5203
 5064TIP3    H136683   6.008   6.431  11.516 -1.6720  0.1623  0.3124
 5064TIP3    H236684   6.138   6.503  11.544 -0.8959 -1.2688  0.3783
 5065TIP3   OH236685   0.470   2.497   2.590  0.4357 -0.0457  0.0188
 5065TIP3    H136686   0.484   2.590   2.571  0.5840  0.3289  1.8860
 5065TIP3    H236687   0.403   2.497   2.658 -3.4600 -1.5311 -3.5811
 5066TIP3   OH236688   3.761   3.775  14.069 -0.0797  0.0820 -0.5243
 5066TIP3    H136689   3.755   3.763  13.974 -1.4883 -1.6421 -0.2333
 5066TIP3    H236690   3.815   3.702  14.099 -0.0632  0.3346  0.0626
 5067TIP3   OH236691   1.787   0.144  14.842 -0.2552 -0.3466 -0.7405
 5067TIP3    H136692   1.859   0.156  14.904 -2.0357  0.2573  1.2881
 5067TIP3    H236693   1.767   0.050  14.845  0.2452 -0.4612 -1.0644
 5068TIP3   OH236694   5.910   6.362   1.786 -0.7009 -0.0043 -0.0977
 5068TIP3    H136695   5.890   6.449   1.750  0.1563 -0.0948 -0.8172
 5068TIP3    H236696   5.833   6.309   1.766  0.1019 -0.2770 -2.5706
 5069TIP3   OH236697   2.574   4.464   0.280 -0.4081  0.2501  0.5008
 5069TIP3    H136698   2.505   4.398   0.275 -1.1270  0.9839  0.5228
 5069TIP3    H236699   2.655   4.414   0.291 -0.5512 -0.7524 -2.6365
 5070TIP3   OH236700   0.661   4.834  14.180  0.3706 -0.0807 -0.7605
 5070TIP3    H136701   0.571   4.802  14.185  1.4790 -3.6988 -2.0783
 5070TIP3    H236702   0.680   4.836  14.086  1.1986  2.1340 -0.5676
 5071TIP3   OH236703   5.632   4.275   3.840  0.2373 -0.1593  0.4153
 5071TIP3    H136704   5.622   4.262   3.935 -0.4319  0.3501  0.4113
 5071TIP3    H236705   5.678   4.196   3.811 -1.3266 -1.2675  0.8572
 5072TIP3   OH236706   0.388   2.844  11.502 -0.7357  0.5219  0.3720
 5072TIP3    H136707   0.439   2.924  11.491 -0.7340  0.5164  0.3385
 5072TIP3    H236708   0.440   2.776  11.459 -0.2881  0.3232  1.2221
 5073TIP3   OH236709   5.552   2.954  11.264 -0.2944  0.1940  0.1240
 5073TIP3    H136710   5.539   2.863  11.239 -1.7481  0.4350 -0.0883
 5073TIP3    H236711   5.524   3.005  11.187  2.0507  0.7903 -0.3549
 5074TIP3   OH236712   5.269   2.155   0.302  0.1282  0.2496  0.0515
 5074TIP3    H136713   5.178   2.169   0.328 -0.5744 -2.7725 -0.5990
 5074TIP3    H236714   5.268   2.162   0.206  0.5365  0.0200  0.0267
 5075TIP3   OH236715   0.377   3.773   1.245  0.4017 -0.6510 -0.7645
 5075TIP3    H136716   0.327   3.817   1.176  1.5270  2.3921  0.2750
 5075TIP3    H236717   0.449   3.731   1.199  1.2367  1.4804 -1.5012
 5076TIP3   OH236718   0.122   4.201  13.444 -0.2237  0.1634 -0.6477
 5076TIP3    H136719   0.158   4.140  13.508  0.1149  0.8154 -0.2226
 5076TIP3    H236720   0.029   4.208  13.467 -0.7631 -1.8931 -2.0352
 5077TIP3   OH236721   2.070   1.696   2.683  0.3948  0.3587 -0.4136
 5077TIP3    H136722   2.051   1.604   2.700 -0.8719  0.6843  0.0243
 5077TIP3    H236723   2.056   1.739   2.768  2.9990  0.6701 -0.0932
 5078TIP3   OH236724   2.977   2.775  17.260 -0.0024  0.3599 -0.6095
 5078TIP3    H136725   3.034   2.701  17.242  1.2095  1.2945 -0.6434
 5078TIP3    H236726   2.912   2.772  17.189  0.2695 -0.4321 -0.8333
 5079TIP3   OH236727   5.165   5.588   0.492  0.0381  0.5120  0.4409
 5079TIP3    H136728   5.091   5.605   0.433 -1.0383  0.7413  1.8240
 5079TIP3    H236729   5.242   5.613   0.442 -0.8826  1.0175 -0.7510
 5080TIP3   OH236730   2.952   6.337   0.033 -0.0269  0.1641  0.5307
 5080TIP3    H136731   2.860   6.361   0.038  0.2561  1.0268  1.6702
 5080TIP3    H236732   2.995   6.393   0.097  0.8806 -2.1920  2.0336
 5081TIP3   OH236733   6.046   5.274  16.446 -0.5239  0.2173  0.8712
 5081TIP3    H136734   6.031   5.270  16.352  0.5799 -1.1774  0.7459
 5081TIP3    H236735   6.024   5.364  16.470  1.2184  1.1749 -1.0718
 5082TIP3   OH236736   2.675   5.474  16.926 -0.0515  0.4488  0.4024
 5082TIP3    H136737   2.614   5.454  16.998  0.1135 -1.2539  0.1040
 5082TIP3    H236738   2.725   5.393  16.915  0.6314  1.0463 -0.9451
 5083TIP3   OH236739   3.303   6.688   2.650 -0.6177  0.1815 -0.3720
 5083TIP3    H136740   3.307   6.635   2.571 -2.1835 -0.2309 -0.2067
 5083TIP3    H236741   3.235   6.753   2.631 -0.1203  0.8613  0.1693
 5084TIP3   OH236742   1.111   4.118   4.062 -0.0468 -0.3453  0.3735
 5084TIP3    H136743   1.159   4.058   4.005 -0.9112  1.8279 -2.7865
 5084TIP3    H236744   1.019   4.104   4.038 -0.3574  1.1658  0.6883
 5085TIP3   OH236745   4.742   5.264  13.375  0.5686  0.0617 -0.0456
 5085TIP3    H136746   4.649   5.279  13.392  0.4156  3.3927 -3.1615
 5085TIP3    H236747   4.749   5.170  13.360 -2.5307 -0.0945 -0.8566
 5086TIP3   OH236748   0.285   0.096   5.489 -0.2940  0.4384  0.6182
 5086TIP3    H136749   0.287   0.190   5.472  1.2279  0.0020 -1.9062
 5086TIP3    H236750   0.318   0.087   5.579 -0.4076  2.3092  0.8645
 5087TIP3   OH236751   0.102   5.029   1.594  0.0123  0.1995  0.3468
 5087TIP3    H136752   0.061   4.963   1.649 -0.0804  0.6359  0.8080
 5087TIP3    H236753   0.191   4.997   1.580  0.4375  0.6995  1.8045
 5088TIP3   OH236754   0.981   2.596  12.433 -0.4349  0.3108  0.4402
 5088TIP3    H136755   1.073   2.589  12.460 -0.5916 -2.4739  0.3615
 5088TIP3    H236756   0.980   2.562  12.343 -1.5762  0.1770  0.5017
 5089TIP3   OH236757   0.086   3.996   1.721  0.0722  0.6095  0.3204
 5089TIP3    H136758   0.153   4.013   1.788 -0.4142  1.9054  0.5133
 5089TIP3    H236759   0.115   3.916   1.677  1.5843  0.9799  0.5989
 5090TIP3   OH236760   0.825   0.904  11.755  0.0264  0.4999 -0.7401
 5090TIP3    H136761   0.822   0.974  11.690 -0.0882  2.2034  1.0629
 5090TIP3    H236762   0.748   0.919  11.810  0.6616 -0.3414  0.3822
 5091TIP3   OH236763   4.769   0.513   2.199  0.0255 -1.0698 -0.2335
 5091TIP3    H136764   4.765   0.466   2.282 -0.5005 -1.9671 -0.7617
 5091TIP3    H236765   4.848   0.567   2.206 -0.0063 -1.1584  0.8339
 5092TIP3   OH236766   4.843   0.310   3.697  0.4338  0.2819  0.4286
 5092TIP3    H136767   4.816   0.311   3.789  0.2895  1.6778  0.3871
 5092TIP3    H236768   4.939   0.315   3.701  0.4810 -0.5518  0.5058
 5093TIP3   OH236769   1.146   1.390   0.477 -0.6582  0.1904  0.0231
 5093TIP3    H136770   1.163   1.431   0.562  2.2336  0.1111 -0.4593
 5093TIP3    H236771   1.187   1.304   0.484 -0.6326  0.0878 -1.3472
 5094TIP3   OH236772   4.347   0.593  11.995  0.2900  0.2680 -0.1030
 5094TIP3    H136773   4.439   0.578  12.015  0.0496 -1.7171 -0.3933
 5094TIP3    H236774   4.325   0.526  11.931 -1.7849 -0.2942  1.1617
 5095TIP3   OH236775   4.124   1.572  12.269  0.5094  0.0913 -0.4930
 5095TIP3    H136776   4.083   1.587  12.184  1.3852  2.3632 -0.5520
 5095TIP3    H236777   4.096   1.646  12.323  1.2244 -0.4980  0.7235
 5096TIP3   OH236778   6.153   6.695  16.460 -0.2753  0.3832  0.2396
 5096TIP3    H136779   6.070   6.692  16.412  0.1247  1.1633 -0.5159
 5096TIP3    H236780   6.129   6.672  16.550 -1.4388  1.3003  0.1873
 5097TIP3   OH236781   5.102   6.284  15.016  0.4289 -0.0755 -0.0187
 5097TIP3    H136782   5.042   6.310  15.085 -0.8045 -1.5645 -0.4989
 5097TIP3    H236783   5.091   6.351  14.948  0.2228  0.3302  0.4162
 5098TIP3   OH236784   1.751   4.285   6.670  0.4151  0.1434  0.2627
 5098TIP3    H136785   1.667   4.268   6.627  1.4254 -2.8556 -0.6462
 5098TIP3    H236786   1.736   4.260   6.761  0.0027  0.7700  0.3746
 5099TIP3   OH236787   2.144   0.835  10.540 -0.8520  0.2236 -0.2048
 5099TIP3    H136788   2.225   0.836  10.592 -0.4570  1.3398 -0.8111
 5099TIP3    H236789   2.115   0.744  10.542  0.1438 -0.0913  0.4580
 5100TIP3   OH236790   2.130   1.948  17.044 -0.0559 -0.3311  0.3795
 5100TIP3    H136791   2.128   1.864  17.089  2.0093 -0.5263  0.1581
 5100TIP3    H236792   2.135   2.013  17.114 -2.1826 -0.3493  0.5677
 5101TIP3   OH236793   3.494   2.213  14.143 -0.1433  0.1900  0.8046
 5101TIP3    H136794   3.403   2.189  14.125  0.2818 -0.7411 -0.1549
 5101TIP3    H236795   3.511   2.178  14.231 -0.7003  0.3381  0.9725
 5102TIP3   OH236796   6.729   5.329   1.720 -0.4010 -0.1093  0.2611
 5102TIP3    H136797   6.752   5.247   1.764 -2.6536 -1.3291 -0.7701
 5102TIP3    H236798   6.791   5.335   1.647  0.6483 -0.1824  1.1264
 5103TIP3   OH236799   0.691   0.279   1.776  0.1714  0.1876 -0.2144
 5103TIP3    H136800   0.745   0.280   1.855  0.5987  0.9943 -0.5176
 5103TIP3    H236801   0.605   0.309   1.806 -0.5122 -2.4339  0.5491
 5104TIP3   OH236802   2.353   2.308  16.270 -0.1833  0.5288  0.3416
 5104TIP3    H136803   2.410   2.325  16.195  0.4922  0.2022  0.7820
 5104TIP3    H236804   2.364   2.384  16.326 -2.4400  1.8598 -0.9625
 5105TIP3   OH236805   5.468   0.195  13.181  0.4154 -0.4629  0.2785
 5105TIP3    H136806   5.554   0.237  13.177  0.4459 -0.6082 -0.8614
 5105TIP3    H236807   5.423   0.238  13.254  1.5025 -0.4791  0.9608
 5106TIP3   OH236808   2.154   1.216   3.995  0.1211  0.3233  0.0918
 5106TIP3    H136809   2.153   1.130   3.953 -0.7040 -0.4882  1.7518
 5106TIP3    H236810   2.232   1.258   3.959  0.9328 -1.3799 -0.2216
 5107TIP3   OH236811   5.095   0.406  14.825 -0.5544  0.1042  0.1944
 5107TIP3    H136812   5.031   0.400  14.896 -0.1998  0.1012  0.5104
 5107TIP3    H236813   5.099   0.317  14.789  0.3435 -0.2268  1.1054
 5108TIP3   OH236814   5.034   3.660  13.472  1.3494 -0.3231  0.0152
 5108TIP3    H136815   4.973   3.690  13.540  0.6164 -0.7482 -0.4506
 5108TIP3    H236816   5.031   3.729  13.405  2.2306  0.1980  0.4988
 5109TIP3   OH236817   0.458   1.120   4.227 -0.1773 -0.1513 -0.1431
 5109TIP3    H136818   0.461   1.164   4.312 -0.0384 -2.3605  1.0240
 5109TIP3    H236819   0.382   1.157   4.183 -1.3209 -0.3075  1.6765
 5110TIP3   OH236820   1.929   6.029  12.546 -0.0020  0.1845  0.0740
 5110TIP3    H136821   1.992   6.057  12.612  0.8348 -1.6659  0.0952
 5110TIP3    H236822   1.970   5.953  12.504 -1.1686  0.4166 -1.5598
 5111TIP3   OH236823   4.909   1.212   0.885 -0.2209 -0.6094  0.4477
 5111TIP3    H136824   4.960   1.261   0.949 -0.7712 -0.0421  0.4532
 5111TIP3    H236825   4.863   1.279   0.835  1.0216 -0.9636 -1.2547
 5112TIP3   OH236826   0.853   5.134  12.674  0.6939 -0.1613 -0.3115
 5112TIP3    H136827   0.903   5.132  12.755 -1.1960  2.1673  0.9815
 5112TIP3    H236828   0.908   5.182  12.612  0.2032  2.2640  1.0581
 5113TIP3   OH236829   0.939   1.155   2.604 -0.2428 -0.1548 -0.1911
 5113TIP3    H136830   0.847   1.143   2.582 -0.3488  0.0979  0.1072
 5113TIP3    H236831   0.983   1.079   2.567 -0.0770  1.3805 -3.3368
 5114TIP3   OH236832   0.589   6.770   4.922 -0.0484 -0.2046  0.0039
 5114TIP3    H136833   0.656   6.742   4.984  0.3158 -1.6592 -1.0198
 5114TIP3    H236834   0.565   6.858   4.951  0.1250 -0.8456  2.1968
 5115TIP3   OH236835   4.407   5.528  14.307  0.0704 -0.1171  0.0095
 5115TIP3    H136836   4.392   5.445  14.353 -0.9756 -0.0957 -0.2771
 5115TIP3    H236837   4.357   5.592  14.357 -0.2468  0.0925 -0.5792
 5116TIP3   OH236838   0.902   0.193   3.244  0.5029 -0.1555 -0.4143
 5116TIP3    H136839   0.862   0.247   3.175  1.5105  0.4138 -0.5534
 5116TIP3    H236840   0.995   0.212   3.239  1.0274 -2.6439 -1.1096
 5117TIP3   OH236841   3.433   2.643  16.088 -0.3859 -0.0219 -0.1045
 5117TIP3    H136842   3.468   2.620  16.174 -0.8819  4.3770  1.4069
 5117TIP3    H236843   3.510   2.654  16.033  0.0379 -0.9000  0.3024
 5118TIP3   OH236844   6.269   4.658  13.419  0.4327  0.0475 -0.3857
 5118TIP3    H136845   6.223   4.678  13.500  3.2111  0.1212  1.2510
 5118TIP3    H236846   6.267   4.563  13.412  1.2913 -0.0531  0.5036
 5119TIP3   OH236847   5.679   2.127   6.354 -0.4568  0.4403  0.1571
 5119TIP3    H136848   5.648   2.039   6.376 -0.0479  0.2757  0.0767
 5119TIP3    H236849   5.608   2.185   6.382  0.2061  0.2585  2.2872
 5120TIP3   OH236850   2.272   1.299  11.443 -0.0387  0.0829  0.6354
 5120TIP3    H136851   2.280   1.308  11.538 -3.0655  0.9849  0.8677
 5120TIP3    H236852   2.203   1.361  11.418  0.0055 -0.8398 -2.0072
 5121TIP3   OH236853   2.908   0.498  14.348  0.0375 -0.1102  0.0047
 5121TIP3    H136854   2.975   0.500  14.280  0.1430  0.8181  0.1312
 5121TIP3    H236855   2.868   0.584  14.346 -1.1384 -0.6414 -0.0347
 5122TIP3   OH236856   4.793   3.354   3.300 -0.2882 -0.3086 -0.4741
 5122TIP3    H136857   4.827   3.325   3.215  0.0245 -0.7589 -0.1961
 5122TIP3    H236858   4.701   3.328   3.298 -0.7915  1.4478 -1.4668
 5123TIP3   OH236859   5.319   2.466  15.331  0.7149  0.0639  0.1488
 5123TIP3    H136860   5.282   2.394  15.383  1.6381 -0.6429 -0.1711
 5123TIP3    H236861   5.397   2.429  15.290  0.6215  0.9570 -0.8436
 5124TIP3   OH236862   3.132   6.489  11.300  0.2683  0.5127  0.2286
 5124TIP3    H136863   3.119   6.431  11.224  2.8492 -3.0394  2.3190
 5124TIP3    H236864   3.081   6.449  11.370  2.1745  0.6290  1.7324
 5125TIP3   OH236865   5.991   3.834  15.567 -0.0664 -0.3130  0.6077
 5125TIP3    H136866   5.938   3.760  15.595  0.1258 -1.5116 -2.0327
 5125TIP3    H236867   5.928   3.895  15.528 -0.0191  0.1621  1.2710
 5126TIP3   OH236868   2.080   5.322   6.816 -0.2733 -0.0159  0.1571
 5126TIP3    H136869   2.161   5.302   6.862 -0.5557 -0.0375  0.6555
 5126TIP3    H236870   2.018   5.254   6.845 -0.3387 -0.2698 -0.5688
 5127TIP3   OH236871   0.781   5.503  13.612  0.7995 -0.1313 -0.6420
 5127TIP3    H136872   0.869   5.526  13.642  1.6612 -3.6691 -0.2800
 5127TIP3    H236873   0.776   5.408  13.622 -1.9550 -0.3888 -3.6426
 5128TIP3   OH236874   2.598   0.411   1.075  0.3441  0.0956 -0.4038
 5128TIP3    H136875   2.505   0.395   1.093  0.3377  0.2643 -0.2846
 5128TIP3    H236876   2.603   0.505   1.057  0.6959  0.3377  0.9038
 5129TIP3   OH236877   1.991   1.801  12.948 -0.3445  0.1034  0.3357
 5129TIP3    H136878   2.028   1.818  13.034  0.7401 -1.5766  0.2286
 5129TIP3    H236879   1.991   1.886  12.904  0.9089  0.6135  1.3062
 5130TIP3   OH236880   3.763   2.395  14.815  0.2399 -0.6252  0.5157
 5130TIP3    H136881   3.844   2.404  14.765 -0.8775 -0.7463 -1.4004
 5130TIP3    H236882   3.732   2.307  14.794 -0.9066 -0.2003  0.3845
 5131TIP3   OH236883   2.532   0.202   5.282  0.2289  0.3264  0.4790
 5131TIP3    H136884   2.626   0.199   5.302  0.1861  1.1313  0.7976
 5131TIP3    H236885   2.496   0.125   5.327  0.7670 -0.1149  0.1643
 5132TIP3   OH236886   5.970   5.692  13.187  0.0237  0.2048 -0.0737
 5132TIP3    H136887   5.897   5.655  13.236  1.7077  1.4676  3.5326
 5132TIP3    H236888   6.041   5.699  13.250  1.9688  2.9935 -2.4143
 5133TIP3   OH236889   0.016   5.289  11.182 -0.3287  0.7652  0.0157
 5133TIP3    H136890  -0.072   5.265  11.153 -0.5107  1.6386 -0.1493
 5133TIP3    H236891   0.067   5.209  11.170 -0.9441  0.4422 -0.5117
 5134TIP3   OH236892   2.467   2.592  15.711 -0.1097  0.1995  0.1584
 5134TIP3    H136893   2.535   2.584  15.645  0.3219  0.3822  0.5764
 5134TIP3    H236894   2.443   2.685  15.709  1.2393  0.5916  1.5718
 5135TIP3   OH236895   2.545   4.716   4.271 -0.0671  0.4717 -0.5437
 5135TIP3    H136896   2.563   4.810   4.273 -0.1232  0.4612  0.9193
 5135TIP3    H236897   2.565   4.689   4.181  2.4893  1.3722 -0.2715
 5136TIP3   OH236898   4.904   1.885  11.736  0.0132 -0.4179 -0.2538
 5136TIP3    H136899   4.992   1.858  11.763  0.5889  1.3722 -0.3104
 5136TIP3    H236900   4.896   1.976  11.765 -1.8484 -0.5692 -0.2017
 5137TIP3   OH236901   0.315   2.524   0.639 -0.0223  0.2149  0.6181
 5137TIP3    H136902   0.344   2.457   0.699  0.9516  0.5243  0.5078
 5137TIP3    H236903   0.219   2.527   0.649 -0.4959 -3.4464 -1.7398
 5138TIP3   OH236904   3.543   3.043   5.758 -0.6087 -0.1258 -0.0485
 5138TIP3    H136905   3.478   3.095   5.710 -1.0891 -0.7313 -0.0594
 5138TIP3    H236906   3.544   3.081   5.846 -1.8604 -0.8683  0.3030
 5139TIP3   OH236907   6.511   1.390  17.280  0.4565 -0.5832 -0.5028
 5139TIP3    H136908   6.547   1.427  17.360 -0.6568  0.2565 -0.3823
 5139TIP3    H236909   6.550   1.303  17.274  0.4018 -0.7217  1.0456
 5140TIP3   OH236910   0.887   1.205  12.788  0.1131 -0.3695 -0.2770
 5140TIP3    H136911   0.879   1.248  12.703 -1.1801  1.7128  0.8414
 5140TIP3    H236912   0.960   1.250  12.831 -0.4809 -0.0948  0.4501
 5141TIP3   OH236913   1.294   2.813  16.866 -0.0600  0.4146 -0.5336
 5141TIP3    H136914   1.259   2.894  16.830  2.1257  1.2787 -0.7907
 5141TIP3    H236915   1.304   2.755  16.790 -0.5319  0.3152 -0.5179
 5142TIP3   OH236916   0.109   0.062   4.407 -0.3689  0.0351 -0.6587
 5142TIP3    H136917   0.134   0.131   4.468  1.8825 -0.2862 -1.1606
 5142TIP3    H236918   0.033   0.097   4.360 -2.1389  0.2820  2.2709
 5143TIP3   OH236919   1.278   2.475   4.191  0.5181 -0.3213 -0.1356
 5143TIP3    H136920   1.286   2.513   4.278 -1.1258  1.2617 -0.6270
 5143TIP3    H236921   1.325   2.536   4.133 -1.5210  0.6422 -0.8320
 5144TIP3   OH236922   1.094   3.537   3.248 -0.9136 -0.2278 -0.4167
 5144TIP3    H136923   1.085   3.453   3.203  2.0153  0.4208 -2.3775
 5144TIP3    H236924   1.045   3.599   3.193  0.5255  0.0986 -1.3566
 5145TIP3   OH236925   5.767   6.132  12.677 -0.4939 -0.0487 -0.5490
 5145TIP3    H136926   5.744   6.039  12.678 -1.4439  0.1846  0.1016
 5145TIP3    H236927   5.829   6.143  12.748 -2.3938  0.2946  1.1009
 5146TIP3   OH236928   1.667   0.913   1.104  0.1539  0.8749  0.3010
 5146TIP3    H136929   1.697   0.836   1.057  1.8933 -0.7959  3.8851
 5146TIP3    H236930   1.572   0.912   1.095  0.1280 -1.8848  0.5072
 5147TIP3   OH236931   4.857   1.791  15.874  0.8731 -0.1101  0.3155
 5147TIP3    H136932   4.807   1.740  15.939  0.2583  1.1517  0.8417
 5147TIP3    H236933   4.797   1.799  15.800 -0.0241  2.0621  1.2447
 5148TIP3   OH236934   6.815   2.265   4.977 -0.1513  0.2065  0.2717
 5148TIP3    H136935   6.833   2.197   5.042  1.4234  0.3356  0.0125
 5148TIP3    H236936   6.741   2.314   5.012 -1.4505 -1.7839  0.3399
 5149TIP3   OH236937   1.931   4.082  17.276  0.0614 -0.7985 -0.9347
 5149TIP3    H136938   1.940   4.146  17.347  0.0024 -2.5665  0.6996
 5149TIP3    H236939   2.007   4.097  17.220  0.8363 -0.2870  0.2406
 5150TIP3   OH236940   1.782   3.106  12.908 -0.0314  0.0760 -0.4733
 5150TIP3    H136941   1.741   3.132  12.826  1.2438  0.6213 -0.9456
 5150TIP3    H236942   1.789   3.011  12.902 -2.1129 -0.1474  0.0476
 5151TIP3   OH236943   5.965   4.894   1.200 -0.2290  0.1703 -0.1360
 5151TIP3    H136944   5.963   4.805   1.235 -2.2294  0.2292 -0.0532
 5151TIP3    H236945   5.945   4.950   1.274  0.4651  0.6683 -0.3149
 5152TIP3   OH236946   2.630   2.673   2.441 -0.4984  0.0295  0.1256
 5152TIP3    H136947   2.614   2.650   2.532  0.4917 -1.7378 -0.1386
 5152TIP3    H236948   2.718   2.711   2.440 -0.7758  0.6773  0.0112
 5153TIP3   OH236949   1.767   1.134  15.596 -0.5802  0.3504  0.1601
 5153TIP3    H136950   1.749   1.089  15.679  2.4172  1.3413  1.4422
 5153TIP3    H236951   1.759   1.227  15.617 -2.2451  0.5542 -1.3205
 5154TIP3   OH236952   6.459   6.784   5.660 -0.4589  0.5778  0.1459
 5154TIP3    H136953   6.426   6.723   5.594 -0.0224  0.2773  0.2084
 5154TIP3    H236954   6.383   6.801   5.716 -0.8648  0.9220 -0.4923
 5155TIP3   OH236955   6.493   1.867   0.356 -0.0381 -0.3537 -0.4381
 5155TIP3    H136956   6.464   1.953   0.387 -1.2128 -0.8872 -0.0259
 5155TIP3    H236957   6.532   1.825   0.432  1.1656  0.0676 -0.8082
 5156TIP3   OH236958   3.260   6.398   0.940  0.1280  0.0721 -0.4561
 5156TIP3    H136959   3.285   6.334   0.874 -0.8523 -2.3074  1.4022
 5156TIP3    H236960   3.340   6.413   0.991  0.1061 -0.4744 -0.2574
 5157TIP3   OH236961   0.451   2.042  11.996  0.0630 -0.2770  0.5340
 5157TIP3    H136962   0.389   2.076  11.931  0.1053 -2.2883 -0.6096
 5157TIP3    H236963   0.530   2.094  11.983 -0.8385  1.2132  0.9010
 5158TIP3   OH236964   2.703   1.226   1.672  0.2310  0.0778 -0.6186
 5158TIP3    H136965   2.768   1.183   1.729  0.4217  1.7157  0.4306
 5158TIP3    H236966   2.710   1.319   1.694 -1.0666  0.5035 -1.9556
 5159TIP3   OH236967   1.753   1.674   0.445 -0.7034 -0.0718  0.0325
 5159TIP3    H136968   1.663   1.693   0.419 -0.5894  0.2555 -0.1235
 5159TIP3    H236969   1.789   1.758   0.471  0.4363  0.3280 -2.5998
 5160TIP3   OH236970   4.625   5.871  11.418 -0.0067 -0.1829 -0.0283
 5160TIP3    H136971   4.700   5.868  11.478  0.9316  2.0953 -1.0378
 5160TIP3    H236972   4.559   5.922  11.464 -1.1346 -2.4959  1.0114
 5161TIP3   OH236973   4.089   5.075  14.861  0.5075  0.0692  0.3051
 5161TIP3    H136974   4.169   5.032  14.892 -0.1250 -0.6494  0.9408
 5161TIP3    H236975   4.028   5.004  14.844 -0.5266  0.7090  1.2937
 5162TIP3   OH236976   1.045   5.887  14.518 -0.0364 -0.1758 -0.7988
 5162TIP3    H136977   1.001   5.806  14.543  0.3407 -0.2861 -0.4761
 5162TIP3    H236978   1.017   5.951  14.583  1.7766 -0.7280  0.5666
 5163TIP3   OH236979   6.570   0.666  17.164  0.9410  0.1480 -0.3684
 5163TIP3    H136980   6.508   0.610  17.211  0.6848 -1.1509 -2.1599
 5163TIP3    H236981   6.515   0.717  17.104  1.2276  1.9973  0.9086
 5164TIP3   OH236982   1.414   4.226   3.953 -0.6551 -0.2580  0.0999
 5164TIP3    H136983   1.419   4.158   4.020 -0.4226 -0.0473  0.2992
 5164TIP3    H236984   1.351   4.193   3.889  0.1350 -1.0583 -0.2671
 5165TIP3   OH236985   2.665   6.558   6.061  0.1144  0.4830 -0.2706
 5165TIP3    H136986   2.574   6.561   6.031  0.3700  0.8631 -1.0297
 5165TIP3    H236987   2.659   6.551   6.156 -0.7217 -0.9852 -0.4195
 5166TIP3   OH236988   3.014   4.765   1.685  0.1847 -0.4263 -0.0516
 5166TIP3    H136989   3.072   4.713   1.742  2.7244  0.9133 -1.3095
 5166TIP3    H236990   3.070   4.836   1.653 -2.9698  2.5452  0.8505
 5167TIP3   OH236991   0.754   2.001   0.255 -0.0992 -0.0636  0.5238
 5167TIP3    H136992   0.724   2.089   0.230 -1.2775 -0.1817  1.4632
 5167TIP3    H236993   0.689   1.942   0.217 -0.7174 -0.3635  1.9909
 5168TIP3   OH236994   4.650   1.066   5.986 -0.2110 -0.7108 -0.5883
 5168TIP3    H136995   4.614   1.152   6.009 -1.7255 -1.5310  0.1456
 5168TIP3    H236996   4.581   1.004   6.009  1.6239 -2.2989  0.7950
 5169TIP3   OH236997   3.528   2.721   3.423 -1.0332  0.0867 -0.6090
 5169TIP3    H136998   3.541   2.732   3.329  1.3753 -0.9157 -0.4240
 5169TIP3    H236999   3.477   2.798   3.450 -1.8557  0.3109 -2.7219
 5170TIP3   OH237000   4.671   6.070   6.131  0.1753 -0.4014 -0.1572
 5170TIP3    H137001   4.635   6.088   6.044  2.7260 -1.4200 -1.4955
 5170TIP3    H237002   4.765   6.063   6.116  0.6442 -0.6334  2.7061
 5171TIP3   OH237003   2.210   0.992  13.800  0.8644  0.1243 -0.6262
 5171TIP3    H137004   2.135   1.000  13.741  0.4811 -2.0597 -0.4634
 5171TIP3    H237005   2.279   0.951  13.748  0.9613 -0.6071  0.0645
 5172TIP3   OH237006   5.112   5.017  12.505  0.1935  0.3783 -0.5060
 5172TIP3    H137007   5.070   5.098  12.474 -1.3487 -0.0092  0.5124
 5172TIP3    H237008   5.132   5.034  12.597 -0.0920 -0.3776 -0.3019
 5173TIP3   OH237009   4.223   4.382  12.828 -0.2444  0.0300 -0.4748
 5173TIP3    H137010   4.206   4.457  12.886 -1.8462 -1.2503  0.7732
 5173TIP3    H237011   4.177   4.403  12.747 -0.7560  0.3770 -0.0999
 5174TIP3   OH237012   0.965   6.120   5.171  0.1616  0.8566  0.4046
 5174TIP3    H137013   0.988   6.035   5.133 -1.4317  0.7576 -0.3994
 5174TIP3    H237014   0.962   6.180   5.096  0.0695  1.3481  0.7991
 5175TIP3   OH237015   5.533   3.573   5.679  0.0169  0.2329  0.2206
 5175TIP3    H137016   5.484   3.653   5.700 -0.1158  0.1399  0.2735
 5175TIP3    H237017   5.605   3.572   5.742 -1.0205 -0.6181  1.4215
 5176TIP3   OH237018   1.795   1.861  13.136  0.3458 -0.5314 -0.1178
 5176TIP3    H137019   1.846   1.814  13.070  3.3727 -0.9604  2.3734
 5176TIP3    H237020   1.763   1.793  13.195  0.4360  0.1048  0.6732
 5177TIP3   OH237021   4.533   2.006  13.778 -0.5890 -0.3653  0.1881
 5177TIP3    H137022   4.507   2.067  13.709 -1.8491  0.1341  1.0915
 5177TIP3    H237023   4.628   1.997  13.768 -0.0407  3.3801  1.3316
 5178TIP3   OH237024   6.431   3.816   2.825 -0.7908  0.4464 -0.0591
 5178TIP3    H137025   6.517   3.784   2.854 -1.0687 -0.8547 -0.5972
 5178TIP3    H237026   6.394   3.860   2.901  0.1491  0.5706  0.3304
 5179TIP3   OH237027   4.071   4.649  14.171 -0.7625  0.6293 -0.0245
 5179TIP3    H137028   4.040   4.565  14.204 -0.5371  1.0636  1.3183
 5179TIP3    H237029   4.047   4.712  14.239  0.1864  1.4570 -0.4410
 5180TIP3   OH237030   3.143   0.544  16.544  0.4133 -1.1184  0.4246
 5180TIP3    H137031   3.182   0.622  16.584 -0.4865  0.3957 -1.5036
 5180TIP3    H237032   3.150   0.476  16.610  2.4071  0.2630  1.6886
 5181TIP3   OH237033   4.738   0.746  16.205  0.0780  0.5352 -0.6003
 5181TIP3    H137034   4.832   0.756  16.219  0.2008  0.6270 -1.5152
 5181TIP3    H237035   4.731   0.678  16.139 -0.5126  0.3730 -0.3745
 5182TIP3   OH237036   4.312   4.245  14.099 -0.5554  0.2722  0.3254
 5182TIP3    H137037   4.395   4.199  14.084 -1.8111 -1.8895 -0.1764
 5182TIP3    H237038   4.324   4.289  14.184  0.8480 -0.5830  0.5898
 5183TIP3   OH237039   4.838   3.425   4.073 -0.5131  0.0831  0.0675
 5183TIP3    H137040   4.835   3.520   4.077  1.0490  0.1115  0.7352
 5183TIP3    H237041   4.930   3.404   4.056 -1.0682 -1.2599 -1.4869
 5184TIP3   OH237042   2.121   3.809  17.102 -0.2141 -0.0712  0.4690
 5184TIP3    H137043   2.181   3.864  17.152 -0.5141  1.4462 -0.7905
 5184TIP3    H237044   2.172   3.732  17.080 -0.3103 -1.1854  3.7734
 5185TIP3   OH237045   1.298   2.372   5.608  0.4828  0.0160  0.0681
 5185TIP3    H137046   1.338   2.415   5.683  0.5380 -0.3176  0.2324
 5185TIP3    H237047   1.258   2.443   5.557  1.1340  0.3304 -0.0078
 5186TIP3   OH237048   4.124   6.336  14.501  0.2049  0.2709  0.1746
 5186TIP3    H137049   4.159   6.252  14.469  0.5733 -0.6191  2.7851
 5186TIP3    H237050   4.029   6.322  14.505  0.2010  0.2250 -0.0886
 5187TIP3   OH237051   5.242   6.645  12.603 -0.0306 -0.0017  0.1360
 5187TIP3    H137052   5.156   6.685  12.585  0.8766  1.1564 -1.6859
 5187TIP3    H237053   5.270   6.609  12.519  1.7164  0.5011  0.4881
 5188TIP3   OH237054   2.791   3.530  14.656 -0.0746  0.4294  0.5502
 5188TIP3    H137055   2.864   3.496  14.708  0.3216  0.1567 -0.1934
 5188TIP3    H237056   2.716   3.528  14.717  0.4376  0.3271  1.1827
 5189TIP3   OH237057   2.604   0.086   0.285 -0.3300 -0.4570  0.3711
 5189TIP3    H137058   2.651   0.161   0.323 -1.8199  0.3695  0.6182
 5189TIP3    H237059   2.512   0.114   0.282 -1.0426 -2.6163  1.3008
 5190TIP3   OH237060   1.517   0.980   4.082  0.2887  0.5861  0.2079
 5190TIP3    H137061   1.560   1.038   4.144  1.0923 -0.0987  0.2989
 5190TIP3    H237062   1.496   1.036   4.007  1.2050  0.9695  0.2277
 5191TIP3   OH237063   4.436   3.408   0.631  0.7327 -0.3689  0.6298
 5191TIP3    H137064   4.431   3.352   0.553 -1.4410  1.7456 -0.8510
 5191TIP3    H237065   4.515   3.461   0.618  0.9889 -0.8058  0.4057
 5192TIP3   OH237066   3.975   5.842  11.224  0.5555  0.1691  0.0209
 5192TIP3    H137067   3.972   5.841  11.128 -0.6193 -1.8537  0.0569
 5192TIP3    H237068   4.068   5.834  11.244  0.9612  2.0968 -0.9363
 5193TIP3   OH237069   1.718   5.823  16.088 -0.1125  0.2541  0.4531
 5193TIP3    H137070   1.631   5.858  16.069 -0.2799 -0.2080  0.3718
 5193TIP3    H237071   1.742   5.773  16.010 -0.4172 -0.8822  1.0725
 5194TIP3   OH237072   3.883   1.300  15.527  0.2469  0.1945  0.2632
 5194TIP3    H137073   3.857   1.375  15.473  0.2718 -0.6589 -0.9358
 5194TIP3    H237074   3.802   1.276  15.574  0.0346  0.4530  0.0333
 5195TIP3   OH237075   1.693   0.235  11.484 -0.0144 -0.5661 -0.0609
 5195TIP3    H137076   1.690   0.156  11.537 -2.3757 -0.1853  0.4181
 5195TIP3    H237077   1.655   0.303  11.539 -0.0991  0.4189 -1.2887
 5196TIP3   OH237078   4.980   0.214  12.053  0.2266 -0.0211 -0.1692
 5196TIP3    H137079   5.071   0.241  12.054  0.1000  0.7598 -3.0865
 5196TIP3    H237080   4.936   0.274  12.113  1.4589  0.3304  0.3865
 5197TIP3   OH237081   3.807   1.849  12.111  0.3468 -0.0811 -0.0320
 5197TIP3    H137082   3.793   1.944  12.121  0.2198 -0.0707 -0.3131
 5197TIP3    H237083   3.896   1.835  12.141  0.1749  0.0465  0.5389
 5198TIP3   OH237084   0.947   5.807  13.632 -0.0834 -0.8229  0.0339
 5198TIP3    H137085   0.861   5.847  13.623  0.5590  0.3654 -1.1058
 5198TIP3    H237086   1.008   5.881  13.634  0.7931 -1.5643  2.6636
 5199TIP3   OH237087   1.884   4.039  16.595 -0.3064  0.2216 -0.6434
 5199TIP3    H137088   1.901   3.945  16.586 -0.8106  0.0266  0.3912
 5199TIP3    H237089   1.968   4.076  16.621  0.5295  0.4304 -3.4666
 5200TIP3   OH237090   0.656   0.007  16.029 -0.2405 -0.3088  0.7045
 5200TIP3    H137091   0.718  -0.065  16.035 -0.6900 -0.5807  2.4050
 5200TIP3    H237092   0.645   0.022  15.936  2.3381 -0.2905  0.3798
 5201TIP3   OH237093   2.738   2.060  16.424  0.4032  0.0293  0.6467
 5201TIP3    H137094   2.709   2.149  16.406  1.1267  0.5567  1.9752
 5201TIP3    H237095   2.812   2.071  16.485 -0.5348 -1.5275  2.1136
 5202TIP3   OH237096   3.784   6.532  15.509 -0.1108  0.3665  0.1081
 5202TIP3    H137097   3.700   6.489  15.495 -0.1097  0.4005 -0.0065
 5202TIP3    H237098   3.792   6.539  15.604 -0.3402  0.5687  0.1124
 5203TIP3   OH237099   3.780   6.486   2.538 -0.0750  0.1945  0.1695
 5203TIP3    H137100   3.699   6.535   2.522 -0.4272 -1.0142 -1.8721
 5203TIP3    H237101   3.790   6.430   2.461  3.1407  0.8905  0.0234
 5204TIP3   OH237102   4.817   5.415  13.856 -0.5819  0.2556  0.7312
 5204TIP3    H137103   4.734   5.369  13.865  0.2407 -1.2327  1.0629
 5204TIP3    H237104   4.818   5.446  13.765 -1.4223  0.1313  0.6775
 5205TIP3   OH237105   4.068   5.638   0.018  0.5695 -0.0504  0.0172
 5205TIP3    H137106   4.076   5.542   0.015 -0.6333 -0.1241 -2.3848
 5205TIP3    H237107   4.116   5.664   0.096  2.1456 -2.5035 -0.0807
 5206TIP3   OH237108   4.730   3.319   4.323 -0.1600 -0.9837  0.2477
 5206TIP3    H137109   4.786   3.373   4.378 -1.2443  0.9881 -0.5542
 5206TIP3    H237110   4.751   3.343   4.233 -1.6683 -0.8343 -0.0878
 5207TIP3   OH237111   6.763   5.102  16.157 -0.1443 -0.6159 -0.4082
 5207TIP3    H137112   6.840   5.115  16.102  0.3796 -1.1307  0.1961
 5207TIP3    H237113   6.748   5.187  16.198  0.6660 -0.7622  0.1936
 5208TIP3   OH237114   2.378   1.825   0.761 -1.1610  0.2559 -0.0232
 5208TIP3    H137115   2.388   1.840   0.854  2.0986 -0.7165 -0.1759
 5208TIP3    H237116   2.347   1.735   0.754 -5.9687  1.7137  0.2143
 5209TIP3   OH237117   2.910   1.027   4.061  0.1082 -0.0116 -0.4663
 5209TIP3    H137118   2.944   0.963   3.999 -0.3793 -0.8754  0.1554
 5209TIP3    H237119   2.970   1.023   4.135  0.6368  0.9533 -0.8325
 5210TIP3   OH237120   0.610   1.814  11.935  0.7793 -0.3859  0.3525
 5210TIP3    H137121   0.554   1.884  11.970  2.3569  1.0250  0.0920
 5210TIP3    H237122   0.585   1.808  11.843  1.1244  0.3105  0.2116
 5211TIP3   OH237123   6.605   4.260   0.760 -0.3045  0.5012 -0.0415
 5211TIP3    H137124   6.674   4.217   0.711 -2.4251 -0.9549 -1.8467
 5211TIP3    H237125   6.592   4.205   0.837  0.7606  0.9713  0.4847
 5212TIP3   OH237126   3.543   6.508  16.923 -0.0442  0.0196  1.0815
 5212TIP3    H137127   3.454   6.529  16.952 -0.4004 -1.2883  0.9511
 5212TIP3    H237128   3.576   6.447  16.988 -0.6517 -2.5103 -0.9056
 5213TIP3   OH237129   4.830   4.514  12.322  0.0142 -0.0513 -0.1476
 5213TIP3    H137130   4.884   4.439  12.296  0.5664  0.5327 -0.6825
 5213TIP3    H237131   4.795   4.548  12.240 -0.2821  0.2407  0.1007
 5214TIP3   OH237132   1.848   5.768  15.161  0.0386 -0.1946  0.9922
 5214TIP3    H137133   1.846   5.819  15.080  0.4017 -0.3581  0.8803
 5214TIP3    H237134   1.769   5.794  15.208 -0.4389 -0.4974  0.3481
 5215TIP3   OH237135   3.996   2.771   5.340  0.5931 -0.0819 -0.4106
 5215TIP3    H137136   3.938   2.813   5.404 -1.4835 -1.3431 -1.3973
 5215TIP3    H237137   3.986   2.823   5.261  0.8395 -0.2800 -0.5731
 5216TIP3   OH237138   5.703   5.689  13.634 -0.2029 -0.6993  0.3563
 5216TIP3    H137139   5.730   5.676  13.543 -1.2388 -0.0853 -0.0537
 5216TIP3    H237140   5.690   5.601  13.668 -0.5408 -0.9193 -0.3325
 5217TIP3   OH237141   0.951   6.649  15.628  0.1669 -0.0771 -0.3443
 5217TIP3    H137142   0.905   6.723  15.588 -1.1447 -0.5518  0.2271
 5217TIP3    H237143   0.968   6.677  15.718  0.1612 -0.2562 -0.2863
 5218TIP3   OH237144   2.217   3.585  14.363 -0.0304  0.0567  0.0522
 5218TIP3    H137145   2.127   3.564  14.340  0.1352 -0.1337 -0.4305
 5218TIP3    H237146   2.244   3.514  14.421 -1.0708  1.5357  2.4298
 5219TIP3   OH237147   4.111   1.245  14.358 -0.4702  0.0698 -0.2071
 5219TIP3    H137148   4.152   1.310  14.301 -0.1681 -1.4786 -1.7889
 5219TIP3    H237149   4.161   1.250  14.440  0.1380  1.1698 -0.6388
 5220TIP3   OH237150   4.082   5.343   6.047  0.3374  0.1934  0.6149
 5220TIP3    H137151   4.040   5.425   6.073  0.0325  0.4857 -0.7553
 5220TIP3    H237152   4.120   5.308   6.128  0.5099  1.7089  1.1918
 5221TIP3   OH237153   6.429   0.471  15.154  0.0133 -0.4760  0.4308
 5221TIP3    H137154   6.339   0.468  15.121  0.2073  0.0127 -0.1572
 5221TIP3    H237155   6.473   0.398  15.109  0.3117  0.2718 -0.5080
 5222TIP3   OH237156   5.167   6.604   0.114 -0.0777  0.1022 -0.3743
 5222TIP3    H137157   5.146   6.530   0.057  2.7703 -1.2118  0.1720
 5222TIP3    H237158   5.154   6.570   0.202  3.2570 -0.5192 -0.0411
 5223TIP3   OH237159   2.656   2.261   5.192  0.3151  0.4578 -0.0184
 5223TIP3    H137160   2.699   2.178   5.211 -2.3580 -1.0182 -0.0289
 5223TIP3    H237161   2.693   2.323   5.255  1.0118 -1.1958  1.2293
 5224TIP3   OH237162   1.287   3.379  12.467  0.4389 -0.2058  0.0961
 5224TIP3    H137163   1.240   3.302  12.499  1.4956 -0.2322  1.6145
 5224TIP3    H237164   1.321   3.353  12.381 -1.3602 -0.5587 -0.5194
 5225TIP3   OH237165   3.947   1.731  14.328 -0.5321 -0.6031  0.0665
 5225TIP3    H137166   3.925   1.665  14.262  1.8618  0.0667 -1.4556
 5225TIP3    H237167   4.042   1.724  14.338 -0.5783  0.9112  1.7137
 5226TIP3   OH237168   3.511   1.400  14.696  0.1211  0.1556 -0.1903
 5226TIP3    H137169   3.443   1.385  14.630  1.0536 -1.7121 -0.7398
 5226TIP3    H237170   3.581   1.444  14.648 -0.0208  0.6143  0.0175
 5227TIP3   OH237171   3.002   3.952  15.945  0.1084 -0.6358  0.1851
 5227TIP3    H137172   3.077   3.903  15.911  0.3665  0.5649 -0.9951
 5227TIP3    H237173   2.943   3.960  15.870 -0.2573  0.2320  0.5656
 5228TIP3   OH237174   3.122   3.515  15.950 -0.1347  0.7583 -0.2239
 5228TIP3    H137175   3.037   3.482  15.922 -0.1436  0.9796 -0.4635
 5228TIP3    H237176   3.102   3.583  16.014 -0.1044  0.0158  0.5808
 5229TIP3   OH237177   0.060   1.116  16.488 -0.6466 -0.7962 -0.1208
 5229TIP3    H137178   0.026   1.050  16.428  0.5771 -2.6455  1.1769
 5229TIP3    H237179   0.149   1.088  16.507 -0.8741 -0.0453  2.2488
 5230TIP3   OH237180   5.015   2.209   5.300  0.3430 -0.2516 -0.2364
 5230TIP3    H137181   4.991   2.200   5.393  1.0818 -0.5077 -0.0633
 5230TIP3    H237182   4.963   2.143   5.255 -0.6649  0.4600 -0.1180
 5231TIP3   OH237183   1.756   6.427   4.690 -0.0119  0.1772 -0.2992
 5231TIP3    H137184   1.852   6.427   4.686 -0.0900  1.1707 -2.5282
 5231TIP3    H237185   1.736   6.438   4.783  2.0525  1.5908  0.0064
 5232TIP3   OH237186   3.098   0.775  15.034  0.7003  0.1168  0.3564
 5232TIP3    H137187   3.167   0.827  15.076  0.5472  0.8135 -0.2577
 5232TIP3    H237188   3.017   0.802  15.078  0.6644  0.1700  0.2590
 5233TIP3   OH237189   0.864   3.047   5.208 -0.3146  0.2256 -0.4855
 5233TIP3    H137190   0.915   2.970   5.183 -1.0390 -0.3714 -0.1516
 5233TIP3    H237191   0.792   3.012   5.260  0.4683  1.3325  1.4011
 5234TIP3   OH237192   1.415   3.620   4.053 -0.2034  0.4181  0.3128
 5234TIP3    H137193   1.352   3.614   3.980 -0.2637  1.8856  0.2241
 5234TIP3    H237194   1.469   3.542   4.044 -0.4369  0.4023 -1.1037
 5235TIP3   OH237195   5.909   0.595   0.226 -0.0515 -0.4866  0.0237
 5235TIP3    H137196   5.902   0.522   0.288  1.0008 -1.5071 -1.0362
 5235TIP3    H237197   5.985   0.645   0.257  0.8325 -1.3277 -0.7784
 5236TIP3   OH237198   2.774   0.064   3.922  0.4413 -0.1957 -0.4816
 5236TIP3    H137199   2.712   0.061   3.995  0.3406  1.6552 -0.4706
 5236TIP3    H237200   2.796   0.157   3.913  1.7748 -0.6140 -1.6993
 5237TIP3   OH237201   5.618   5.463   0.697 -0.2913 -0.2526 -1.0232
 5237TIP3    H137202   5.624   5.503   0.611 -2.6788  0.0988 -1.0443
 5237TIP3    H237203   5.586   5.533   0.754 -0.9566 -1.1141 -0.3303
 5238TIP3   OH237204   3.938   2.663  14.904  0.0963  0.5873  0.3426
 5238TIP3    H137205   4.002   2.598  14.875 -0.0668  0.0981  1.0904
 5238TIP3    H237206   3.897   2.625  14.981 -0.4665  1.2912  0.3977
 5239TIP3   OH237207   5.522   2.187  11.661  0.5729 -0.1032 -0.4569
 5239TIP3    H137208   5.489   2.276  11.649  0.5442  0.0253  0.5144
 5239TIP3    H237209   5.586   2.175  11.591  0.9729  0.8754 -0.2608
 5240TIP3   OH237210   3.548   6.376  15.436  0.0045  0.2030 -0.0019
 5240TIP3    H137211   3.474   6.396  15.378 -0.4474  0.9418  0.8058
 5240TIP3    H237212   3.559   6.281  15.429 -1.7638 -0.0724  0.7454
 5241TIP3   OH237213   5.091   4.091  13.463 -0.2002  0.4214 -0.1833
 5241TIP3    H137214   5.176   4.097  13.419 -0.8699 -0.1005 -1.5902
 5241TIP3    H237215   5.046   4.020  13.418 -2.4773  2.5468 -1.3731
 5242TIP3   OH237216   4.305   4.565  12.279 -0.4886 -0.4803  0.2955
 5242TIP3    H137217   4.228   4.620  12.295 -0.4747 -0.4367  0.2112
 5242TIP3    H237218   4.319   4.570  12.185 -0.6896 -0.8998  0.2463
 5243TIP3   OH237219   1.632   0.280   2.998  0.1604 -0.1290  0.7054
 5243TIP3    H137220   1.718   0.269   2.958 -0.6929  0.2816 -1.3022
 5243TIP3    H237221   1.644   0.348   3.065  1.5774 -0.7364  1.0884
 5244TIP3   OH237222   6.138   6.390   4.672  0.1226  0.6270 -0.0767
 5244TIP3    H137223   6.077   6.429   4.735 -0.0866  0.6862 -0.3153
 5244TIP3    H237224   6.099   6.305   4.651  1.8779 -0.8322  2.3818
 5245TIP3   OH237225   5.811   1.750  16.312  1.0736  0.0376 -0.0009
 5245TIP3    H137226   5.782   1.772  16.224  0.0085 -2.2156 -0.2651
 5245TIP3    H237227   5.773   1.663  16.328  1.3444  0.3766  2.6275
 5246TIP3   OH237228   2.402   2.460   1.729  0.1461  0.2798  0.2754
 5246TIP3    H137229   2.483   2.424   1.765 -0.9576 -0.1140  2.4461
 5246TIP3    H237230   2.397   2.424   1.640  1.6963 -0.7402  0.5816
 5247TIP3   OH237231   6.640   4.342   0.404  0.7214 -0.1218 -0.1692
 5247TIP3    H137232   6.654   4.408   0.472  1.2354 -0.0798 -0.3156
 5247TIP3    H237233   6.547   4.319   0.411  0.4291  0.9549 -0.4100
 5248TIP3   OH237234   3.976   0.712   3.072  0.2200  0.1110  0.4732
 5248TIP3    H137235   4.056   0.756   3.046 -0.6239  1.3498 -0.0893
 5248TIP3    H237236   3.986   0.699   3.167  0.4708  1.5736  0.6621
 5249TIP3   OH237237   3.586   6.486  13.765 -0.2917  0.0664 -0.4367
 5249TIP3    H137238   3.579   6.581  13.752  0.5014 -0.1180 -2.4092
 5249TIP3    H237239   3.652   6.458  13.702  1.2279 -1.4782  1.7470
 5250TIP3   OH237240   5.473   6.059  13.223 -0.1709 -0.2066 -0.2463
 5250TIP3    H137241   5.464   6.127  13.156 -0.2766  0.3074  0.2839
 5250TIP3    H237242   5.383   6.040  13.251  0.0061  1.2066  1.3556
 5251TIP3   OH237243   6.178   0.690   1.450 -0.3076  0.4950  0.2898
 5251TIP3    H137244   6.163   0.597   1.440 -0.1681  0.3543  1.2782
 5251TIP3    H237245   6.102   0.732   1.410 -0.1832 -0.0289 -0.4999
 5252TIP3   OH237246   4.394   1.971  13.531 -0.2912 -0.0100 -0.1989
 5252TIP3    H137247   4.406   2.057  13.571 -0.0441 -0.4126  0.5923
 5252TIP3    H237248   4.484   1.938  13.520 -0.2757  0.6898 -2.3764
 5253TIP3   OH237249   5.714   4.876   2.314  0.5086 -0.1841  0.2440
 5253TIP3    H137250   5.681   4.786   2.308 -0.9545  0.4335 -1.3225
 5253TIP3    H237251   5.788   4.877   2.253  0.7349 -0.4088  0.5117
 5254TIP3   OH237252   6.038   0.547   4.817 -0.1967 -0.1058 -0.1425
 5254TIP3    H137253   6.105   0.597   4.771 -0.5565  0.5069 -0.0067
 5254TIP3    H237254   6.070   0.541   4.907  0.5477 -1.3751 -0.4875
 5255TIP3   OH237255   2.469   4.157   5.864  0.1116  0.1186 -0.1518
 5255TIP3    H137256   2.496   4.237   5.908  0.5332 -0.1779  0.1284
 5255TIP3    H237257   2.489   4.172   5.771 -1.9292  1.2317 -0.4498
 5256TIP3   OH237258   2.994   6.409  14.328  0.1900 -0.6994  0.2799
 5256TIP3    H137259   3.028   6.320  14.315  0.6499 -0.3668 -0.9483
 5256TIP3    H237260   2.943   6.426  14.249  0.1143  0.1234  0.5078
 5257TIP3   OH237261   2.330   5.011   4.376  0.4804  0.7049  0.9034
 5257TIP3    H137262   2.291   5.041   4.458 -1.2893  1.2798 -0.1285
 5257TIP3    H237263   2.283   5.059   4.308  0.8662 -0.9238 -0.5349
 5258TIP3   OH237264   1.289   2.036   6.222 -0.3271 -0.0806  0.4142
 5258TIP3    H137265   1.314   1.963   6.279  0.6762 -0.4298 -0.4574
 5258TIP3    H237266   1.296   2.001   6.134 -0.7642  0.7932  0.0295
 5259TIP3   OH237267   4.072   1.665   3.898  0.3351 -0.1853 -0.2498
 5259TIP3    H137268   4.108   1.618   3.973 -0.3618  1.6100  1.2458
 5259TIP3    H237269   4.017   1.733   3.936  1.4730  1.9844 -2.3706
 5260TIP3   OH237270   6.759   5.537  16.566 -0.0968  0.0424  0.4135
 5260TIP3    H137271   6.788   5.606  16.506 -1.4030 -1.4200 -1.9699
 5260TIP3    H237272   6.826   5.469  16.560 -0.3628 -0.2226  0.4391
 5261TIP3   OH237273   6.318   6.079  12.175 -0.6336  0.4287 -0.1760
 5261TIP3    H137274   6.263   6.151  12.204  0.5786  1.0925  0.5106
 5261TIP3    H237275   6.281   6.002  12.217 -1.4260  0.7690 -0.2399
 5262TIP3   OH237276   1.500   0.293   1.182  0.3475  1.0837 -0.1352
 5262TIP3    H137277   1.440   0.367   1.169  0.5482  1.2718  0.0256
 5262TIP3    H237278   1.464   0.224   1.126  0.1310  1.2850 -0.2463
 5263TIP3   OH237279   5.817   1.371  11.759  0.0805 -0.5330 -0.0127
 5263TIP3    H137280   5.733   1.330  11.742 -0.3604  1.5565 -3.1706
 5263TIP3    H237281   5.869   1.355  11.680  1.6961  0.5209  0.7996
 5264TIP3   OH237282   4.936   0.603  11.575 -0.3165 -0.6579 -0.1291
 5264TIP3    H137283   4.863   0.626  11.634 -0.6262 -0.6760 -0.5045
 5264TIP3    H237284   4.906   0.632  11.489  0.4679  0.1107 -0.1520
 5265TIP3   OH237285   1.678   5.190  14.155 -0.1442  0.4405  0.4269
 5265TIP3    H137286   1.617   5.145  14.096  1.5038 -1.3209  0.0190
 5265TIP3    H237287   1.713   5.262  14.102 -1.2439  0.9691  0.4019
 5266TIP3   OH237288   5.606   0.853   3.978  0.3444 -0.1105  0.2095
 5266TIP3    H137289   5.674   0.883   3.918 -0.4297  0.7155 -0.2516
 5266TIP3    H237290   5.655   0.808   4.048  1.3319  0.1074 -0.3322
 5267TIP3   OH237291   1.540   1.921  12.408  0.1677 -0.4199 -0.3525
 5267TIP3    H137292   1.546   1.834  12.447 -0.4282 -1.3917 -2.3479
 5267TIP3    H237293   1.506   1.977  12.478  2.3122 -1.3805  1.5200
 5268TIP3   OH237294   4.346   0.622  14.239 -0.0248  0.1769 -0.0638
 5268TIP3    H137295   4.332   0.715  14.222 -0.1868 -0.0142 -0.9907
 5268TIP3    H237296   4.373   0.618  14.331 -2.2077  0.9217  0.6345
 5269TIP3   OH237297   0.724   1.410  15.543 -0.4222 -0.4277 -0.1236
 5269TIP3    H137298   0.815   1.439  15.549 -0.6299  0.1651  0.2607
 5269TIP3    H237299   0.679   1.482  15.499 -0.7042 -0.7152 -0.3048
 5270TIP3   OH237300   5.377   1.561   2.922 -0.0412 -0.1360 -1.1453
 5270TIP3    H137301   5.341   1.631   2.977 -1.0688 -0.8164 -0.9288
 5270TIP3    H237302   5.404   1.494   2.984  0.6939 -0.0441 -1.3681
 5271TIP3   OH237303   4.455   0.060  10.984 -0.3373 -0.3632  1.0813
 5271TIP3    H137304   4.364   0.084  10.966 -0.3381  0.2142  1.8169
 5271TIP3    H237305   4.459  -0.034  10.968 -1.0948 -0.4166  1.2002
 5272TIP3   OH237306   5.889   2.849  12.614  0.3950 -0.4444 -0.1063
 5272TIP3    H137307   5.805   2.802  12.609 -0.6676  1.2145  1.3733
 5272TIP3    H237308   5.953   2.787  12.580 -1.0616 -2.7322  1.1552
 5273TIP3   OH237309   6.440   0.338  11.098  0.1977 -0.6803 -0.4544
 5273TIP3    H137310   6.437   0.433  11.111 -0.0285 -1.0565  2.6552
 5273TIP3    H237311   6.530   0.321  11.072  1.0027  0.1491  1.6394
 5274TIP3   OH237312   4.602   5.340   4.831  0.2159 -0.1118  0.3555
 5274TIP3    H137313   4.534   5.364   4.767  0.5755  0.4259  0.1677
 5274TIP3    H237314   4.646   5.423   4.850 -0.0577 -0.2232  1.4980
 5275TIP3   OH237315   0.564   2.657   4.314 -0.7264 -0.0564 -0.3067
 5275TIP3    H137316   0.491   2.678   4.255 -0.4521  2.0907  0.0740
 5275TIP3    H237317   0.568   2.732   4.374  0.7724 -0.9136  0.6833
 5276TIP3   OH237318   2.575   4.955  12.256  0.2860  0.6427 -0.1472
 5276TIP3    H137319   2.626   5.024  12.298  1.0884 -0.8681  1.4331
 5276TIP3    H237320   2.557   4.892  12.326  0.3039 -1.1788 -1.7236
 5277TIP3   OH237321   3.866   1.221  14.535  0.5736  0.4464 -0.3497
 5277TIP3    H137322   3.839   1.148  14.479 -0.8633 -0.2196  1.1764
 5277TIP3    H237323   3.799   1.288  14.522  1.0127  0.8588 -0.5054
 5278TIP3   OH237324   1.876   6.511  15.346 -0.6597  0.2425  1.2207
 5278TIP3    H137325   1.882   6.605  15.361  1.1484  0.4788 -0.6979
 5278TIP3    H237326   1.783   6.493  15.334 -0.8328  2.1448 -0.4596
 5279TIP3   OH237327   1.660   0.659   5.838  0.0578 -0.5404  0.2046
 5279TIP3    H137328   1.651   0.739   5.891  2.0574  0.1558 -0.4686
 5279TIP3    H237329   1.621   0.681   5.754 -2.4987 -1.4221  1.1252
 5280TIP3   OH237330   1.453   5.132  16.247  0.3923  0.0074  0.0586
 5280TIP3    H137331   1.488   5.056  16.201  1.9100  0.6284  0.1349
 5280TIP3    H237332   1.435   5.099  16.336  2.0617 -0.0289  0.4088
 5281TIP3   OH237333   2.517   0.299   3.932 -0.4158  0.0177  0.2239
 5281TIP3    H137334   2.524   0.219   3.985 -0.8566  0.5734  1.1260
 5281TIP3    H237335   2.585   0.357   3.966 -1.4208  0.8002  0.9439
 5282TIP3   OH237336   4.616   1.342   2.398  0.3243  0.0776 -0.1351
 5282TIP3    H137337   4.528   1.351   2.362  0.3567  0.9356 -0.0198
 5282TIP3    H237338   4.623   1.413   2.463  0.4798 -1.0568  1.1191
 5283TIP3   OH237339   3.834   0.356   5.808  0.4022 -0.4063 -0.0481
 5283TIP3    H137340   3.756   0.381   5.858 -0.4439 -2.0746 -0.4907
 5283TIP3    H237341   3.907   0.391   5.858 -0.5694  0.1115  1.0351
 5284TIP3   OH237342   2.152   4.944   4.906 -0.4232 -0.0041  0.4096
 5284TIP3    H137343   2.198   4.934   4.989  0.4856  0.5575 -0.0153
 5284TIP3    H237344   2.157   5.037   4.887 -0.8570 -0.0924 -0.1368
 5285TIP3   OH237345   1.465   1.917   5.566 -0.0739  0.3958  0.0576
 5285TIP3    H137346   1.453   1.967   5.485  1.2612 -0.5088 -0.7176
 5285TIP3    H237347   1.553   1.942   5.595  0.2937 -0.9090  0.0784
 5286TIP3   OH237348   0.961   3.109  14.439  0.5824  0.3086 -0.4374
 5286TIP3    H137349   0.866   3.116  14.433  0.4409 -0.7853  0.3559
 5286TIP3    H237350   0.989   3.097  14.348 -0.1759 -0.8187 -0.5389
 5287TIP3   OH237351   4.116   6.631  14.072  0.1717 -0.1243 -0.5931
 5287TIP3    H137352   4.116   6.612  14.166  1.5609 -0.5994 -0.6807
 5287TIP3    H237353   4.184   6.699  14.061 -1.5401  1.5788 -0.9426
 5288TIP3   OH237354   6.006   0.966   5.938  0.8676  0.7123  0.1937
 5288TIP3    H137355   5.980   0.974   5.846 -2.9142 -2.9216  0.8273
 5288TIP3    H237356   6.071   0.896   5.939  0.6656  0.5250  0.3111
 5289TIP3   OH237357   0.369   3.750  10.735  0.6010 -0.1689 -0.0214
 5289TIP3    H137358   0.380   3.706  10.819  0.9206  0.0484  0.0543
 5289TIP3    H237359   0.444   3.720  10.683  1.2099  0.8436  0.2759
 5290TIP3   OH237360   5.666   6.492  12.760 -0.4786 -0.2423  0.1546
 5290TIP3    H137361   5.635   6.404  12.738  1.7316 -1.2192  0.7417
 5290TIP3    H237362   5.667   6.538  12.676  1.3311 -1.7976 -0.7407
 5291TIP3   OH237363   1.279   1.322  12.557 -0.4104 -0.0175 -0.0240
 5291TIP3    H137364   1.283   1.243  12.503 -0.5177 -1.1519  1.6038
 5291TIP3    H237365   1.348   1.311  12.622 -0.7694  0.9873  0.5436
 5292TIP3   OH237366   6.469   2.118   1.539  0.3938  0.3516  0.9154
 5292TIP3    H137367   6.527   2.058   1.587  0.8010  0.1610  0.1922
 5292TIP3    H237368   6.406   2.060   1.496  1.6308  0.3499 -0.9109
 5293TIP3   OH237369   1.990   6.124   0.525 -0.3883 -0.2093 -0.4873
 5293TIP3    H137370   1.999   6.141   0.432  0.3048  3.7253  0.1985
 5293TIP3    H237371   1.932   6.193   0.557  1.1616 -0.0893  2.3043
 5294TIP3   OH237372   5.517   2.533  16.130  0.2610  0.2526  0.1510
 5294TIP3    H137373   5.573   2.491  16.195  0.7042  0.1587 -0.2858
 5294TIP3    H237374   5.440   2.476  16.125  0.6598 -0.2739 -0.1131
 5295TIP3   OH237375   0.660   3.367  16.628 -0.0099  0.0587  0.4052
 5295TIP3    H137376   0.683   3.335  16.541  0.6550  0.5613  0.3890
 5295TIP3    H237377   0.646   3.288  16.680  1.2889 -0.2643  0.2867
 5296TIP3   OH237378   6.697   1.061   2.401  0.6479 -0.0359  0.4146
 5296TIP3    H137379   6.700   1.087   2.493  0.8175  1.0391  0.1059
 5296TIP3    H237380   6.693   0.965   2.404 -0.5591  0.0364  1.5643
 5297TIP3   OH237381   6.757   5.209   4.972 -0.3290  0.1894  0.2236
 5297TIP3    H137382   6.771   5.137   5.034  2.2855  0.0333 -0.4890
 5297TIP3    H237383   6.795   5.177   4.890  1.6087  2.6809  0.1057
 5298TIP3   OH237384   5.496   3.256   3.685  0.6646  0.3232  0.1356
 5298TIP3    H137385   5.521   3.173   3.726  1.2351  0.9318  1.0537
 5298TIP3    H237386   5.400   3.258   3.691  0.6998  0.0973  0.8504
 5299TIP3   OH237387   6.526   5.395  12.571  0.3623  0.4237 -0.0086
 5299TIP3    H137388   6.484   5.436  12.646 -1.1657  0.5103 -0.8796
 5299TIP3    H237389   6.583   5.327  12.609 -2.5907 -1.5195  1.1234
 5300TIP3   OH237390   2.547   0.173   2.981 -0.1555 -0.7201  0.1522
 5300TIP3    H137391   2.515   0.083   2.988  0.7064 -0.8934  2.3646
 5300TIP3    H237392   2.642   0.165   2.990 -0.2302  0.5697  2.5890
 5301TIP3   OH237393   4.042   2.660   0.104 -0.2577 -0.1766 -0.1910
 5301TIP3    H137394   4.018   2.740   0.057 -2.3818 -1.8634 -2.0852
 5301TIP3    H237395   4.101   2.614   0.044 -0.8517 -1.0791 -0.0896
 5302TIP3   OH237396   3.998   4.015   2.181 -0.7127 -0.1868 -0.0533
 5302TIP3    H137397   4.078   3.967   2.199  0.2473  0.9505 -1.2391
 5302TIP3    H237398   3.969   3.984   2.095 -1.7140 -0.7911  0.4813
 5303TIP3   OH237399   4.101   3.189   5.358 -0.2454  0.0551  0.2196
 5303TIP3    H137400   4.158   3.114   5.374 -1.3672 -0.6608  0.9112
 5303TIP3    H237401   4.161   3.262   5.345  0.8126 -0.3611  2.5557
 5304TIP3   OH237402   2.976   6.713  16.096  0.2038  0.6171 -0.5629
 5304TIP3    H137403   2.962   6.708  16.002 -1.1910 -1.3265 -0.2795
 5304TIP3    H237404   2.888   6.712  16.133  0.7948 -0.9780  0.8568
 5305TIP3   OH237405   3.926   2.024  14.329 -0.5299  0.1234 -0.1223
 5305TIP3    H137406   3.954   2.100  14.279  0.8440  0.3635  1.0012
 5305TIP3    H237407   3.958   1.949  14.278 -0.8692  0.3078 -0.6162
 5306TIP3   OH237408   0.453   0.577  13.722  0.7010  0.0588 -0.0555
 5306TIP3    H137409   0.514   0.504  13.712 -0.8314 -1.7472  2.9497
 5306TIP3    H237410   0.434   0.579  13.816  0.4482  4.1587 -0.1176
 5307TIP3   OH237411   4.796   5.079   1.155 -0.4790  0.2790 -0.1269
 5307TIP3    H137412   4.781   5.154   1.097 -0.2337 -0.0996 -0.6886
 5307TIP3    H237413   4.758   5.005   1.108 -1.9544  0.2619  1.0414
 5308TIP3   OH237414   4.287   3.714   0.967 -0.2936 -0.3512 -0.4435
 5308TIP3    H137415   4.286   3.758   0.882  0.2750 -0.0976 -0.3181
 5308TIP3    H237416   4.329   3.776   1.026 -1.7203 -0.0533  0.2901
 5309TIP3   OH237417   0.349   5.192   3.028  0.3997  0.4658 -0.1344
 5309TIP3    H137418   0.318   5.234   2.948 -0.5268  0.0714  0.0068
 5309TIP3    H237419   0.443   5.182   3.015 -0.0660 -1.7855 -2.2299
 5310TIP3   OH237420   3.865   5.741   5.451  0.6503  0.6118 -0.2192
 5310TIP3    H137421   3.794   5.786   5.404 -0.1099 -0.6038 -0.2422
 5310TIP3    H237422   3.928   5.811   5.470 -0.9287  1.8689  0.5488
 5311TIP3   OH237423   1.734   4.155   1.977 -0.1947  0.1610  0.1264
 5311TIP3    H137424   1.813   4.205   1.961 -0.6365  1.1693  1.0569
 5311TIP3    H237425   1.688   4.203   2.046 -1.2037 -0.8671  0.1914
 5312TIP3   OH237426   1.571   2.912  13.509 -0.3624  0.0220 -0.4326
 5312TIP3    H137427   1.569   3.000  13.472 -2.1605  0.1097 -0.1493
 5312TIP3    H237428   1.526   2.920  13.594  0.8212 -0.8529  0.3038
 5313TIP3   OH237429   1.938   0.916  12.250  0.1859  0.0475  0.2888
 5313TIP3    H137430   1.868   0.959  12.298  0.3405  0.2440  0.3365
 5313TIP3    H237431   1.900   0.833  12.221 -0.5558  0.8019 -0.9649
 5314TIP3   OH237432   3.687   2.337  13.501 -0.6478 -0.2306 -0.3303
 5314TIP3    H137433   3.683   2.285  13.582  0.9771  0.6566  0.3556
 5314TIP3    H237434   3.741   2.285  13.442  1.1776  0.7388  0.4391
 5315TIP3   OH237435   4.345   5.110  14.634  0.9567 -0.1323 -0.0175
 5315TIP3    H137436   4.370   5.026  14.672 -0.4108 -0.5941 -0.1275
 5315TIP3    H237437   4.277   5.144  14.693  0.2492  0.0753 -0.9407
 5316TIP3   OH237438   0.882   5.836  16.083 -0.2038 -0.1170  0.4411
 5316TIP3    H137439   0.925   5.777  16.021  0.3859 -0.1852  0.9197
 5316TIP3    H237440   0.797   5.854  16.042  0.1181 -0.2856 -0.3149
 5317TIP3   OH237441   4.477   6.536   1.650 -0.2287  0.2114  0.0251
 5317TIP3    H137442   4.384   6.535   1.671 -0.0074 -0.9247  1.0345
 5317TIP3    H237443   4.513   6.605   1.707 -0.3793  0.3552 -0.0520
 5318TIP3   OH237444   2.967   4.438   1.828  0.6533 -0.3788  0.1218
 5318TIP3    H137445   2.883   4.462   1.788 -0.1471 -0.7735  1.5361
 5318TIP3    H237446   2.943   4.381   1.901  1.9588  1.8407  2.3388
 5319TIP3   OH237447   4.706   6.045   3.084  0.0509 -0.4710 -0.5244
 5319TIP3    H137448   4.678   6.133   3.061  1.3202 -0.0000 -0.3404
 5319TIP3    H237449   4.714   6.046   3.179  0.5766 -0.6184 -0.5640
 5320TIP3   OH237450   3.502   1.493  12.774 -0.5037 -0.1404  0.0853
 5320TIP3    H137451   3.511   1.543  12.855 -0.8105 -2.5681  1.6638
 5320TIP3    H237452   3.590   1.461  12.755 -0.5613 -0.1322 -0.2109
 5321TIP3   OH237453   5.594   1.101  14.317 -0.7277  0.7057 -0.4662
 5321TIP3    H137454   5.556   1.186  14.339 -2.0460 -0.4809  1.9497
 5321TIP3    H237455   5.521   1.050  14.284 -0.8003 -0.7975  1.9255
 5322TIP3   OH237456   6.138   5.921  12.451 -0.0691  0.4175  0.0367
 5322TIP3    H137457   6.068   5.911  12.515  0.8046 -0.3105  0.9041
 5322TIP3    H237458   6.179   6.004  12.473 -0.7171  0.8983 -0.5408
 5323TIP3   OH237459   5.853   1.161   0.573  0.2855  0.0907  0.5459
 5323TIP3    H137460   5.788   1.181   0.639 -0.3504 -1.2650  0.3483
 5323TIP3    H237461   5.804   1.158   0.491  1.2646  3.0075 -0.2114
 5324TIP3   OH237462   2.150   5.830   6.367 -0.5006  0.0602  0.0798
 5324TIP3    H137463   2.108   5.883   6.434 -0.1747 -1.4396  1.5018
 5324TIP3    H237464   2.244   5.847   6.379 -0.3397 -1.4787  1.1190
 5325TIP3   OH237465   2.885   1.471  14.307  0.3191  0.4991  0.0210
 5325TIP3    H137466   2.848   1.428  14.230 -1.0247  1.4567  0.1141
 5325TIP3    H237467   2.962   1.517  14.275  0.6083 -0.3090 -0.4640
 5326TIP3   OH237468   1.729   0.684   2.145  0.0463  0.5380 -0.4289
 5326TIP3    H137469   1.777   0.660   2.066  1.9923  1.2902  0.5000
 5326TIP3    H237470   1.795   0.685   2.214 -1.0850  2.7635  0.6542
 5327TIP3   OH237471   1.212   6.009  16.595 -0.3123  0.8934  0.2872
 5327TIP3    H137472   1.127   5.965  16.584 -0.3194  0.5574  1.5913
 5327TIP3    H237473   1.210   6.042  16.685  2.2408 -1.9356  1.4671
 5328TIP3   OH237474   4.093   2.214   2.674  0.5282 -0.2577  0.0384
 5328TIP3    H137475   4.087   2.192   2.767  2.5197 -0.2558  0.1789
 5328TIP3    H237476   4.145   2.143   2.636 -0.7981 -0.5958 -1.2207
 5329TIP3   OH237477   1.854   6.620  16.604 -0.1687  0.0056  0.0931
 5329TIP3    H137478   1.778   6.583  16.559 -0.0957 -0.8871  0.6731
 5329TIP3    H237479   1.904   6.664  16.535 -0.3757 -0.8036 -0.5855
 5330TIP3   OH237480   4.018   5.321   0.053 -0.4429 -0.5214  0.4708
 5330TIP3    H137481   3.962   5.268  -0.004 -0.6414  0.5259 -0.3396
 5330TIP3    H237482   3.957   5.360   0.116 -0.5689  0.1540 -0.0514
 5331TIP3   OH237483   3.350   0.145  12.508 -0.3173 -0.2717 -0.4391
 5331TIP3    H137484   3.432   0.186  12.480 -0.4808  0.0018 -0.5156
 5331TIP3    H237485   3.357   0.142  12.604 -0.4257  0.1858 -0.4173
 5332TIP3   OH237486   2.452   3.433  15.147 -0.1183 -0.2179  0.0386
 5332TIP3    H137487   2.448   3.368  15.076  0.4200 -0.2780  0.0611
 5332TIP3    H237488   2.380   3.408  15.206 -0.4792 -0.2495 -0.4177
 5333TIP3   OH237489   1.870   5.047   6.066  0.4752 -0.3954  0.0692
 5333TIP3    H137490   1.858   5.037   6.161  0.2727 -1.4866 -0.0587
 5333TIP3    H237491   1.964   5.038   6.053  0.4580 -0.6872  0.1274
 5334TIP3   OH237492   4.327   1.532  11.377  0.1798  0.1255  0.5089
 5334TIP3    H137493   4.386   1.606  11.391  0.4271  0.1108 -0.4028
 5334TIP3    H237494   4.299   1.506  11.465  0.1572  1.2417  0.8309
 5335TIP3   OH237495   4.293   3.292  14.708  0.0315 -0.1579  0.1730
 5335TIP3    H137496   4.287   3.384  14.682 -2.0732 -0.8208 -1.8935
 5335TIP3    H237497   4.256   3.290  14.796  1.7717  1.2200  0.9822
 5336TIP3   OH237498   2.748   3.683  11.699 -0.4274 -0.0949 -0.0152
 5336TIP3    H137499   2.746   3.593  11.664 -0.6600  0.3164 -1.0827
 5336TIP3    H237500   2.799   3.676  11.780 -2.2902 -1.5884  1.0612
 5337TIP3   OH237501   1.639   6.546  16.223  0.6500  1.0910 -0.0149
 5337TIP3    H137502   1.576   6.593  16.168 -1.4410 -1.3811  0.1600
 5337TIP3    H237503   1.594   6.536  16.307  1.9297  0.6899  0.6257
 5338TIP3   OH237504   4.725   5.416  15.754  0.9199  0.3430  0.0287
 5338TIP3    H137505   4.675   5.462  15.822  0.4816 -0.0235 -0.0477
 5338TIP3    H237506   4.686   5.444  15.672  0.1285 -0.7775  0.0130
 5339TIP3   OH237507   5.038   3.474   2.749 -0.4087 -0.0224  0.1131
 5339TIP3    H137508   4.997   3.561   2.745  0.8636  0.5550 -0.5338
 5339TIP3    H237509   5.038   3.452   2.843 -0.0717  1.0027  0.3580
 5340TIP3   OH237510   5.029   5.172  11.787  0.1889 -0.0984 -0.2158
 5340TIP3    H137511   5.022   5.238  11.856 -2.2774  1.5575 -1.9654
 5340TIP3    H237512   5.015   5.089  11.832  0.1832  0.8178  1.5206
 5341TIP3   OH237513   5.162   0.971   1.954  0.0016  0.6239 -0.3161
 5341TIP3    H137514   5.108   0.955   1.877 -0.4909  1.8084 -0.2268
 5341TIP3    H237515   5.099   0.986   2.025  0.4504 -0.1525  0.2664
 5342TIP3   OH237516   0.248   2.875   3.261  0.1715 -0.3346  0.3869
 5342TIP3    H137517   0.201   2.958   3.259  0.2252 -0.3110  0.0106
 5342TIP3    H237518   0.295   2.872   3.178 -0.6310 -1.2037 -0.0512
 5343TIP3   OH237519   5.704   1.236   0.293 -0.0449  0.1657 -0.2903
 5343TIP3    H137520   5.770   1.298   0.325  1.0752 -1.2117  0.1093
 5343TIP3    H237521   5.677   1.272   0.208  1.2708  0.7073 -0.4899
 5344TIP3   OH237522   2.634   5.636   1.002  0.0012  0.1519 -0.3617
 5344TIP3    H137523   2.593   5.607   1.084  3.9310 -1.6739  1.0763
 5344TIP3    H237524   2.561   5.672   0.951 -2.8840 -0.3333  3.1513
 5345TIP3   OH237525   3.168   5.003   3.814  0.0362 -0.0422 -0.3243
 5345TIP3    H137526   3.215   4.925   3.843 -2.3729 -0.6313  2.1813
 5345TIP3    H237527   3.154   5.053   3.894 -1.2250  1.4480 -1.4528
 5346TIP3   OH237528   6.491   2.778   3.076  0.3330  0.2963  0.0736
 5346TIP3    H137529   6.518   2.830   3.152  0.0434  1.1110 -0.3780
 5346TIP3    H237530   6.560   2.712   3.066  2.2282  2.4335 -1.1505
 5347TIP3   OH237531   2.662   2.974  15.548  0.2192 -0.1547 -0.3559
 5347TIP3    H137532   2.654   3.036  15.475 -0.3613 -0.7351 -0.7848
 5347TIP3    H237533   2.755   2.949  15.546  0.7763  1.7134  0.6620
 5348TIP3   OH237534   4.727   1.593  12.675  0.0361  0.6492 -0.0076
 5348TIP3    H137535   4.751   1.684  12.660 -1.4532  0.6690 -2.7549
 5348TIP3    H237536   4.634   1.588  12.650  0.1804 -1.6716 -0.2547
 5349TIP3   OH237537   4.476   0.744  15.320 -0.0214 -0.0839 -0.4561
 5349TIP3    H137538   4.451   0.757  15.412  2.2920  1.7503 -0.0317
 5349TIP3    H237539   4.393   0.745  15.272 -1.1975 -0.2475  1.5032
 5350TIP3   OH237540   5.683   0.220   1.550  0.0242 -0.1603 -0.0712
 5350TIP3    H137541   5.618   0.209   1.620 -1.0137 -1.7844 -1.2692
 5350TIP3    H237542   5.745   0.283   1.586 -2.1053  1.3225  1.1785
 5351TIP3   OH237543   4.237   2.625   1.798 -0.4886  0.0772  0.2715
 5351TIP3    H137544   4.221   2.611   1.891 -1.1791 -1.2015 -0.0293
 5351TIP3    H237545   4.313   2.569   1.779 -0.0976  0.6491  0.1528
 5352TIP3   OH237546   1.117   6.472  16.663 -0.9377 -0.2295  0.1934
 5352TIP3    H137547   1.154   6.558  16.682  1.2115 -0.5966 -2.0696
 5352TIP3    H237548   1.024   6.487  16.650 -0.3192  2.0573 -1.8275
 5353TIP3   OH237549   2.423   1.242   1.811  0.4624 -0.0195  0.4563
 5353TIP3    H137550   2.513   1.275   1.804  0.9757 -1.1449  1.5680
 5353TIP3    H237551   2.393   1.272   1.896 -0.4433  0.8650 -0.1639
 5354TIP3   OH237552   4.171   2.447   2.524 -0.4285  0.0858 -0.7237
 5354TIP3    H137553   4.151   2.358   2.554 -0.1633  0.2428 -0.0822
 5354TIP3    H237554   4.248   2.473   2.574 -1.4642  1.2870  0.2665
 5355TIP3   OH237555   0.996   4.155   5.983 -0.0386 -0.1609  0.3533
 5355TIP3    H137556   0.975   4.248   5.990 -0.0415 -0.0047 -1.4035
 5355TIP3    H237557   0.919   4.115   5.942 -0.0363 -0.9448  1.0912
 5356TIP3   OH237558   1.485   4.672   0.587  0.2990 -0.5404 -0.0227
 5356TIP3    H137559   1.452   4.718   0.664 -1.4026 -0.4937 -0.7720
 5356TIP3    H237560   1.426   4.597   0.577  0.3835 -0.4207 -1.4323
 5357TIP3   OH237561   0.983   5.735  15.309  0.1105  0.2641  0.7842
 5357TIP3    H137562   0.896   5.770  15.328  0.2066  0.4098  0.9592
 5357TIP3    H237563   1.020   5.795  15.245  0.5494  0.8918  1.6108
 5358TIP3   OH237564   1.610   0.914   3.075  0.2445 -0.5274  0.0327
 5358TIP3    H137565   1.542   0.859   3.115 -0.0429  1.3641  2.2427
 5358TIP3    H237566   1.565   0.956   3.002 -0.0792 -1.6564 -0.4390
 5359TIP3   OH237567   0.574   1.850   3.012 -0.4422  0.3274 -0.3013
 5359TIP3    H137568   0.666   1.852   2.985 -1.0256  0.3188 -2.3411
 5359TIP3    H237569   0.572   1.902   3.093  1.2791  0.7136 -0.4846
 5360TIP3   OH237570   4.221   4.982   1.579  0.1356 -0.1880  0.3823
 5360TIP3    H137571   4.245   4.925   1.506  1.7373 -1.6237  1.9722
 5360TIP3    H237572   4.208   4.923   1.653  2.2799  1.4890  2.1876
 5361TIP3   OH237573   0.302   1.021   3.079  0.6735  0.2212  0.3424
 5361TIP3    H137574   0.305   1.024   2.983  1.3330  0.8731  0.3819
 5361TIP3    H237575   0.387   0.984   3.105 -0.1599 -1.5958  0.6218
 5362TIP3   OH237576   2.618   0.925  10.564 -0.7413 -0.0232 -1.0040
 5362TIP3    H137577   2.711   0.941  10.545 -0.1201 -0.0687  1.7989
 5362TIP3    H237578   2.585   0.880  10.486  1.2832  1.0296 -2.5267
 5363TIP3   OH237579   6.657   4.499  11.974  0.4139  0.2135  0.1145
 5363TIP3    H137580   6.700   4.545  12.047 -1.1606  0.6138  0.8207
 5363TIP3    H237581   6.614   4.569  11.924 -0.4880 -0.2992  0.1633
 5364TIP3   OH237582   3.194   0.806   0.436  0.1099 -0.0469  0.0365
 5364TIP3    H137583   3.239   0.723   0.421 -0.4683 -0.0689 -1.5921
 5364TIP3    H237584   3.107   0.781   0.469  0.1917 -0.0582  0.2482
 5365TIP3   OH237585   2.086   6.815   5.258 -0.0059 -0.0127  0.0571
 5365TIP3    H137586   2.142   6.831   5.182  0.1716 -3.4280 -0.6226
 5365TIP3    H237587   2.133   6.747   5.308 -1.4873  0.1542  1.7132
 5366TIP3   OH237588   4.012   6.116   2.221 -0.5045  0.0395 -0.2441
 5366TIP3    H137589   3.976   6.068   2.295 -0.9609  0.1586 -0.3835
 5366TIP3    H237590   4.097   6.076   2.204 -0.5188 -0.1603  0.1739
 5367TIP3   OH237591   4.560   2.152  12.861 -0.6020 -0.0259  0.6047
 5367TIP3    H137592   4.607   2.169  12.942  0.8366  0.9282 -0.4137
 5367TIP3    H237593   4.572   2.231  12.809 -1.8596 -0.4694 -0.3849
 5368TIP3   OH237594   5.461   4.965   2.379  0.2312  0.5766 -0.1388
 5368TIP3    H137595   5.439   4.876   2.405 -1.6215  1.9094  3.1520
 5368TIP3    H237596   5.556   4.963   2.363  0.6868 -1.3883  2.5393
 5369TIP3   OH237597   2.726   1.386  13.560  0.1228  0.0738 -0.3317
 5369TIP3    H137598   2.709   1.295  13.538  0.3094  0.0703 -0.4572
 5369TIP3    H237599   2.791   1.415  13.496  0.2883  0.2071 -0.1037
 5370TIP3   OH237600   0.760   0.321   5.845  0.1497 -0.2329 -0.4843
 5370TIP3    H137601   0.829   0.365   5.895 -0.3430 -0.3855  0.3442
 5370TIP3    H237602   0.806   0.270   5.779  0.8825 -1.1423  0.7136
 5371TIP3   OH237603   2.120   5.570   1.089 -0.1347 -0.4013 -0.2582
 5371TIP3    H137604   2.156   5.517   1.018 -0.0675 -1.0842  0.2870
 5371TIP3    H237605   2.029   5.584   1.064 -0.0124 -0.3219 -0.6638
 5372TIP3   OH237606   0.898   2.844  11.317  0.0394 -0.5683  0.0202
 5372TIP3    H137607   0.860   2.932  11.325  0.5342 -0.2617 -0.8954
 5372TIP3    H237608   0.991   2.860  11.300  0.3899 -1.2976  1.1978
 5373TIP3   OH237609   2.303   2.060   1.501  0.1025  0.3740  0.2048
 5373TIP3    H137610   2.330   2.015   1.580  0.1229 -1.0867 -0.6132
 5373TIP3    H237611   2.214   2.030   1.485 -1.0681  3.1127  1.4141
 5374TIP3   OH237612   0.631   6.120  16.057  0.6717 -0.5187  0.2487
 5374TIP3    H137613   0.611   6.101  16.149  0.1428 -0.0915  0.2225
 5374TIP3    H237614   0.635   6.034  16.015  1.0706 -0.7238  0.7016
 5375TIP3   OH237615   3.126   5.586   0.825  0.4569 -0.2849 -0.9221
 5375TIP3    H137616   3.044   5.626   0.856  0.9111  0.5843 -0.8317
 5375TIP3    H237617   3.150   5.524   0.894  0.8007  0.7291 -0.1224
 5376TIP3   OH237618   5.010   3.890  16.027 -0.4626 -0.1496  0.0397
 5376TIP3    H137619   5.004   3.839  16.108  0.3165  0.5256  0.5373
 5376TIP3    H237620   4.970   3.974  16.049 -2.4532 -0.8053 -1.0133
 5377TIP3   OH237621   6.168   5.526  13.075 -0.0009 -0.1569  0.2385
 5377TIP3    H137622   6.164   5.500  12.983  0.9423 -1.0543  0.4404
 5377TIP3    H237623   6.084   5.569  13.091  0.3735  1.2434 -1.3887
 5378TIP3   OH237624   2.673   0.182   0.611 -0.2118 -0.1216  0.3791
 5378TIP3    H137625   2.673   0.230   0.529  2.7824  0.7942  0.8344
 5378TIP3    H237626   2.634   0.242   0.675 -1.9319 -0.5864 -0.2181
 5379TIP3   OH237627   6.716   5.904   5.623 -0.4694 -0.4786  0.1464
 5379TIP3    H137628   6.803   5.886   5.659 -0.4875 -1.2173 -0.1640
 5379TIP3    H237629   6.656   5.865   5.686 -0.6569  1.3632  1.1593
 5380TIP3   OH237630   4.502   5.252   5.684 -0.7771  0.2661 -0.5576
 5380TIP3    H137631   4.587   5.242   5.728 -1.1754  1.6980  0.5768
 5380TIP3    H237632   4.524   5.285   5.597 -0.1886  1.5025  0.0397
 5381TIP3   OH237633   6.325   0.785   2.454 -0.4876 -0.3493 -0.1165
 5381TIP3    H137634   6.339   0.725   2.381 -2.7129  0.6863 -1.4544
 5381TIP3    H237635   6.295   0.730   2.526 -0.0219 -1.1656 -0.5428
 5382TIP3   OH237636   0.427   0.454  15.282 -0.4322 -0.6754  0.1173
 5382TIP3    H137637   0.421   0.379  15.341  0.0297  0.3850  1.5385
 5382TIP3    H237638   0.382   0.525  15.328 -0.2572  0.1222 -0.9070
 5383TIP3   OH237639   3.554   1.139   1.719 -0.4788  0.3819 -0.5304
 5383TIP3    H137640   3.580   1.069   1.659 -1.1245  0.4527 -0.9021
 5383TIP3    H237641   3.506   1.095   1.789  0.4646  0.2746  0.0473
 5384TIP3   OH237642   4.851   0.378  11.876  0.2309  0.2453 -0.2021
 5384TIP3    H137643   4.891   0.301  11.917 -0.4058  0.3175  0.5673
 5384TIP3    H237644   4.820   0.430  11.950 -1.0552  0.3105 -0.7816
 5385TIP3   OH237645   2.065   4.308   5.487  0.2846  0.4108 -0.2495
 5385TIP3    H137646   2.089   4.328   5.578 -1.5529 -0.9149  0.5430
 5385TIP3    H237647   2.029   4.390   5.453 -1.5362  0.1725  1.0715
 5386TIP3   OH237648   0.430   2.751  11.137 -0.0195 -0.6649 -0.3866
 5386TIP3    H137649   0.428   2.657  11.119 -2.7676 -0.5557 -0.8557
 5386TIP3    H237650   0.338   2.778  11.136  0.5058  1.5186  2.4364
 5387TIP3   OH237651   5.339   1.028  14.296  0.2182 -0.5135 -0.0127
 5387TIP3    H137652   5.289   1.084  14.355  0.9580 -0.5495  0.6578
 5387TIP3    H237653   5.307   0.940  14.315  0.7910 -0.5759  0.6747
 5388TIP3   OH237654   5.865   1.187   2.381 -0.1438  0.2201 -0.2099
 5388TIP3    H137655   5.960   1.186   2.375 -0.0959 -1.6074  0.2977
 5388TIP3    H237656   5.847   1.158   2.470 -1.1697  0.6529 -0.2732
 5389TIP3   OH237657   3.815   6.297  16.277 -0.1099 -0.6550  0.1368
 5389TIP3    H137658   3.805   6.206  16.251  2.1671 -0.6383 -0.8759
 5389TIP3    H237659   3.897   6.300  16.326  0.3645  1.0341 -0.7283
 5390TIP3   OH237660   0.639   2.382  16.153 -0.3345 -0.3453  0.5222
 5390TIP3    H137661   0.623   2.367  16.246  0.8720  2.3124  1.2018
 5390TIP3    H237662   0.559   2.425  16.122 -0.1530  0.1029  0.6729
 5391TIP3   OH237663   6.093   6.314  14.605 -0.0826 -0.5699 -0.3977
 5391TIP3    H137664   6.118   6.406  14.617 -0.9027 -0.2664 -0.9798
 5391TIP3    H237665   6.136   6.288  14.524  3.1593 -1.8025  1.5989
 5392TIP3   OH237666   1.457   2.551   5.052 -0.0820  0.4795 -0.0949
 5392TIP3    H137667   1.521   2.527   4.984  0.5442 -0.8835  0.9548
 5392TIP3    H237668   1.374   2.555   5.006 -0.2705 -3.9586 -0.3567
 5393TIP3   OH237669   1.463   6.016   4.737 -0.1393  0.1669 -0.2979
 5393TIP3    H137670   1.380   6.011   4.690 -0.4208  0.1690  0.2031
 5393TIP3    H237671   1.439   6.028   4.828  0.3770 -1.1188  0.0258
 5394TIP3   OH237672   3.305   6.318   2.653 -0.3857 -0.5164 -0.0899
 5394TIP3    H137673   3.315   6.285   2.743  0.6415 -1.2159 -0.4496
 5394TIP3    H237674   3.313   6.240   2.598 -1.1040 -0.1017 -0.7870
 5395TIP3   OH237675   3.812   6.537  13.152  0.2549 -0.1306  0.2324
 5395TIP3    H137676   3.900   6.501  13.144  0.8145  0.7932  2.1367
 5395TIP3    H237677   3.780   6.505  13.236 -0.1721  1.7781  0.8253
 5396TIP3   OH237678   1.058   4.541   0.588  0.1674 -0.3806  0.3307
 5396TIP3    H137679   0.982   4.484   0.600  0.0122 -0.1637  0.3932
 5396TIP3    H237680   1.070   4.545   0.493  1.0535 -1.6527  0.3843
 5397TIP3   OH237681   4.170   5.273   3.486  0.0583 -0.8539  0.0728
 5397TIP3    H137682   4.161   5.338   3.555  1.1149  2.2312 -2.5727
 5397TIP3    H237683   4.080   5.258   3.457 -0.0892  0.5545 -0.2593
 5398TIP3   OH237684   3.167   5.538  16.481 -0.1044 -0.2607 -0.1258
 5398TIP3    H137685   3.149   5.619  16.528 -1.4401  1.3010 -3.1496
 5398TIP3    H237686   3.083   5.491  16.480 -0.1327 -0.2087 -1.0119
 5399TIP3   OH237687   3.082   6.298   1.233  0.0850 -0.4186 -1.1747
 5399TIP3    H137688   3.176   6.291   1.250  0.0272  1.4296  0.0467
 5399TIP3    H237689   3.073   6.380   1.185 -1.2005  0.9546  1.3156
 5400TIP3   OH237690   5.924   5.649  11.911 -0.0224 -0.0780 -0.2483
 5400TIP3    H137691   5.927   5.557  11.936  1.1231  0.4070  1.4885
 5400TIP3    H237692   5.833   5.664  11.884 -0.4417 -1.4662  0.3850
 5401TIP3   OH237693   2.897   5.630   1.578 -0.0132 -0.1947  0.4054
 5401TIP3    H137694   2.969   5.693   1.587  0.7817 -0.8052 -1.4024
 5401TIP3    H237695   2.938   5.552   1.540 -1.2950 -1.2346  1.1013
 5402TIP3   OH237696   4.963   5.229  12.391 -0.1197 -0.2617 -0.1371
 5402TIP3    H137697   4.912   5.290  12.445  0.4085  0.0741 -0.0165
 5402TIP3    H237698   5.028   5.284  12.348  0.2956 -0.7248 -0.1023
 5403TIP3   OH237699   4.523   2.424  14.594  0.3492  0.3534 -0.4964
 5403TIP3    H137700   4.524   2.406  14.500  1.7927 -2.3753 -0.0054
 5403TIP3    H237701   4.615   2.429  14.620 -0.0281  1.0231  0.7915
 5404TIP3   OH237702   1.761   6.287   0.657  0.0367 -0.4286 -0.3976
 5404TIP3    H137703   1.787   6.380   0.653  0.5900 -0.4303  2.0226
 5404TIP3    H237704   1.686   6.281   0.599  0.9311  1.2066 -1.8014
 5405TIP3   OH237705   2.968   0.604  13.808 -0.4378  0.1880  0.3384
 5405TIP3    H137706   2.916   0.649  13.874  0.9021 -0.9017  2.1669
 5405TIP3    H237707   3.047   0.656  13.799 -0.7722  0.5392 -0.7142
 5406TIP3   OH237708   4.447   4.128   1.202 -0.3499 -0.1243  0.1430
 5406TIP3    H137709   4.436   4.064   1.132 -0.5705 -0.1552  0.2054
 5406TIP3    H237710   4.361   4.168   1.212 -0.0401  0.6703 -0.3611
 5407TIP3   OH237711   5.910   2.249  11.575 -0.6256  0.6091  0.0256
 5407TIP3    H137712   5.930   2.168  11.622  0.5435  0.3915 -0.8241
 5407TIP3    H237713   5.828   2.230  11.529 -2.1595  1.0469  2.4503
 5408TIP3   OH237714   0.092   5.647   5.310  0.0980  0.1378  0.7401
 5408TIP3    H137715   0.143   5.719   5.274 -0.7495  0.3081 -0.1275
 5408TIP3    H237716   0.092   5.581   5.242  2.5926 -1.5715  2.2954
 5409TIP3   OH237717   3.026   0.476   5.806  0.3635  0.0636  0.3872
 5409TIP3    H137718   2.960   0.408   5.818 -2.2661  2.5223  0.4277
 5409TIP3    H237719   3.089   0.437   5.745 -0.0412 -3.0408  1.8461
 5410TIP3   OH237720   2.388   1.609  17.153  0.5721  0.5435  0.1623
 5410TIP3    H137721   2.346   1.547  17.212  3.5770 -1.9963 -0.2609
 5410TIP3    H237722   2.321   1.629  17.087 -1.1795 -0.4106  1.6229
 5411TIP3   OH237723   6.337   0.278   5.286  0.1496 -0.1142  0.6820
 5411TIP3    H137724   6.300   0.211   5.345  0.2635 -1.6554 -0.9563
 5411TIP3    H237725   6.427   0.251   5.272 -0.0927 -0.1930 -0.7994
 5412TIP3   OH237726   5.678   0.249   5.991  0.3210  0.1365  0.0356
 5412TIP3    H137727   5.625   0.194   6.049 -0.0420  1.9680  1.4885
 5412TIP3    H237728   5.622   0.268   5.917  0.1641 -0.7564 -0.0817
 5413TIP3   OH237729   2.234   4.519  16.502  0.2950 -0.1000 -0.3344
 5413TIP3    H137730   2.184   4.594  16.467 -0.4494 -0.2563  0.3722
 5413TIP3    H237731   2.222   4.525  16.597  0.6730 -0.8178 -0.2388
 5414TIP3   OH237732   0.650   6.612  12.759  0.9595  0.2312 -0.2050
 5414TIP3    H137733   0.665   6.525  12.797  2.0997  0.1789 -0.7754
 5414TIP3    H237734   0.642   6.670  12.834  1.1040 -0.2198  0.1611
 5415TIP3   OH237735   6.179   1.803   1.330 -0.0671 -0.2175  0.3928
 5415TIP3    H137736   6.210   1.845   1.410  0.5719 -0.7647  0.4377
 5415TIP3    H237737   6.115   1.864   1.293 -1.1879 -0.4665  1.9037
 5416TIP3   OH237738   2.137   3.847  16.040 -0.0595  0.6383  0.0204
 5416TIP3    H137739   2.117   3.937  16.065 -0.8740  0.3965  0.2786
 5416TIP3    H237740   2.226   3.832  16.072  0.4332  1.6507 -0.8704
 5417TIP3   OH237741   5.770   4.367   2.505  0.5199 -0.0145 -0.4773
 5417TIP3    H137742   5.829   4.298   2.473  0.4706 -0.0770 -0.4330
 5417TIP3    H237743   5.684   4.342   2.473  0.7552  0.8991 -1.8468
 5418TIP3   OH237744   4.048   5.264  11.416  0.2427 -0.2911  0.4626
 5418TIP3    H137745   4.091   5.262  11.330 -0.6906  1.5008 -0.0680
 5418TIP3    H237746   4.005   5.349  11.419  0.3840 -0.2913  2.7883
 5419TIP3   OH237747   0.587   0.385   2.049 -0.0444 -0.3154  0.1213
 5419TIP3    H137748   0.553   0.385   2.139 -0.3982 -0.7020 -0.0091
 5419TIP3    H237749   0.680   0.364   2.058  0.6423  2.8254  0.6540
 5420TIP3   OH237750   3.397   1.150   1.229  0.6878  0.3792 -0.3119
 5420TIP3    H137751   3.419   1.220   1.290 -0.2833  1.1408 -0.8045
 5420TIP3    H237752   3.307   1.170   1.201 -0.6756 -2.6276  1.6705
 5421TIP3   OH237753   3.393   0.498  15.231 -0.0695  0.3349 -0.5722
 5421TIP3    H137754   3.303   0.466  15.234  0.4171 -0.9672  1.2283
 5421TIP3    H237755   3.388   0.588  15.263 -0.8098  0.4959 -1.1232
 5422TIP3   OH237756   1.353   5.319  13.858 -0.1255  0.0079  0.2148
 5422TIP3    H137757   1.381   5.251  13.919 -2.6930 -0.7254  0.6328
 5422TIP3    H237758   1.267   5.289  13.827  0.6137  0.9556 -2.8551
 5423TIP3   OH237759   1.268   3.755   3.586 -0.2617 -0.6455  0.9615
 5423TIP3    H137760   1.243   3.663   3.590 -0.3357 -0.6606  0.2611
 5423TIP3    H237761   1.187   3.801   3.563 -0.0179 -0.5100  0.3771
 5424TIP3   OH237762   1.641   3.456  12.106  0.2321  0.3712 -0.9227
 5424TIP3    H137763   1.583   3.406  12.047 -0.0098  2.1511 -2.2220
 5424TIP3    H237764   1.726   3.412  12.097 -0.3104 -0.7085 -0.9289
 5425TIP3   OH237765   2.630   6.692  15.512 -0.2566  0.0814 -0.3864
 5425TIP3    H137766   2.648   6.630  15.441 -0.4073 -2.9036  2.0434
 5425TIP3    H237767   2.699   6.757  15.505 -0.2498 -0.1613 -3.2311
 5426TIP3   OH237768   0.448   0.389  15.756 -0.3004 -0.5613  0.3459
 5426TIP3    H137769   0.527   0.423  15.800 -1.6305  2.1206  0.7683
 5426TIP3    H237770   0.384   0.459  15.766 -2.1510 -1.9291 -1.6821
 5427TIP3   OH237771   3.422   5.957  11.946 -0.0241 -0.5068 -0.0788
 5427TIP3    H137772   3.349   5.960  12.007  1.7636  0.5032  2.1067
 5427TIP3    H237773   3.479   5.887  11.979  1.8076  1.1847  0.4840
 5428TIP3   OH237774   1.875   3.455  11.234  0.4617  0.1826 -0.2312
 5428TIP3    H137775   1.872   3.406  11.152 -1.4140 -2.4020  1.3092
 5428TIP3    H237776   1.941   3.410  11.286 -0.9703 -0.4780  1.0374
 5429TIP3   OH237777   1.936   4.384  15.270 -0.7969 -0.0291  0.0172
 5429TIP3    H137778   1.885   4.303  15.275 -0.5871 -0.1378  0.3849
 5429TIP3    H237779   2.004   4.365  15.205 -0.5566 -0.2529  0.3354
 5430TIP3   OH237780   2.944   6.583  15.401  0.0838 -0.3244  0.1652
 5430TIP3    H137781   2.926   6.527  15.476  0.5764  0.0571  0.5755
 5430TIP3    H237782   3.032   6.616  15.416  0.0745 -0.0098 -0.4325
 5431TIP3   OH237783   0.956   2.446   2.419 -0.1165 -0.1181  0.1206
 5431TIP3    H137784   0.974   2.369   2.472 -2.0469 -1.2388 -0.7996
 5431TIP3    H237785   1.011   2.436   2.342 -0.5106 -0.6720 -0.0882
 5432TIP3   OH237786   3.986   2.391  10.917 -0.0958 -0.0571  0.3435
 5432TIP3    H137787   4.002   2.297  10.912  1.0155  0.1949 -1.3170
 5432TIP3    H237788   4.047   2.421  10.985  0.9725 -0.2774 -0.4871
 5433TIP3   OH237789   6.395   6.167  15.694  0.1641 -0.2511 -0.1564
 5433TIP3    H137790   6.436   6.188  15.610 -2.2697 -1.4446 -1.7167
 5433TIP3    H237791   6.332   6.237  15.709  1.5271  0.6957  1.4174
 5434TIP3   OH237792   4.580   4.991  13.415  0.5224  0.3424 -0.1072
 5434TIP3    H137793   4.503   5.013  13.363 -0.4016 -0.5792  0.8159
 5434TIP3    H237794   4.550   4.997  13.506  0.9317 -2.0713  0.2251
 5435TIP3   OH237795   6.432   0.104   0.649  0.7913 -0.0090 -0.1244
 5435TIP3    H137796   6.430   0.014   0.680 -0.5338 -0.3310 -1.0945
 5435TIP3    H237797   6.524   0.123   0.634  0.9765 -1.5822 -0.9831
 5436TIP3   OH237798   0.228   0.998   6.725  0.5387 -0.0326  0.1829
 5436TIP3    H137799   0.253   0.986   6.817 -0.4012 -2.5902  0.1607
 5436TIP3    H237800   0.290   0.943   6.677 -0.1409 -0.1659 -0.5452
 5437TIP3   OH237801   5.850   6.736   1.847 -0.1895  0.6799  0.6682
 5437TIP3    H137802   5.908   6.745   1.772  1.1827 -2.2069  1.3343
 5437TIP3    H237803   5.775   6.687   1.813 -0.2059  0.5828  0.8430
 5438TIP3   OH237804   0.344   0.814  13.606  0.2810 -0.6620 -0.8142
 5438TIP3    H137805   0.377   0.885  13.660 -1.8853 -0.6954  0.5902
 5438TIP3    H237806   0.397   0.738  13.631  0.8688 -0.1363 -0.4620
 5439TIP3   OH237807   3.495   4.448   6.101  0.2634 -0.5586  0.2211
 5439TIP3    H137808   3.478   4.385   6.172 -0.0100 -1.6098 -0.7616
 5439TIP3    H237809   3.528   4.526   6.146 -0.3505 -1.0414  1.5466
 5440TIP3   OH237810   1.762   4.256   2.436  0.1473 -0.5598 -0.0220
 5440TIP3    H137811   1.841   4.288   2.481 -0.5043 -0.9588  1.4242
 5440TIP3    H237812   1.755   4.164   2.464 -1.2148 -0.3280  0.3993
 5441TIP3   OH237813   1.477   5.252  13.044 -0.4978 -0.4077 -0.8145
 5441TIP3    H137814   1.459   5.161  13.019  0.0717 -0.2149 -1.9476
 5441TIP3    H237815   1.570   5.265  13.026 -0.2497  0.0015  0.6518
 5442TIP3   OH237816   0.634   4.227  15.585  0.2182 -0.9030  0.2304
 5442TIP3    H137817   0.588   4.143  15.595 -1.6739  0.2314  1.3635
 5442TIP3    H237818   0.615   4.274  15.666  3.3980 -0.3598  0.6912
 5443TIP3   OH237819   1.519   5.254   0.673 -0.4168 -0.2330  0.1298
 5443TIP3    H137820   1.429   5.236   0.702 -0.5301 -0.9356 -0.6506
 5443TIP3    H237821   1.574   5.215   0.740 -0.6801 -1.5691 -0.4206
 5444TIP3   OH237822   2.444   6.072   4.973  0.4420  0.2306 -0.2322
 5444TIP3    H137823   2.475   6.149   5.020  1.7178 -1.0546  1.0571
 5444TIP3    H237824   2.497   6.069   4.893  1.3653 -0.0910  0.3875
 5445TIP3   OH237825   4.207   3.373   3.189 -0.6690  0.0941  0.0016
 5445TIP3    H137826   4.259   3.299   3.222 -1.0639  0.2272  0.9232
 5445TIP3    H237827   4.125   3.367   3.237 -1.4295  0.0189 -1.2986
 5446TIP3   OH237828   3.505   2.065  14.640  0.6786  0.2278 -0.0424
 5446TIP3    H137829   3.446   2.131  14.603 -0.3232 -0.8035 -0.3045
 5446TIP3    H237830   3.457   2.029  14.714  1.4625  0.1978  0.4520
 5447TIP3   OH237831   0.183   2.657   6.280 -0.1249 -0.5022  0.2302
 5447TIP3    H137832   0.114   2.663   6.346  1.9205  1.7820  2.2713
 5447TIP3    H237833   0.145   2.699   6.202 -0.9207  1.0197  1.4156
 5448TIP3   OH237834   3.559   6.727   1.865 -0.4330 -0.2362  0.2163
 5448TIP3    H137835   3.594   6.738   1.777  0.2186  1.1294  0.6329
 5448TIP3    H237836   3.464   6.724   1.853 -0.3929  0.8813 -0.4547
 5449TIP3   OH237837   3.483   3.375   5.683 -0.0285  0.0899  0.0749
 5449TIP3    H137838   3.427   3.308   5.643 -2.1233  1.8065  0.0507
 5449TIP3    H237839   3.508   3.431   5.609  0.0203  0.5256  0.4250
 5450TIP3   OH237840   5.838   3.078  14.030 -0.1108 -0.3203 -0.3730
 5450TIP3    H137841   5.778   3.109  14.098  0.0345  0.2787 -0.5114
 5450TIP3    H237842   5.885   3.157  14.002  0.2938 -0.6762 -0.7077
 5451TIP3   OH237843   1.029   0.054   0.378 -0.0462 -0.0265  0.2473
 5451TIP3    H137844   0.970   0.068   0.452 -1.9318 -1.5258 -0.9332
 5451TIP3    H237845   1.063  -0.035   0.391  0.7105  0.2206  0.0242
 5452TIP3   OH237846   0.945   3.252  14.039 -0.2608 -0.4784  0.0816
 5452TIP3    H137847   0.921   3.228  13.950  1.4214 -2.6009  0.1701
 5452TIP3    H237848   0.887   3.326  14.060 -1.4101 -0.6298 -2.3569
 5453TIP3   OH237849   4.601   5.323   0.657 -0.2735 -0.1677 -0.1686
 5453TIP3    H137850   4.678   5.333   0.713 -0.3647 -1.5318  0.2152
 5453TIP3    H237851   4.557   5.408   0.662 -0.0506 -0.1258  1.4811
 5454TIP3   OH237852   3.695   6.805  13.896 -0.0136  0.9442 -0.3152
 5454TIP3    H137853   3.612   6.757  13.898  0.4178  0.2243  0.5910
 5454TIP3    H237854   3.674   6.887  13.851 -0.8906  0.1517 -1.3712
 5455TIP3   OH237855   1.319   2.385   0.440  0.1647  0.0718  0.3654
 5455TIP3    H137856   1.300   2.453   0.504  0.8455  2.2504 -1.6973
 5455TIP3    H237857   1.414   2.378   0.439  0.0947 -0.9752  0.6339
 5456TIP3   OH237858   4.858   2.724  15.535  0.2819  0.3264 -0.0659
 5456TIP3    H137859   4.835   2.816  15.518  1.6499  0.4283 -1.4938
 5456TIP3    H237860   4.876   2.688  15.448  1.8923 -0.7193  0.6790
 5457TIP3   OH237861   5.418   2.854   4.527 -0.9221  0.5378  0.7065
 5457TIP3    H137862   5.361   2.802   4.582 -0.6275  1.3131  1.7628
 5457TIP3    H237863   5.431   2.936   4.576  0.3495  0.7355  0.0660
 5458TIP3   OH237864   2.558   4.849  14.675  0.2874 -0.2654 -0.2487
 5458TIP3    H137865   2.533   4.772  14.624  0.2030 -2.1093  2.4909
 5458TIP3    H237866   2.487   4.861  14.737  0.6555  1.5928 -0.1730
 5459TIP3   OH237867   2.230   0.038  12.913 -0.2609 -0.5401  0.2383
 5459TIP3    H137868   2.231  -0.027  12.843 -1.0367  0.3148 -0.5962
 5459TIP3    H237869   2.138   0.044  12.938 -0.3767  1.1063 -0.5375
 5460TIP3   OH237870   6.217   2.756  17.018  0.0012  0.6342 -0.4251
 5460TIP3    H137871   6.278   2.717  17.081  0.1665 -0.2336 -1.1208
 5460TIP3    H237872   6.239   2.715  16.934 -0.9374  0.9879 -0.8540
 5461TIP3   OH237873   1.370   4.169   1.933 -0.2203 -0.0585  0.0021
 5461TIP3    H137874   1.419   4.239   1.976  0.6666 -0.9369  0.4225
 5461TIP3    H237875   1.424   4.143   1.859  0.0487 -1.1363  0.5600
 5462TIP3   OH237876   2.484   2.025  14.988  0.1633 -0.0273 -0.7137
 5462TIP3    H137877   2.450   1.969  14.918 -1.2032 -1.0346  0.7213
 5462TIP3    H237878   2.407   2.045  15.042  1.2186  0.6908  0.5405
 5463TIP3   OH237879   3.033   0.800  15.713  0.1372 -0.0108 -0.2827
 5463TIP3    H137880   3.090   0.724  15.723 -0.4119 -0.2021  1.6499
 5463TIP3    H237881   2.953   0.765  15.674  0.7110 -0.0232 -1.4723
 5464TIP3   OH237882   4.891   0.391   5.848 -0.5938  0.6797  0.0975
 5464TIP3    H137883   4.892   0.397   5.944  2.8269  3.3770 -0.0298
 5464TIP3    H237884   4.857   0.304   5.830 -2.4145  0.5351  3.7128
 5465TIP3   OH237885   6.042   6.626   0.977  0.5531 -1.7153  1.1078
 5465TIP3    H137886   5.982   6.573   1.028 -0.7593 -0.9179  0.4127
 5465TIP3    H237887   6.126   6.580   0.984 -0.5568 -3.8934  0.4607
 5466TIP3   OH237888   4.497   2.720   1.571  0.3321  0.2241 -0.4267
 5466TIP3    H137889   4.562   2.672   1.519  1.7030  1.7026 -0.1270
 5466TIP3    H237890   4.481   2.665   1.647  0.2838 -0.7302 -1.1097
 5467TIP3   OH237891   5.604   3.504  12.968 -0.1907 -0.6810  0.3488
 5467TIP3    H137892   5.618   3.488  12.874 -0.2384  1.8722 -0.1215
 5467TIP3    H237893   5.692   3.515  13.003 -0.3355  3.0710 -0.3132
 5468TIP3   OH237894   3.725   0.067   2.895  0.0592  0.4000 -0.2512
 5468TIP3    H137895   3.748   0.030   2.810  1.5008  1.3749 -0.3025
 5468TIP3    H237896   3.677   0.148   2.874  1.8958  1.5407 -0.1679
 5469TIP3   OH237897   5.233   4.973   3.681  0.3286 -0.0997 -0.2824
 5469TIP3    H137898   5.161   5.027   3.647 -0.8885 -1.8461 -0.5419
 5469TIP3    H237899   5.203   4.944   3.767  1.3973  0.4364  0.2751
 5470TIP3   OH237900   6.560   0.031  14.047  0.2126 -0.5293  0.1867
 5470TIP3    H137901   6.558   0.031  14.143  1.3751 -2.0173  0.2294
 5470TIP3    H237902   6.622   0.099  14.024 -0.7843  0.4904  0.4562
 5471TIP3   OH237903   0.521   3.581  16.500 -0.6679 -0.1783  0.1428
 5471TIP3    H137904   0.579   3.528  16.555  0.0127 -1.9226 -2.1498
 5471TIP3    H237905   0.433   3.561  16.532 -0.1456  1.1688  2.5258
 5472TIP3   OH237906   3.544   4.359   3.010 -0.3103 -0.1524  0.0256
 5472TIP3    H137907   3.627   4.387   2.971 -1.0487  0.3809 -1.1668
 5472TIP3    H237908   3.509   4.294   2.950 -0.5079 -0.7820  0.8064
 5473TIP3   OH237909   2.918   0.656  14.753 -0.0689  0.0852 -0.1075
 5473TIP3    H137910   2.895   0.584  14.695  1.0384  1.0026 -1.7193
 5473TIP3    H237911   2.867   0.730  14.720 -2.3333 -0.2446  2.4292
 5474TIP3   OH237912   5.683   6.076   4.404  0.0821 -0.1553 -0.0362
 5474TIP3    H137913   5.740   6.108   4.334  1.5495  0.6986  1.5116
 5474TIP3    H237914   5.739   6.074   4.482 -1.3714 -1.5928  1.0098
 5475TIP3   OH237915   0.373   4.519   1.455 -0.2501  0.1296  0.2636
 5475TIP3    H137916   0.451   4.485   1.412 -0.1445  1.4851 -0.6580
 5475TIP3    H237917   0.383   4.493   1.547  1.0039 -0.1819  0.0482
 5476TIP3   OH237918   0.812   5.449  13.273 -0.2146  0.0116 -0.2602
 5476TIP3    H137919   0.838   5.385  13.339 -1.8338  0.1185  0.4976
 5476TIP3    H237920   0.757   5.399  13.212 -2.4515  0.9158  0.9797
 5477TIP3   OH237921   1.654   2.029  12.978 -0.2267  0.5061  0.4955
 5477TIP3    H137922   1.729   1.996  13.028  0.7752  0.5781 -0.9081
 5477TIP3    H237923   1.676   2.008  12.887 -1.9863  0.4210  0.0886
 5478TIP3   OH237924   6.447   3.343  15.661  0.2837 -0.3056  0.0874
 5478TIP3    H137925   6.504   3.354  15.737 -1.0171  1.8999  0.7900
 5478TIP3    H237926   6.413   3.431  15.644 -2.1601 -1.4147 -0.9039
 5479TIP3   OH237927   4.425   0.168   2.228  0.4622 -0.0225  0.1011
 5479TIP3    H137928   4.332   0.168   2.252  0.4467 -0.3580  0.0406
 5479TIP3    H237929   4.434   0.245   2.172 -0.0450 -0.6690 -0.8892
 5480TIP3   OH237930   5.397   3.139  14.936  0.2619 -0.5166  0.5484
 5480TIP3    H137931   5.328   3.110  14.875 -1.0859  0.8371  1.4037
 5480TIP3    H237932   5.390   3.077  15.009  0.1022 -0.5216  0.5316
 5481TIP3   OH237933   5.842   4.336  16.783  0.4181 -0.1896 -0.3557
 5481TIP3    H137934   5.864   4.258  16.834  1.9278  0.7414  0.4738
 5481TIP3    H237935   5.859   4.310  16.692  0.8411 -0.8625 -0.0929
 5482TIP3   OH237936   1.609   4.586   0.121 -0.3807  0.0793 -0.9479
 5482TIP3    H137937   1.563   4.534   0.055 -0.1590 -2.0729  0.5579
 5482TIP3    H237938   1.685   4.533   0.144 -0.3477  0.9048  0.9161
 5483TIP3   OH237939   3.248   4.038   6.190 -0.6919 -0.0114  0.1854
 5483TIP3    H137940   3.250   4.008   6.281 -1.0356  0.8124  0.4734
 5483TIP3    H237941   3.281   3.964   6.139 -0.6292 -0.5255  0.9683
 5484TIP3   OH237942   4.322   4.186   0.139  0.5109 -0.4877 -0.4191
 5484TIP3    H137943   4.318   4.261   0.079 -0.3376 -0.5103 -0.3863
 5484TIP3    H237944   4.416   4.164   0.142  0.5762 -0.4915 -1.7520
 5485TIP3   OH237945   3.126   1.626   0.378 -0.6371  0.0142  0.5662
 5485TIP3    H137946   3.146   1.575   0.299  0.7503 -0.5321  1.2618
 5485TIP3    H237947   3.031   1.621   0.386 -0.5611 -2.0378  0.3348
 5486TIP3   OH237948   0.445   6.656   1.477 -0.3137 -0.5370 -0.2718
 5486TIP3    H137949   0.496   6.693   1.549  0.5889 -1.1745 -0.5678
 5486TIP3    H237950   0.406   6.732   1.434  0.7631 -0.0004 -0.3126
 5487TIP3   OH237951   4.554   1.506  12.126  0.6081 -0.0561  1.0643
 5487TIP3    H137952   4.574   1.434  12.185  2.4598 -1.6614 -1.4342
 5487TIP3    H237953   4.639   1.538  12.097 -0.2514 -1.1203 -2.8472
 5488TIP3   OH237954   4.784   5.094  15.177 -0.3726 -0.0058  0.0850
 5488TIP3    H137955   4.862   5.101  15.122  0.2582 -2.2204  0.6480
 5488TIP3    H237956   4.713   5.075  15.115  0.3649 -2.6650 -0.0242
 5489TIP3   OH237957   5.366   5.388  15.010 -0.4140 -0.3741  0.1548
 5489TIP3    H137958   5.406   5.415  15.092  2.2603  0.8969 -1.5330
 5489TIP3    H237959   5.407   5.304  14.990 -0.0937 -0.0458 -0.5607
 5490TIP3   OH237960   1.916   5.804   3.818  0.1743  0.4214 -0.1574
 5490TIP3    H137961   1.979   5.863   3.777 -2.1413  3.7994  0.9976
 5490TIP3    H237962   1.871   5.762   3.744  0.6303  1.4048 -1.0030
 5491TIP3   OH237963   2.439   6.664  15.241 -0.1603 -0.4766 -0.4055
 5491TIP3    H137964   2.397   6.748  15.223  0.7201 -0.0362 -0.4240
 5491TIP3    H237965   2.532   6.685  15.247 -0.2160 -0.9627  2.6569
 5492TIP3   OH237966   5.897   4.774   4.189 -0.0805  0.1725 -0.6064
 5492TIP3    H137967   5.903   4.690   4.142  1.0072 -0.3863  0.4895
 5492TIP3    H237968   5.893   4.840   4.120 -0.4751 -0.7621 -1.4875
 5493TIP3   OH237969   3.533   5.979  12.660  0.6859 -0.0329 -0.0891
 5493TIP3    H137970   3.547   6.067  12.694  0.6044  0.1017 -0.4064
 5493TIP3    H237971   3.472   5.939  12.723 -0.6860  0.7322 -0.9004
 5494TIP3   OH237972   6.256   4.286   0.954  0.4051 -0.3342 -0.4602
 5494TIP3    H137973   6.184   4.228   0.930 -0.2775 -0.8515  2.6506
 5494TIP3    H237974   6.227   4.373   0.926 -0.5739 -0.8052 -0.9527
 5495TIP3   OH237975   1.243   2.579   3.179  0.1610 -0.4492 -0.3431
 5495TIP3    H137976   1.295   2.659   3.181 -0.0409 -0.2963 -1.0310
 5495TIP3    H237977   1.152   2.609   3.182  0.1054 -0.7621  2.1254
 5496TIP3   OH237978   2.707   1.684   0.846  0.0702  0.4312 -0.1573
 5496TIP3    H137979   2.672   1.598   0.872 -2.2410  1.2796 -0.3836
 5496TIP3    H237980   2.690   1.689   0.752  0.3272  1.0751 -0.1658
 5497TIP3   OH237981   4.955   3.632  12.039  0.0305 -0.0106  0.2707
 5497TIP3    H137982   4.892   3.679  11.985  0.1363  1.0427  1.0582
 5497TIP3    H237983   5.028   3.613  11.980  0.0827  1.0031  0.0105
 5498TIP3   OH237984   5.901   0.494  16.840 -0.1596 -0.2414  0.0924
 5498TIP3    H137985   5.849   0.563  16.883  0.5751  1.9857 -2.3922
 5498TIP3    H237986   5.973   0.477  16.900 -0.5775  0.8892  0.9439
 5499TIP3   OH237987   0.773   5.149  13.365 -0.5702  0.0831 -0.3038
 5499TIP3    H137988   0.737   5.199  13.292  0.8712  0.2767 -0.8973
 5499TIP3    H237989   0.751   5.058  13.345 -2.0271  0.3425  0.1004
 5500TIP3   OH237990   6.102   5.149   2.227  0.4484 -0.1994 -0.0967
 5500TIP3    H137991   6.181   5.120   2.181 -1.1142 -3.1891 -1.0652
 5500TIP3    H237992   6.079   5.232   2.187  2.4891  0.1892 -0.5261
 5501TIP3   OH237993   3.370   0.016   0.905  0.1384 -0.3267  0.0397
 5501TIP3    H137994   3.322   0.008   0.823  2.3802 -1.2440 -1.2095
 5501TIP3    H237995   3.455   0.052   0.880  1.9287 -3.3490  1.5452
 5502TIP3   OH237996   6.315   3.469   0.093  0.2266  0.2510  0.2435
 5502TIP3    H137997   6.327   3.416   0.014  3.2006  2.0517 -0.6280
 5502TIP3    H237998   6.265   3.545   0.064  1.8586  1.2224 -0.1103
 5503TIP3   OH237999   1.983   6.122  12.007  0.1113 -0.0668 -0.2046
 5503TIP3    H138000   1.957   6.174  12.083 -2.1468 -0.2137 -0.8531
 5503TIP3    H238001   1.915   6.137  11.942  0.8558 -1.6769 -1.4120
 5504TIP3   OH238002   3.307   6.272   3.926 -0.2475  0.3083 -0.0844
 5504TIP3    H138003   3.385   6.327   3.917  0.1859 -0.5229 -1.7221
 5504TIP3    H238004   3.322   6.200   3.864 -1.5281 -0.7911  0.8426
 5505TIP3   OH238005   2.925   0.636   3.267  0.0247 -0.0350  0.1467
 5505TIP3    H138006   2.840   0.677   3.255  0.7336  1.1447 -1.0017
 5505TIP3    H238007   2.934   0.626   3.361 -0.6613  1.4049  0.3791
 5506TIP3   OH238008   0.739   3.008  13.306  0.2819  0.3276 -0.3316
 5506TIP3    H138009   0.802   3.072  13.340  0.3517  1.0549 -1.7593
 5506TIP3    H238010   0.666   3.011  13.367 -0.4096  2.9526 -1.2085
 5507TIP3   OH238011   5.773   4.012  15.791  0.2327 -0.5346  0.1721
 5507TIP3    H138012   5.856   4.059  15.790  0.2618 -0.5986 -0.5308
 5507TIP3    H238013   5.737   4.029  15.879 -0.6640  2.4523 -0.6937
 5508TIP3   OH238014   3.606   1.655  12.971  0.1727  0.1912  0.8572
 5508TIP3    H138015   3.636   1.583  13.026 -0.2637 -1.7251 -1.3297
 5508TIP3    H238016   3.557   1.712  13.030  0.1848 -1.5175  2.5478
 5509TIP3   OH238017   0.007   2.846  14.623  0.0129 -0.2791  0.5550
 5509TIP3    H138018  -0.003   2.753  14.602  1.2514 -0.7467  1.8952
 5509TIP3    H238019  -0.016   2.852  14.716 -1.0401  0.9453  0.2358
 5510TIP3   OH238020   3.519   0.436   5.625  0.4432 -0.0489 -0.4960
 5510TIP3    H138021   3.494   0.404   5.538  0.4587 -1.2649 -0.0634
 5510TIP3    H238022   3.492   0.528   5.625  1.0485  0.1567 -2.0250
 5511TIP3   OH238023   2.919   3.736  15.138  0.3635  0.2408 -0.1938
 5511TIP3    H138024   2.955   3.664  15.086 -0.7350 -0.0872 -0.5072
 5511TIP3    H238025   2.993   3.766  15.191  0.3061 -2.6489  1.6665
 5512TIP3   OH238026   5.800   5.031  16.052 -0.5266  0.1511 -0.0333
 5512TIP3    H138027   5.727   4.998  15.999 -0.0280 -1.1409  0.0643
 5512TIP3    H238028   5.878   4.993  16.012  0.0260  0.7881  0.4176
 5513TIP3   OH238029   0.571   4.770  16.735 -0.5367 -0.2698 -0.4124
 5513TIP3    H138030   0.566   4.685  16.692  0.4586 -0.3652 -0.3641
 5513TIP3    H238031   0.640   4.759  16.801 -0.6851  0.4514 -0.1305
 5514TIP3   OH238032   3.617   5.414  17.286 -0.0765 -0.4662 -0.3602
 5514TIP3    H138033   3.661   5.493  17.255 -2.2674  0.9133 -0.0486
 5514TIP3    H238034   3.634   5.413  17.380 -1.7975  0.7933 -0.0201
 5515TIP3   OH238035   1.612   6.212   0.434 -0.0570  0.5055  0.0504
 5515TIP3    H138036   1.655   6.270   0.372  1.9599  1.1835  1.9911
 5515TIP3    H238037   1.641   6.124   0.410 -0.4231  0.6247 -0.8219
 5516TIP3   OH238038   5.054   2.722   0.835  0.2310  0.7418 -0.6240
 5516TIP3    H138039   5.050   2.770   0.753 -1.8894 -0.0204 -0.9962
 5516TIP3    H238040   5.123   2.657   0.823  1.8726  2.4708 -0.7592
 5517TIP3   OH238041   1.565   3.852   0.390  0.1528  0.3080 -0.4309
 5517TIP3    H138042   1.519   3.932   0.363  2.3740  2.3631  1.5893
 5517TIP3    H238043   1.654   3.864   0.357  0.2223 -1.9538 -1.1649
 5518TIP3   OH238044   5.424   3.045   4.758 -0.3425 -0.0538  0.8778
 5518TIP3    H138045   5.354   3.111   4.756 -0.2133  0.0678  0.3772
 5518TIP3    H238046   5.395   2.982   4.825 -0.7001  0.2469  1.0128
 5519TIP3   OH238047   3.259   4.490  11.684 -0.3358 -0.1229  0.4979
 5519TIP3    H138048   3.316   4.493  11.761 -1.4484  0.5038  1.2986
 5519TIP3    H238049   3.315   4.521  11.612  1.2088 -2.2991  0.7058
 5520TIP3   OH238050   2.556   6.639   3.431  0.3724  0.4394  0.7242
 5520TIP3    H138051   2.497   6.587   3.378  1.3345 -0.5193  0.5833
 5520TIP3    H238052   2.499   6.696   3.482 -0.6234  0.1581 -0.0738
 5521TIP3   OH238053   3.343   6.227   0.730  0.0214 -0.3741  0.0761
 5521TIP3    H138054   3.425   6.196   0.692  0.2809  0.2785  0.0930
 5521TIP3    H238055   3.284   6.153   0.723 -0.2178  0.0171 -2.4915
 5522TIP3   OH238056   2.521   3.932   2.965 -0.2801  0.1292  0.1529
 5522TIP3    H138057   2.566   4.013   2.941 -0.6554  0.5537  0.8560
 5522TIP3    H238058   2.511   3.885   2.883 -0.3622  0.9527 -0.3114
 5523TIP3   OH238059   4.511   1.654  11.021  0.0259  0.5549  0.4132
 5523TIP3    H138060   4.548   1.731  10.980 -0.9140  0.4953 -0.5720
 5523TIP3    H238061   4.580   1.622  11.079 -0.3531  3.3675  2.5158
 5524TIP3   OH238062   6.167   1.102   0.815  0.2111  0.2441 -0.8169
 5524TIP3    H138063   6.255   1.068   0.798  0.7589  2.2608 -2.2670
 5524TIP3    H238064   6.108   1.040   0.772  1.0238 -0.2632 -1.2143
 5525TIP3   OH238065   0.900   1.419   2.531 -0.5557  0.6395 -0.3576
 5525TIP3    H138066   0.873   1.436   2.440  1.4056 -0.0657 -1.0911
 5525TIP3    H238067   0.931   1.328   2.530 -1.0320  0.4505  1.1504
 5526TIP3   OH238068   0.328   3.065   0.504  0.2476 -0.0352 -0.0512
 5526TIP3    H138069   0.269   2.999   0.467  1.0533 -0.2538 -0.9611
 5526TIP3    H238070   0.282   3.098   0.581 -0.5877 -0.9734 -0.1426
 5527TIP3   OH238071   5.189   5.832   5.541 -0.4401  0.0508 -0.2871
 5527TIP3    H138072   5.113   5.806   5.487 -1.9972  0.8229  1.4946
 5527TIP3    H238073   5.151   5.881   5.614  1.7633  0.1246  0.8401
 5528TIP3   OH238074   0.902   3.980   1.216  0.2430 -0.8588 -0.3160
 5528TIP3    H138075   0.867   3.892   1.232  0.9377 -1.0364  0.2632
 5528TIP3    H238076   0.851   4.013   1.143 -1.9291 -0.6822  1.2232
 5529TIP3   OH238077   6.478   1.236   3.737 -0.3519 -0.4254 -0.1497
 5529TIP3    H138078   6.445   1.242   3.827 -0.9752 -0.6839 -0.3543
 5529TIP3    H238079   6.565   1.199   3.746  0.5449  1.7417  0.5307
 5530TIP3   OH238080   2.793   1.497   4.853 -0.5308 -0.3229 -0.2560
 5530TIP3    H138081   2.878   1.456   4.837  0.2328  1.1273 -0.0346
 5530TIP3    H238082   2.736   1.426   4.881 -0.0729 -1.7777 -2.8760
 5531TIP3   OH238083   4.767   0.918   5.032  0.1990 -0.1103 -0.4025
 5531TIP3    H138084   4.807   0.859   5.096 -0.7669 -1.6244 -1.1351
 5531TIP3    H238085   4.832   0.986   5.017  1.4785 -1.1673  0.2634
 5532TIP3   OH238086   0.585   2.232   3.648 -0.4952 -0.1655  0.3403
 5532TIP3    H138087   0.523   2.288   3.694 -0.5445  0.7300 -0.7884
 5532TIP3    H238088   0.540   2.147   3.641 -0.0296 -0.6752  2.9210
 5533TIP3   OH238089   5.105   1.555  11.930  0.9500 -0.6334 -0.2908
 5533TIP3    H138090   5.090   1.475  11.880  1.1652 -1.3399  0.7735
 5533TIP3    H238091   5.112   1.526  12.021 -0.8455  0.7929  0.3292
 5534TIP3   OH238092   4.470   4.462   2.744 -0.0258  0.6535 -0.3412
 5534TIP3    H138093   4.479   4.488   2.836  5.5836  0.9758 -0.8486
 5534TIP3    H238094   4.470   4.366   2.746  0.1377  0.6595 -0.0522
 5535TIP3   OH238095   5.542   3.074  16.557  0.5773 -0.0897 -0.4826
 5535TIP3    H138096   5.474   3.114  16.611  2.6727  0.6830  1.6925
 5535TIP3    H238097   5.498   3.000  16.513 -1.4911  0.0252  1.3047
 5536TIP3   OH238098   6.752   2.435   2.689  0.0444  0.0545 -0.2124
 5536TIP3    H138099   6.713   2.499   2.629  2.7732  1.5025 -0.5355
 5536TIP3    H238100   6.730   2.350   2.652 -1.3953  0.8538 -1.2460
 5537TIP3   OH238101   4.311   5.939  15.617  0.3165  0.2636  0.1447
 5537TIP3    H138102   4.271   5.854  15.634 -0.3301  0.3714 -0.7964
 5537TIP3    H238103   4.371   5.924  15.544  0.6723  0.4783  0.3901
 5538TIP3   OH238104   1.199   1.195  16.024  1.0035 -0.8186  0.1945
 5538TIP3    H138105   1.259   1.151  15.964  1.2776  0.4133 -0.4651
 5538TIP3    H238106   1.138   1.127  16.052  0.7351 -1.3602 -1.6574
 5539TIP3   OH238107   5.374   3.966  15.774  0.3880 -0.1650  0.0639
 5539TIP3    H138108   5.330   3.888  15.742 -0.8483  0.3480  0.5090
 5539TIP3    H238109   5.442   3.934  15.834  1.5717 -1.0315 -1.7052
 5540TIP3   OH238110   5.287   5.552   2.324 -0.2143  0.2524 -0.4309
 5540TIP3    H138111   5.266   5.494   2.251  1.4844 -0.5098 -0.3579
 5540TIP3    H238112   5.361   5.604   2.292  1.4330 -1.0106  1.1640
 5541TIP3   OH238113   5.696   1.988   0.934 -0.4468  0.1778 -0.1828
 5541TIP3    H138114   5.659   2.036   1.008 -3.5840 -0.7750 -1.0415
 5541TIP3    H238115   5.750   2.053   0.888 -2.6568  2.2545  0.0384
 5542TIP3   OH238116   5.400   0.120   3.609 -0.2895  0.2427 -0.2077
 5542TIP3    H138117   5.487   0.133   3.647 -0.5749  0.8974  0.2302
 5542TIP3    H238118   5.344   0.099   3.683 -0.7411  1.0038 -0.3320
 5543TIP3   OH238119   5.977   3.230   3.481  0.3141  0.2884 -0.3159
 5543TIP3    H138120   5.918   3.259   3.412  0.5489 -0.8427 -1.0026
 5543TIP3    H238121   5.922   3.228   3.560 -0.3454  0.0451 -0.7797
 5544TIP3   OH238122   2.418   1.036  12.457  0.2674  0.4391  0.2970
 5544TIP3    H138123   2.457   1.076  12.379  0.5830 -0.6514 -0.1117
 5544TIP3    H238124   2.328   1.018  12.432  0.2092  0.6094  0.3811
 5545TIP3   OH238125   1.192   0.821  13.833 -0.1522 -0.3177 -0.2502
 5545TIP3    H138126   1.249   0.876  13.780 -0.5027 -0.6070 -0.9275
 5545TIP3    H238127   1.179   0.871  13.914 -1.0132  0.8942 -1.1330
 5546TIP3   OH238128   6.380   0.034   2.478 -0.0441 -0.3141 -0.1694
 5546TIP3    H138129   6.459  -0.016   2.502  0.2184 -1.2569 -2.7597
 5546TIP3    H238130   6.412   0.122   2.459 -0.0831  0.1133  1.6967
 5547TIP3   OH238131   5.533   4.330   5.625  0.8791  0.1242  0.0082
 5547TIP3    H138132   5.514   4.406   5.570 -0.1003 -0.6924 -0.8134
 5547TIP3    H238133   5.452   4.315   5.674  0.9880 -0.5204  0.0003
 5548TIP3   OH238134   2.296   5.588  16.850  0.2335  0.0685  0.2217
 5548TIP3    H138135   2.346   5.639  16.913 -0.1486 -0.9078  1.3389
 5548TIP3    H238136   2.306   5.635  16.768 -0.2013  2.0106  1.2434
 5549TIP3   OH238137   0.111   2.944   1.240  0.4196  0.6718  0.8941
 5549TIP3    H138138   0.090   2.877   1.305  0.9580 -0.0116  0.3765
 5549TIP3    H238139   0.030   2.994   1.229 -0.7363 -1.4173 -0.4819
 5550TIP3   OH238140   3.426   1.816  10.938 -0.1493 -0.0098 -0.1887
 5550TIP3    H138141   3.417   1.860  10.853 -0.3706 -0.0131 -0.1671
 5550TIP3    H238142   3.348   1.841  10.987 -0.2737 -0.4185 -0.1728
 5551TIP3   OH238143   6.595   1.022  13.854  0.3335  0.1292  0.3246
 5551TIP3    H138144   6.573   0.992  13.942 -1.4346  0.9831  0.1876
 5551TIP3    H238145   6.599   1.118  13.862 -1.2773  0.2965 -0.8441
 5552TIP3   OH238146   3.718   0.164  14.733 -0.0942  0.3318 -0.0943
 5552TIP3    H138147   3.709   0.198  14.822 -3.0881 -0.1475 -0.1629
 5552TIP3    H238148   3.685   0.233  14.676  0.0316 -0.0922 -0.6970
 5553TIP3   OH238149   1.240   3.786  13.264 -0.1396 -0.6927  0.5512
 5553TIP3    H138150   1.201   3.872  13.247 -1.3427 -1.2485  0.4688
 5553TIP3    H238151   1.322   3.786  13.214  0.0702  0.5571  0.8766
 5554TIP3   OH238152   0.330   6.270   1.408 -0.6491  0.9479  0.2107
 5554TIP3    H138153   0.333   6.283   1.503 -2.2172 -1.5101  0.6218
 5554TIP3    H238154   0.402   6.208   1.391 -1.4892 -0.0016  0.0624
 5555TIP3   OH238155   3.521   5.904  17.220 -0.2150  0.5040  0.3126
 5555TIP3    H138156   3.449   5.937  17.166 -1.3537 -0.6498  1.0823
 5555TIP3    H238157   3.541   5.975  17.280 -0.6234  0.8889 -0.0085
 5556TIP3   OH238158   0.438   2.923   2.211  0.2391  0.7673  0.0416
 5556TIP3    H138159   0.387   2.974   2.273  1.0435  2.2831 -0.5317
 5556TIP3    H238160   0.511   2.889   2.264  0.5536  1.4944  0.0749
 5557TIP3   OH238161   5.330   5.363   0.738 -0.4537  0.0298  0.4332
 5557TIP3    H138162   5.411   5.312   0.740  0.1364  0.8442 -1.3249
 5557TIP3    H238163   5.263   5.304   0.773 -0.2817 -2.9322 -3.8017
 5558TIP3   OH238164   4.618   3.013   4.667 -0.4920  0.2251  0.2066
 5558TIP3    H138165   4.695   3.064   4.643  1.0911 -2.0440  0.3296
 5558TIP3    H238166   4.579   3.061   4.739  0.2919  1.8686 -0.4348
 5559TIP3   OH238167   3.471   4.159  15.337  0.0366  0.1770 -0.4931
 5559TIP3    H138168   3.507   4.232  15.287  1.4819 -1.0504 -1.2835
 5559TIP3    H238169   3.528   4.152  15.414 -1.5410  1.3842  0.8275
 5560TIP3   OH238170   5.614   6.779  11.205 -0.1527 -0.0699  0.1746
 5560TIP3    H138171   5.662   6.853  11.241  0.2056  0.4997 -1.4347
 5560TIP3    H238172   5.599   6.721  11.280  1.3058  0.6873  1.0681
 5561TIP3   OH238173   0.782   0.199   1.538 -0.6433 -0.2455  0.3027
 5561TIP3    H138174   0.748   0.210   1.627  0.1499 -0.5542  0.6519
 5561TIP3    H238175   0.731   0.127   1.501 -2.4237  1.2597 -0.2437
 5562TIP3   OH238176   3.122   4.971   3.009  0.0155  0.0632  0.1555
 5562TIP3    H138177   3.182   4.910   3.052  0.1814 -0.0245 -0.2002
 5562TIP3    H238178   3.053   4.915   2.974  0.0395  0.1046  0.0418
 5563TIP3   OH238179   0.425   5.707  12.187  0.5391  0.0600 -0.3826
 5563TIP3    H138180   0.413   5.631  12.129  0.9408 -0.3922  0.1212
 5563TIP3    H238181   0.520   5.712  12.200  0.3537 -0.7394  1.4181
 5564TIP3   OH238182   5.755   3.108  15.537 -0.1075  0.0537 -0.6822
 5564TIP3    H138183   5.831   3.133  15.484  0.5248  1.1857  0.7022
 5564TIP3    H238184   5.794   3.066  15.614 -1.0399 -2.2724 -1.4565
 5565TIP3   OH238185   0.113   2.892  15.467 -0.1063  0.5431  0.3786
 5565TIP3    H138186   0.172   2.921  15.536 -0.7334 -0.9653  1.5688
 5565TIP3    H238187   0.153   2.923  15.386  3.0587 -1.6796  1.0247
 5566TIP3   OH238188   6.455   4.526  16.931  0.4294 -0.0510 -0.0853
 5566TIP3    H138189   6.548   4.529  16.908  0.2947 -2.8349 -1.1744
 5566TIP3    H238190   6.452   4.561  17.020  2.8940 -2.0547  0.8793
 5567TIP3   OH238191   3.510   0.328   2.042 -0.3826  0.3262 -0.0645
 5567TIP3    H138192   3.442   0.373   2.091 -0.1965  1.5762 -0.9220
 5567TIP3    H238193   3.513   0.374   1.958  0.8461 -0.3325 -0.3895
 5568TIP3   OH238194   5.830   1.925   5.276 -0.6060  0.5080  0.5828
 5568TIP3    H138195   5.887   1.865   5.323 -1.9985  0.0445  1.7239
 5568TIP3    H238196   5.876   2.010   5.280  1.3135 -0.4209 -0.9621
 5569TIP3   OH238197   0.470   3.301   0.701  0.1046  0.5277  0.4834
 5569TIP3    H138198   0.389   3.351   0.686  0.2903  0.4684 -0.7318
 5569TIP3    H238199   0.540   3.364   0.685  0.3287  0.0625 -0.4063
 5570TIP3   OH238200   3.324   5.841   3.500 -0.5498  0.3887  0.3029
 5570TIP3    H138201   3.280   5.906   3.445  1.8109  1.5292 -0.2773
 5570TIP3    H238202   3.283   5.850   3.586 -2.6311  0.2165 -0.6408
 5571TIP3   OH238203   3.948   1.492   2.780 -0.2873 -0.3811  0.1468
 5571TIP3    H138204   4.019   1.435   2.810 -1.6193 -2.1654  0.0044
 5571TIP3    H238205   3.940   1.558   2.849  1.3545 -0.2970  0.2740
 5572TIP3   OH238206   1.811   6.353  12.880 -0.1855  0.9788 -0.5145
 5572TIP3    H138207   1.731   6.302  12.897 -0.1026  0.7949 -0.6723
 5572TIP3    H238208   1.796   6.393  12.795 -0.9409  2.5582  0.3214
 5573TIP3   OH238209   3.637   3.686  13.646  0.1924 -0.6383 -0.3829
 5573TIP3    H138210   3.694   3.742  13.698 -1.5711  0.7342  0.0841
 5573TIP3    H238211   3.552   3.730  13.647 -0.6706 -2.2360 -1.7649
 5574TIP3   OH238212   0.686   3.525  11.929  0.0716 -0.2493  0.3972
 5574TIP3    H138213   0.765   3.541  11.981  0.2102 -0.9362  0.4043
 5574TIP3    H238214   0.713   3.459  11.865  0.2675  1.4966 -1.3767
 5575TIP3   OH238215   3.939   0.098  15.057 -0.4165  0.1689 -0.5274
 5575TIP3    H138216   3.926   0.176  15.004 -1.0291  1.2693  1.1878
 5575TIP3    H238217   4.027   0.107  15.093 -1.6135  1.7297  2.2207
 5576TIP3   OH238218   6.260   4.735   2.303 -0.6053 -0.0360 -0.1743
 5576TIP3    H138219   6.336   4.696   2.347 -0.0502 -1.4067 -2.2657
 5576TIP3    H238220   6.199   4.754   2.374  1.3158  0.2570  1.4605
 5577TIP3   OH238221   0.948   0.895  15.656  0.4679 -0.5609 -0.2662
 5577TIP3    H138222   0.885   0.892  15.584 -0.3410  0.4276  0.3925
 5577TIP3    H238223   1.031   0.919  15.614 -0.4292  2.1004 -0.6112
 5578TIP3   OH238224   5.800   1.957  13.724 -0.4285 -0.3206  0.3443
 5578TIP3    H138225   5.840   1.901  13.790  1.5537  1.1560  0.4397
 5578TIP3    H238226   5.852   1.943  13.645 -1.3684 -0.3669 -0.2723
 5579TIP3   OH238227   2.929   1.833  16.702 -0.4276 -0.5116  0.8380
 5579TIP3    H138228   2.922   1.909  16.644  2.3720 -1.0346 -0.2696
 5579TIP3    H238229   2.946   1.871  16.788  0.5864  0.1477  0.3578
 5580TIP3   OH238230   5.829   6.768  16.205 -0.6592  0.1553 -0.0986
 5580TIP3    H138231   5.859   6.685  16.242 -0.2842  0.6058  0.6234
 5580TIP3    H238232   5.740   6.750  16.176  0.2145 -1.1206 -2.0494
 5581TIP3   OH238233   3.673   0.136  16.721 -0.1381  0.1176 -0.2585
 5581TIP3    H138234   3.741   0.114  16.657  0.1300  1.4928 -0.4794
 5581TIP3    H238235   3.714   0.200  16.779 -0.3579 -1.1741  1.3542
 5582TIP3   OH238236   4.103   2.255   4.981 -0.4085 -0.7264  0.0948
 5582TIP3    H138237   4.050   2.266   5.061 -0.1792 -1.7595  0.4008
 5582TIP3    H238238   4.193   2.245   5.013  0.1010  1.7587 -0.4628
 5583TIP3   OH238239   5.704   0.997  10.871  0.5886 -0.0641 -0.2927
 5583TIP3    H138240   5.685   1.056  10.944  1.2862 -0.9868  0.6441
 5583TIP3    H238241   5.780   1.036  10.828 -0.0317  0.6653 -0.7438
 5584TIP3   OH238242   3.791   5.725   0.640  0.0528  0.2676 -0.7296
 5584TIP3    H138243   3.781   5.778   0.719 -0.1138  1.2228 -1.3859
 5584TIP3    H238244   3.770   5.636   0.668 -1.2303  0.7961  0.0313
 5585TIP3   OH238245   5.286   0.968   4.845  0.0507 -0.5994 -0.2276
 5585TIP3    H138246   5.286   1.050   4.796  0.6815  0.3513  1.3049
 5585TIP3    H238247   5.360   0.977   4.905 -1.1228 -1.4220  1.3811
 5586TIP3   OH238248   0.508   2.264  17.025  0.2813 -0.2802  0.0200
 5586TIP3    H138249   0.497   2.194  16.961  0.0531 -0.6879  0.5071
 5586TIP3    H238250   0.565   2.227  17.092  0.2959  0.0564  0.1949
 5587TIP3   OH238251   6.404   1.463  12.949  0.4730  0.3328  0.1942
 5587TIP3    H138252   6.377   1.415  12.870 -1.5564  1.1177  0.3997
 5587TIP3    H238253   6.324   1.473  13.000  1.3660  1.7120  1.3567
 5588TIP3   OH238254   4.652   0.586  13.209  0.0245 -0.2211  0.0298
 5588TIP3    H138255   4.640   0.558  13.300  2.3523 -0.0711  0.4221
 5588TIP3    H238256   4.653   0.505  13.159 -1.5121 -0.2888  0.0975
 5589TIP3   OH238257   1.535   5.267  11.567  0.1464  0.8269 -0.0214
 5589TIP3    H138258   1.605   5.302  11.622 -0.5333  3.3843 -0.7477
 5589TIP3    H238259   1.518   5.335  11.502 -1.1497 -0.8966 -1.5526
 5590TIP3   OH238260   2.297   6.342  15.521 -0.1780 -0.1870 -0.6414
 5590TIP3    H138261   2.326   6.383  15.440  0.2680  0.2771 -0.2488
 5590TIP3    H238262   2.201   6.340  15.514 -0.3552  2.8824  0.2480
 5591TIP3   OH238263   6.082   0.842  10.327  0.7862 -0.1256  0.1735
 5591TIP3    H138264   6.098   0.845  10.422  3.6343  0.1185 -0.2813
 5591TIP3    H238265   6.116   0.757  10.299  0.2685 -0.0516 -0.6955
 5592TIP3   OH238266   6.063   3.306  13.557  0.2827 -0.2568 -0.1510
 5592TIP3    H138267   6.125   3.369  13.594  0.0347  0.4225 -0.9041
 5592TIP3    H238268   6.113   3.261  13.489  0.5492 -1.0888  0.5772
 5593TIP3   OH238269   2.176   2.632  16.026 -0.1938 -0.3954  0.4678
 5593TIP3    H138270   2.214   2.547  16.003 -2.6522 -1.4682  0.2162
 5593TIP3    H238271   2.251   2.692  16.027  1.4629 -2.3828 -0.1717
 5594TIP3   OH238272   1.984   5.962   6.567 -0.0923 -0.0049  0.3700
 5594TIP3    H138273   1.979   6.034   6.631 -0.8550  0.3036 -0.0308
 5594TIP3    H238274   1.919   5.899   6.597 -1.3902  0.7365 -0.8262
 5595TIP3   OH238275   2.371   3.277   1.109  0.4318  0.0869  0.4258
 5595TIP3    H138276   2.424   3.345   1.068  1.5143 -1.0129 -0.0147
 5595TIP3    H238277   2.370   3.301   1.202  0.5614  0.8560  0.2355
 5596TIP3   OH238278   4.916   3.826  14.571  0.0655  0.5243  0.0140
 5596TIP3    H138279   4.937   3.755  14.632 -0.7275  0.8756  0.7107
 5596TIP3    H238280   4.826   3.850  14.594 -0.0696  0.9735 -0.9864
 5597TIP3   OH238281   2.512   0.870  14.101  1.3301  0.1778 -0.2479
 5597TIP3    H138282   2.417   0.862  14.096  1.1597  1.1186  1.1910
 5597TIP3    H238283   2.532   0.958  14.070  1.3554  1.3811  2.9343
 5598TIP3   OH238284   0.518   0.697  11.156 -0.0785  0.7817 -0.6462
 5598TIP3    H138285   0.489   0.707  11.066  2.0573 -1.7936 -1.6901
 5598TIP3    H238286   0.521   0.603  11.171 -1.8290  1.1606  2.6497
 5599TIP3   OH238287   3.418   2.484  16.730 -0.2538  0.1558  0.7923
 5599TIP3    H138288   3.498   2.432  16.721  1.3623  2.3824  1.7600
 5599TIP3    H238289   3.364   2.436  16.792  0.8369 -0.8059  0.9969
 5600TIP3   OH238290   2.230   1.748   3.696  0.3804 -0.1071 -0.0167
 5600TIP3    H138291   2.296   1.754   3.628  0.9877 -1.4100  0.4419
 5600TIP3    H238292   2.272   1.787   3.773 -0.6000  2.1337 -0.5662
 5601TIP3   OH238293   5.226   6.029   6.463  0.7333  0.1167  0.2956
 5601TIP3    H138294   5.154   6.016   6.526  0.9329 -0.6414  0.3704
 5601TIP3    H238295   5.276   6.102   6.500  0.6600 -0.1067  0.8503
 5602TIP3   OH238296   4.237   0.700  15.782  0.3434  0.2333  0.4458
 5602TIP3    H138297   4.206   0.642  15.851 -2.4593 -0.0675 -1.0213
 5602TIP3    H238298   4.293   0.764  15.828  2.5713 -2.8797  2.2285
 5603TIP3   OH238299   5.990   1.955   1.246 -0.1652 -0.0189 -0.0766
 5603TIP3    H138300   5.905   1.916   1.265 -0.2732 -0.2783 -1.0702
 5603TIP3    H238301   5.969   2.036   1.198  0.1491 -0.3126 -0.7235
 5604TIP3   OH238302   1.677   3.065  10.973  0.3599 -0.1526  0.3555
 5604TIP3    H138303   1.602   3.042  10.919  1.1950  1.1411 -1.4192
 5604TIP3    H238304   1.680   3.161  10.970  1.1846 -0.1153  1.6645
 5605TIP3   OH238305   1.598   4.082  11.912  0.4548  0.1551 -0.1827
 5605TIP3    H138306   1.529   4.050  11.854  1.0132  0.0901 -0.8224
 5605TIP3    H238307   1.575   4.047  11.998 -0.7742  0.8391 -0.2166
 5606TIP3   OH238308   3.355   3.875   4.263  0.4363 -0.0409  0.6912
 5606TIP3    H138309   3.308   3.792   4.263  0.1534  0.0695  3.2905
 5606TIP3    H238310   3.287   3.941   4.277  1.0383  0.3560  1.7866
 5607TIP3   OH238311   1.955   0.165   3.191 -0.2819 -0.0976  0.2779
 5607TIP3    H138312   2.015   0.101   3.152 -0.6682 -0.3701  0.1293
 5607TIP3    H238313   1.979   0.249   3.150  0.2511 -0.1409  0.5052
 5608TIP3   OH238314   6.352   4.558   5.623 -0.2192  0.0098  0.8768
 5608TIP3    H138315   6.395   4.473   5.626  0.5728  0.4288  1.2592
 5608TIP3    H238316   6.292   4.557   5.698 -1.1577 -0.7111  0.1374
 5609TIP3   OH238317   4.933   6.817  15.936 -0.6820 -0.7400  0.2448
 5609TIP3    H138318   4.918   6.906  15.966 -1.0231 -0.6791 -0.1108
 5609TIP3    H238319   4.999   6.825  15.868  0.5371 -0.9406  1.3763
 5610TIP3   OH238320   4.596   5.431  16.244  0.3472  0.3744 -0.2664
 5610TIP3    H138321   4.654   5.369  16.200 -1.6736 -0.6915 -1.4951
 5610TIP3    H238322   4.598   5.509  16.189  2.1708  1.1136  0.7883
 5611TIP3   OH238323   0.376   1.027  13.098  0.1791 -0.1552 -0.3573
 5611TIP3    H138324   0.372   1.092  13.028  0.0166 -1.2853 -1.4280
 5611TIP3    H238325   0.340   1.072  13.174 -0.4897  0.8207 -1.2249
 5612TIP3   OH238326   3.506   4.618  12.368  0.1746 -0.2769  0.2740
 5612TIP3    H138327   3.510   4.617  12.272 -0.1423  0.8966  0.2341
 5612TIP3    H238328   3.553   4.698  12.393  0.7812 -0.8984  1.1275
 5613TIP3   OH238329   4.337   2.167  15.984  0.0329  0.3958 -0.2537
 5613TIP3    H138330   4.274   2.115  16.034  1.1572 -0.1309  0.6582
 5613TIP3    H238331   4.301   2.173  15.896 -1.3011  0.1372  0.2749
 5614TIP3   OH238332   0.571   2.163   1.492 -0.3106 -0.3791 -0.1671
 5614TIP3    H138333   0.508   2.091   1.502 -0.1741 -0.4654  0.0697
 5614TIP3    H238334   0.528   2.223   1.431 -1.0339  0.0225  0.7261
 5615TIP3   OH238335   2.916   2.960  14.356  0.4109  0.0159  0.3215
 5615TIP3    H138336   2.856   2.984  14.285  0.4084  1.3584  0.7767
 5615TIP3    H238337   2.975   2.896  14.316 -0.9431 -0.8850 -0.2976
 5616TIP3   OH238338   0.039   1.815  11.233 -0.0557  0.0027  1.0067
 5616TIP3    H138339   0.079   1.881  11.291 -0.5784  1.2680 -0.0589
 5616TIP3    H238340  -0.055   1.825  11.248 -0.1581 -0.1160  0.4206
 5617TIP3   OH238341   1.614   5.016   4.199  0.0046  0.3705 -0.1089
 5617TIP3    H138342   1.533   4.979   4.165 -0.0201  0.2462  0.0865
 5617TIP3    H238343   1.649   4.948   4.256  0.9576 -0.1509 -1.2896
 5618TIP3   OH238344   5.703   4.250   1.642 -0.0424 -0.0370  0.6139
 5618TIP3    H138345   5.732   4.174   1.693 -1.5538 -0.9599  0.1144
 5618TIP3    H238346   5.617   4.272   1.678  0.1329  1.0939  0.3637
 5619TIP3   OH238347   4.542   2.754   4.642 -0.4753 -0.6108  0.4157
 5619TIP3    H138348   4.585   2.826   4.689 -2.6913 -0.3140  2.1015
 5619TIP3    H238349   4.570   2.675   4.690  0.3623 -0.6935 -0.1985
 5620TIP3   OH238350   5.560   2.876   1.628 -0.3995 -0.1751  0.3888
 5620TIP3    H138351   5.495   2.898   1.695 -0.5927 -1.1898  0.5385
 5620TIP3    H238352   5.610   2.957   1.616 -2.4217  0.9797 -0.5649
 5621TIP3   OH238353   0.982   5.692   6.855 -0.9207 -0.7189  0.1897
 5621TIP3    H138354   1.072   5.713   6.878 -1.1897  0.9540 -0.2222
 5621TIP3    H238355   0.958   5.756   6.788 -1.7895 -2.3603 -1.1120
 5622TIP3   OH238356   6.511   1.690  13.113 -0.4112 -0.1238  0.8578
 5622TIP3    H138357   6.524   1.760  13.050 -0.8594 -0.2156  0.6649
 5622TIP3    H238358   6.503   1.611  13.061 -0.4836 -0.2410  1.0451
 5623TIP3   OH238359   4.866   2.321   5.916  0.1718 -0.1591  0.3084
 5623TIP3    H138360   4.854   2.366   5.832 -0.2006  2.5547  1.7688
 5623TIP3    H238361   4.945   2.360   5.953 -1.6483  1.2773  2.8212
 5624TIP3   OH238362   6.743   4.699   0.961  0.2445  0.2495  0.2224
 5624TIP3    H138363   6.806   4.638   0.924 -1.5653 -1.6190  0.1208
 5624TIP3    H238364   6.664   4.686   0.910 -1.5397 -0.5832  3.0473
 5625TIP3   OH238365   2.877   4.097   4.288  0.0523  0.1164 -0.0519
 5625TIP3    H138366   2.805   4.157   4.307  0.1616  0.2220  0.0313
 5625TIP3    H238367   2.871   4.031   4.357 -0.7323 -0.5782 -0.7645
 5626TIP3   OH238368   6.348   2.961   6.065 -0.0654  0.3496 -0.4132
 5626TIP3    H138369   6.408   2.890   6.040  0.3882  1.0723 -1.4075
 5626TIP3    H238370   6.266   2.939   6.022  0.3990  1.0076 -1.6635
 5627TIP3   OH238371   1.408   3.276   1.240  0.4935 -0.4007  0.2384
 5627TIP3    H138372   1.410   3.368   1.215  1.2292 -0.5640 -0.3240
 5627TIP3    H238373   1.334   3.269   1.300 -0.7145  0.1767 -1.1543
 5628TIP3   OH238374   6.325   1.191  11.533  0.3711  0.0931 -0.1443
 5628TIP3    H138375   6.394   1.187  11.467 -0.5143  1.4439 -1.1851
 5628TIP3    H238376   6.244   1.196  11.483 -0.3614  0.4286  1.0498
 5629TIP3   OH238377   5.111   2.628  11.574 -0.4042  0.2794 -0.4751
 5629TIP3    H138378   5.048   2.607  11.642  0.1026 -2.1054 -0.7113
 5629TIP3    H238379   5.097   2.562  11.506  1.4970  0.4502 -1.0784
 5630TIP3   OH238380   6.773   4.382   3.775 -0.1079 -0.1411 -0.1515
 5630TIP3    H138381   6.684   4.348   3.771 -0.7872  1.4719  0.8247
 5630TIP3    H238382   6.801   4.365   3.865  0.0872  0.5452 -0.0813
 5631TIP3   OH238383   6.541   2.084  13.474  0.2909 -0.2448  0.5575
 5631TIP3    H138384   6.501   2.155  13.424  0.9969  1.4019  2.2360
 5631TIP3    H238385   6.619   2.060  13.425 -0.4524 -0.5385 -0.5081
 5632TIP3   OH238386   3.925   0.543   0.564  0.0187 -0.3949  0.0613
 5632TIP3    H138387   3.993   0.509   0.622 -0.4648 -1.8454 -0.2166
 5632TIP3    H238388   3.844   0.534   0.614 -0.2491 -0.6275 -0.4094
 5633TIP3   OH238389   3.013   2.026   5.416 -0.3109  0.3250  1.1463
 5633TIP3    H138390   3.103   2.005   5.439 -0.1419 -1.2663 -0.7991
 5633TIP3    H238391   2.993   2.106   5.465  2.8722  1.9840 -0.1578
 5634TIP3   OH238392   6.261   1.899  14.507  0.2006  0.1588 -0.3394
 5634TIP3    H138393   6.218   1.822  14.545  0.9135  1.0082  2.2880
 5634TIP3    H238394   6.352   1.871  14.493 -0.0429 -0.1287 -1.3987
 5635TIP3   OH238395   3.940   1.029   5.514  0.0259 -0.0231  0.0685
 5635TIP3    H138396   3.939   1.088   5.439 -0.3730  0.6012  0.5621
 5635TIP3    H238397   4.032   1.025   5.540  0.2959 -0.9437 -0.9966
 5636TIP3   OH238398   6.744   5.988  12.324 -0.1095  0.9421  0.3666
 5636TIP3    H138399   6.831   6.014  12.353  0.4244 -0.6290  0.2108
 5636TIP3    H238400   6.710   6.065  12.278  1.1312  1.6130  0.5565
 5637TIP3   OH238401   2.466   0.630  15.208  0.2168  0.1389  0.2840
 5637TIP3    H138402   2.483   0.624  15.302 -0.3971  1.2342  0.4702
 5637TIP3    H238403   2.426   0.716  15.196 -2.9575 -1.3793 -0.4838
 5638TIP3   OH238404   1.559   2.470   5.304 -0.2358  0.3675 -0.5411
 5638TIP3    H138405   1.535   2.486   5.213 -1.7570  0.3540 -0.1561
 5638TIP3    H238406   1.651   2.445   5.301 -0.6714 -1.1130 -2.2169
 5639TIP3   OH238407   4.206   6.371  13.451 -0.3770 -0.1988  0.0022
 5639TIP3    H138408   4.270   6.301  13.466 -0.9895 -0.7156  0.2018
 5639TIP3    H238409   4.216   6.428  13.527  0.3797  0.1359 -0.3390
 5640TIP3   OH238410   2.294   2.407  13.011  0.2012 -0.5817 -0.2013
 5640TIP3    H138411   2.330   2.410  13.099  1.1309 -0.5361 -0.5806
 5640TIP3    H238412   2.295   2.497  12.981 -0.9934 -0.4590  0.0785
 5641TIP3   OH238413   0.450   4.295  15.248 -0.5287  0.0137  0.1234
 5641TIP3    H138414   0.481   4.385  15.257 -0.3181 -0.1620  1.2057
 5641TIP3    H238415   0.469   4.255  15.333 -1.3744 -0.8164 -0.0785
 5642TIP3   OH238416   1.315   2.976   5.419  0.3028  0.1059 -0.3369
 5642TIP3    H138417   1.224   2.989   5.393 -0.3015 -1.6034  0.8646
 5642TIP3    H238418   1.312   2.906   5.484  2.6080 -0.7398 -1.1016
 5643TIP3   OH238419   4.543   1.889  12.987 -0.2660 -0.0528 -0.2340
 5643TIP3    H138420   4.562   1.964  12.930 -1.3383  0.6768  0.3640
 5643TIP3    H238421   4.515   1.927  13.070 -0.2686 -1.1166  0.2653
 5644TIP3   OH238422   6.104   0.713   6.160 -0.3376 -0.9137  0.0106
 5644TIP3    H138423   6.168   0.679   6.223 -0.6719  0.9904  1.4484
 5644TIP3    H238424   6.020   0.679   6.191 -0.3038 -1.4301 -0.4595
 5645TIP3   OH238425   5.903   5.743  11.529 -0.7078  0.1052 -0.0183
 5645TIP3    H138426   5.885   5.691  11.608  0.4918  1.0369  0.8824
 5645TIP3    H238427   5.842   5.817  11.535 -0.0242  0.6368  0.4953
 5646TIP3   OH238428   1.757   2.706  13.835  0.1331 -0.0379  0.2681
 5646TIP3    H138429   1.785   2.770  13.900  0.7822 -0.0360 -0.0096
 5646TIP3    H238430   1.804   2.730  13.756 -0.4330 -0.2145 -0.1283
 5647TIP3   OH238431   2.056   2.922  16.179  0.4232  0.0950 -0.4514
 5647TIP3    H138432   2.128   2.894  16.236 -0.3303 -0.6176  0.1667
 5647TIP3    H238433   2.006   2.984  16.232 -0.5550 -0.9344 -0.1557
 5648TIP3   OH238434   4.287   0.055   1.698 -0.0211 -0.0703 -0.2030
 5648TIP3    H138435   4.290   0.150   1.697 -0.2651 -0.0612  0.0805
 5648TIP3    H238436   4.236   0.032   1.620  2.0738 -0.0462 -1.6310
 5649TIP3   OH238437   5.317   5.248   0.057 -0.7037  0.3348  0.2555
 5649TIP3    H138438   5.402   5.272   0.094  0.6317 -0.1557 -2.3409
 5649TIP3    H238439   5.332   5.162   0.017 -2.6201 -0.0885  0.4258
 5650TIP3   OH238440   4.917   1.271  12.092  0.0402 -0.6174  0.6043
 5650TIP3    H138441   4.934   1.195  12.037 -0.4211 -0.3997  0.1564
 5650TIP3    H238442   4.964   1.252  12.173  0.3454 -1.1478  0.3101
 5651TIP3   OH238443   6.732   2.907   5.153 -0.6467  0.4168  0.5636
 5651TIP3    H138444   6.666   2.913   5.084 -0.5834  2.4995  0.6726
 5651TIP3    H238445   6.805   2.959   5.121 -0.5779  1.3208  2.1379
 5652TIP3   OH238446   6.740   0.463   2.428  0.1004  0.4410  0.0814
 5652TIP3    H138447   6.794   0.453   2.507 -0.2119 -0.4765  0.1828
 5652TIP3    H238448   6.788   0.415   2.361 -0.5168 -0.2629  0.1380
 5653TIP3   OH238449   3.572   2.685  14.346 -0.0852 -0.3337  1.4379
 5653TIP3    H138450   3.504   2.744  14.380 -0.1830 -0.3909  1.3413
 5653TIP3    H238451   3.640   2.743  14.313 -0.1203 -0.2757  1.4666
 5654TIP3   OH238452   3.335   0.547   3.143 -0.0056 -0.2375 -0.4581
 5654TIP3    H138453   3.267   0.495   3.185  2.4814 -2.5616  0.8823
 5654TIP3    H238454   3.415   0.496   3.155  1.8170  1.8932 -2.8860
 5655TIP3   OH238455   2.333   5.123   5.308  0.1114  0.1661  0.5314
 5655TIP3    H138456   2.378   5.091   5.386  1.3097 -1.8526 -0.9378
 5655TIP3    H238457   2.384   5.201   5.282  0.4723  0.1042  1.0440
 5656TIP3   OH238458   2.817   0.868  11.196 -0.5323 -0.0611 -0.3607
 5656TIP3    H138459   2.892   0.868  11.255 -1.1673 -2.8272  0.5412
 5656TIP3    H238460   2.749   0.820  11.244 -2.4956  1.3828 -1.6255
 5657TIP3   OH238461   2.555   1.590  11.884 -0.4477  0.0639  0.3282
 5657TIP3    H138462   2.601   1.512  11.914 -1.6799 -0.9963 -0.4655
 5657TIP3    H238463   2.559   1.585  11.789 -0.4727  1.0144  0.2748
 5658TIP3   OH238464   1.174   1.151   6.135  0.2614  0.0828 -0.0557
 5658TIP3    H138465   1.166   1.246   6.129  0.5448  0.1437  0.4841
 5658TIP3    H238466   1.085   1.118   6.127  0.0487  0.4516  0.7028
 5659TIP3   OH238467   4.196   4.303   1.174 -0.4749 -0.2284  0.5000
 5659TIP3    H138468   4.203   4.398   1.187  0.3926 -0.2684  0.4051
 5659TIP3    H238469   4.130   4.293   1.106 -0.2435  0.3432  0.1795
 5660TIP3   OH238470   6.681   2.364   3.206  0.2454  0.4351 -0.3277
 5660TIP3    H138471   6.757   2.307   3.216  0.3022  0.4430 -0.7112
 5660TIP3    H238472   6.715   2.453   3.219  0.1724  0.3906  0.1832
 5661TIP3   OH238473   6.146   3.205   3.261 -0.4336  0.5270 -0.0678
 5661TIP3    H138474   6.112   3.228   3.348 -1.4559 -0.6118 -0.1533
 5661TIP3    H238475   6.168   3.289   3.221 -0.4667  1.0994  1.0779
 5662TIP3   OH238476   2.872   5.137   5.870  0.5426 -0.2481 -0.7741
 5662TIP3    H138477   2.788   5.176   5.894  0.3529 -0.7848 -0.5570
 5662TIP3    H238478   2.894   5.079   5.943  1.3034  0.1951 -0.6427
 5663TIP3   OH238479   2.978   6.648   4.373  0.5298  0.4829  0.0680
 5663TIP3    H138480   2.918   6.687   4.309 -0.1685  1.5811  1.3758
 5663TIP3    H238481   3.063   6.648   4.329 -0.1637  0.1275 -1.3076
 5664TIP3   OH238482   2.152   4.931   0.723  0.2644 -0.1462  0.2637
 5664TIP3    H138483   2.246   4.942   0.740  0.1694 -1.0522  1.4275
 5664TIP3    H238484   2.148   4.872   0.648  0.6466  1.3920 -0.9804
 5665TIP3   OH238485   4.315   3.727   2.757  0.4656  0.1219 -0.1757
 5665TIP3    H138486   4.373   3.689   2.691 -0.9402 -0.0735 -1.3272
 5665TIP3    H238487   4.317   3.666   2.830  2.4902  0.6230  0.2128
 5666TIP3   OH238488   6.369   3.422   4.767 -0.5435  0.5687  0.3510
 5666TIP3    H138489   6.332   3.497   4.814  1.9689  0.6125  2.3091
 5666TIP3    H238490   6.352   3.347   4.824 -2.1024 -0.2297 -1.1149
 5667TIP3   OH238491   6.108   5.809   5.348 -0.0780  0.1322  0.6577
 5667TIP3    H138492   6.144   5.763   5.424 -1.3078  0.9383  1.7443
 5667TIP3    H238493   6.126   5.902   5.366  2.0862  0.1589 -1.3563
 5668TIP3   OH238494   4.134   4.475  13.466  0.5485 -0.1075  0.1626
 5668TIP3    H138495   4.138   4.397  13.522 -2.0980 -0.8073 -0.5631
 5668TIP3    H238496   4.065   4.529  13.505 -0.7008 -0.1920 -1.8623
 5669TIP3   OH238497   3.289   6.583   3.501 -0.5083  0.0538  0.1707
 5669TIP3    H138498   3.308   6.676   3.503  1.9306 -0.4160  1.1398
 5669TIP3    H238499   3.327   6.552   3.419 -1.4657 -0.0383 -0.2327
 5670TIP3   OH238500   4.768   5.899  11.703  0.3902  0.5554  0.2149
 5670TIP3    H138501   4.810   5.923  11.785  1.2731  0.1323 -0.1169
 5670TIP3    H238502   4.684   5.946  11.705 -0.3447 -0.7929  2.1161
 5671TIP3   OH238503   4.414   4.800   3.578  0.2491 -0.3473  0.3563
 5671TIP3    H138504   4.420   4.709   3.549 -0.2622 -0.3927  0.3911
 5671TIP3    H238505   4.458   4.850   3.509 -0.3284 -0.5267 -0.1454
 5672TIP3   OH238506   6.132   1.643   5.791  0.5785 -0.3309  0.3908
 5672TIP3    H138507   6.186   1.594   5.729 -0.8783 -0.6677 -0.6553
 5672TIP3    H238508   6.082   1.576   5.838  0.7366 -0.0063  1.0190
 5673TIP3   OH238509   2.555   1.464   2.121  0.3421  0.1612 -0.0172
 5673TIP3    H138510   2.631   1.502   2.077 -0.7773  2.0461 -0.4088
 5673TIP3    H238511   2.583   1.376   2.147  3.0611  1.2732  0.9811
 5674TIP3   OH238512   2.638   3.296  13.924  0.0472  0.2028  0.3265
 5674TIP3    H138513   2.598   3.226  13.873 -0.6940  0.9915 -0.2061
 5674TIP3    H238514   2.731   3.294  13.901 -0.2822  0.5737 -1.1121
 5675TIP3   OH238515   5.791   0.551  10.450 -0.3575  0.1368 -0.2587
 5675TIP3    H138516   5.799   0.470  10.401  0.8806 -0.0709  0.2758
 5675TIP3    H238517   5.795   0.620  10.384  2.4336 -0.0963 -0.3814
 5676TIP3   OH238518   0.393   6.110   3.246  0.4129 -0.0874  0.2580
 5676TIP3    H138519   0.461   6.047   3.271  0.1830 -0.1609  0.6954
 5676TIP3    H238520   0.318   6.088   3.300 -0.4722 -0.9772 -1.3033
 5677TIP3   OH238521   4.362   3.422  15.056 -0.2595 -0.4949 -0.6747
 5677TIP3    H138522   4.422   3.451  14.988 -0.3124 -1.9580 -1.3620
 5677TIP3    H238523   4.418   3.406  15.132 -0.5344  3.7849  0.5277
 5678TIP3   OH238524   5.823   3.619  16.286  0.1143 -0.0797  0.1619
 5678TIP3    H138525   5.877   3.695  16.309  0.0401  0.8671 -2.6078
 5678TIP3    H238526   5.734   3.652  16.288 -0.1859 -0.9478  2.0625
 5679TIP3   OH238527   4.477   2.810   5.367  0.4110 -0.6942 -0.1903
 5679TIP3    H138528   4.568   2.831   5.344  0.0281  1.3859  0.1050
 5679TIP3    H238529   4.452   2.877   5.430 -2.1554  0.2855 -2.1541
 5680TIP3   OH238530   1.877   0.778  15.829 -0.1789 -0.2766  0.0739
 5680TIP3    H138531   1.814   0.778  15.901 -1.1872  0.6917 -0.7910
 5680TIP3    H238532   1.963   0.773  15.871 -0.6344  2.9156  1.4527
 5681TIP3   OH238533   2.476   5.477  14.943  0.2706 -0.2786 -0.0604
 5681TIP3    H138534   2.510   5.395  14.980  0.0001 -0.1532  0.4729
 5681TIP3    H238535   2.387   5.484  14.979  0.2793  0.2253 -0.1388
 5682TIP3   OH238536   5.564   4.121   1.358 -0.2250  0.2671 -0.1680
 5682TIP3    H138537   5.601   4.034   1.350 -0.2394  0.2505 -0.0523
 5682TIP3    H238538   5.514   4.118   1.440 -1.4082 -0.0552 -0.8996
 5683TIP3   OH238539   1.107   4.729   6.045 -0.0131 -0.0391 -0.2736
 5683TIP3    H138540   1.125   4.819   6.070 -2.6658  0.0939  1.3273
 5683TIP3    H238541   1.193   4.686   6.045  0.9750  1.9019  1.2545
 5684TIP3   OH238542   3.203   5.495   2.701  0.3586  0.9082  0.0934
 5684TIP3    H138543   3.147   5.431   2.745  0.1466  1.3407  0.4562
 5684TIP3    H238544   3.291   5.475   2.732  0.5212 -0.2493 -1.0455
 5685TIP3   OH238545   3.101   0.189  15.855  0.1806 -0.2296 -0.0570
 5685TIP3    H138546   3.142   0.249  15.918 -0.7836  1.9705 -1.4294
 5685TIP3    H238547   3.171   0.169  15.793  0.0621  0.9781 -0.6092
 5686TIP3   OH238548   5.877   0.857  16.018  0.2208 -0.6368 -0.2219
 5686TIP3    H138549   5.939   0.922  15.985  0.3849 -0.9374 -0.5077
 5686TIP3    H238550   5.916   0.827  16.100  0.5394 -0.9559 -0.4921
 5687TIP3   OH238551   0.756   2.644   1.725  0.3303  0.3260  0.0527
 5687TIP3    H138552   0.672   2.605   1.702 -0.2877  0.7453  1.5312
 5687TIP3    H238553   0.766   2.718   1.665  0.4065 -0.6922 -1.1980
 5688TIP3   OH238554   2.643   3.861   5.921  0.3631 -0.2144 -0.0777
 5688TIP3    H138555   2.600   3.850   6.006  1.6270 -0.5950  0.5213
 5688TIP3    H238556   2.626   3.780   5.874  0.4545 -0.3721  0.1650
 5689TIP3   OH238557   0.958   4.562   2.386  0.3908 -0.4193 -0.3386
 5689TIP3    H138558   0.915   4.571   2.301  0.6177  0.8973 -0.3269
 5689TIP3    H238559   1.050   4.543   2.364  0.1839 -1.4060 -0.3731
 5690TIP3   OH238560   4.557   4.784   0.612  0.0049  0.0101  0.2472
 5690TIP3    H138561   4.592   4.749   0.694 -0.8883  0.3955  0.7975
 5690TIP3    H238562   4.581   4.877   0.613  0.2811 -0.0582 -0.0806
 5691TIP3   OH238563   3.915   2.271   3.109 -0.3368  0.2789  0.2483
 5691TIP3    H138564   3.854   2.204   3.140  0.2540 -0.4672 -0.1812
 5691TIP3    H238565   3.859   2.347   3.089 -1.2822 -0.7638 -1.2198
 5692TIP3   OH238566   6.158   0.411   1.320  0.2915 -0.1337  0.0581
 5692TIP3    H138567   6.152   0.388   1.227  1.0275  0.3611 -0.1146
 5692TIP3    H238568   6.118   0.337   1.365 -2.0358  0.5925 -0.7522
 5693TIP3   OH238569   4.237   3.621  13.392 -0.6279  0.2725 -0.4449
 5693TIP3    H138570   4.280   3.697  13.352 -0.5744  0.2344 -0.4603
 5693TIP3    H238571   4.165   3.658  13.443 -1.7729  0.1720 -1.9817
 5694TIP3   OH238572   4.041   2.502  12.990 -0.3222 -0.0547 -0.1018
 5694TIP3    H138573   4.101   2.472  13.057 -0.9650 -0.5262  0.2682
 5694TIP3    H238574   4.095   2.511  12.911  0.0115 -1.6113 -0.0746
 5695TIP3   OH238575   3.567   4.951   5.332 -0.4423  0.0263 -0.0203
 5695TIP3    H138576   3.515   4.933   5.411  0.4573 -1.6606  0.1944
 5695TIP3    H238577   3.615   4.870   5.316  1.3849  1.2475 -0.7893
 5696TIP3   OH238578   0.349   2.079   6.506  0.3133 -0.8757 -0.6269
 5696TIP3    H138579   0.324   2.053   6.417 -0.3813 -1.7517 -0.1938
 5696TIP3    H238580   0.356   2.174   6.503  0.6063 -0.9291 -1.6974
 5697TIP3   OH238581   6.434   3.499   1.627  0.1779  0.1689 -0.3000
 5697TIP3    H138582   6.507   3.488   1.687 -0.9141 -0.0408  1.0230
 5697TIP3    H238583   6.421   3.413   1.587 -0.0079 -0.0574  0.2460
 5698TIP3   OH238584   2.518   5.042   2.911  0.2941 -0.3220  0.4634
 5698TIP3    H138585   2.576   4.968   2.932 -1.6093 -1.6137  1.3521
 5698TIP3    H238586   2.484   5.070   2.996  0.0836  0.8100  0.0139
 5699TIP3   OH238587   0.954   6.280  12.273  0.1362  0.7548  0.0418
 5699TIP3    H138588   0.978   6.187  12.281  0.0338  0.7756  0.6309
 5699TIP3    H238589   1.018   6.316  12.212  0.5957  0.4395  0.3321
 5700TIP3   OH238590   1.687   5.415  14.867  0.5310 -0.6398 -0.1099
 5700TIP3    H138591   1.599   5.437  14.836  1.1248  1.4601 -0.3826
 5700TIP3    H238592   1.685   5.435  14.961  1.2030  1.0799 -0.4419
 5701TIP3   OH238593   2.554   4.157   0.411  0.3206  0.1505  0.3242
 5701TIP3    H138594   2.631   4.214   0.401 -0.6097  1.1719 -1.1788
 5701TIP3    H238595   2.587   4.069   0.394  1.0808  0.6335 -0.7470
 5702TIP3   OH238596   4.510   5.739  15.855 -0.8083  0.1969 -0.2950
 5702TIP3    H138597   4.555   5.675  15.800 -0.1060 -0.1520  0.6831
 5702TIP3    H238598   4.540   5.824  15.822  0.1218 -0.0206 -0.0175
 5703TIP3   OH238599   0.922   3.869  17.203  0.0661  0.0903  0.3402
 5703TIP3    H138600   0.899   3.796  17.146  1.5732 -0.3197  0.2327
 5703TIP3    H238601   0.951   3.827  17.285  1.3203  0.5232  0.1421
 5704TIP3   OH238602   5.857   2.397  14.111  0.6176  0.0982 -0.0117
 5704TIP3    H138603   5.804   2.389  14.032 -1.1652  1.7863  0.9632
 5704TIP3    H238604   5.814   2.465  14.163  1.7218 -0.9692  2.4311
 5705TIP3   OH238605   3.394   0.183  17.130 -0.0233  0.0684  0.1662
 5705TIP3    H138606   3.458   0.138  17.075 -0.0017 -1.9544  1.7419
 5705TIP3    H238607   3.311   0.138  17.112  0.2949 -1.7355  2.9137
 5706TIP3   OH238608   2.038   6.749  16.450 -0.5835  0.0381 -0.1461
 5706TIP3    H138609   2.000   6.832  16.480 -0.1005 -0.1110  0.9262
 5706TIP3    H238610   2.133   6.761  16.461 -0.6088 -1.2847  1.7220
 5707TIP3   OH238611   2.225   2.889  16.364 -0.2093 -0.2732  0.1257
 5707TIP3    H138612   2.275   2.931  16.434 -0.7161  1.7812 -0.7065
 5707TIP3    H238613   2.284   2.889  16.288 -0.1383 -1.2632  0.1792
 5708TIP3   OH238614   3.153   1.539  15.694  0.3329  0.6602  0.0223
 5708TIP3    H138615   3.147   1.587  15.776  1.9140  1.8613 -0.5286
 5708TIP3    H238616   3.244   1.511  15.690  0.2945  0.6944 -1.3492
 5709TIP3   OH238617   5.720   5.840   4.092 -0.1883 -0.3917 -0.1912
 5709TIP3    H138618   5.651   5.852   4.026 -0.5494  2.2632  0.6246
 5709TIP3    H238619   5.673   5.830   4.174  0.3428 -1.1093  0.0269
 5710TIP3   OH238620   4.161   4.016   5.905  0.2163  0.1427 -0.3143
 5710TIP3    H138621   4.219   3.987   5.975  1.4436  0.8642 -1.0219
 5710TIP3    H238622   4.084   4.049   5.952  0.4601 -0.6001  0.6380
 5711TIP3   OH238623   5.897   6.624   2.926  0.2385 -0.2231 -0.2438
 5711TIP3    H138624   5.945   6.626   3.009 -1.3055  0.6091  0.6565
 5711TIP3    H238625   5.935   6.696   2.875 -2.4536  2.8582  1.8958
 5712TIP3   OH238626   4.564   6.114   1.026  0.1222 -0.8619 -0.6191
 5712TIP3    H138627   4.504   6.073   1.089  1.3328 -1.4885  0.1500
 5712TIP3    H238628   4.588   6.043   0.966 -0.8930 -0.3045 -1.7035
 5713TIP3   OH238629   0.447   6.261  15.300 -0.2537  0.3273 -0.8927
 5713TIP3    H138630   0.477   6.337  15.250 -0.2001  0.8557 -0.0665
 5713TIP3    H238631   0.376   6.223  15.247 -0.4931  1.1366 -1.1514
 5714TIP3   OH238632   0.407   2.878   5.060 -0.0049  0.2900  0.1339
 5714TIP3    H138633   0.483   2.917   5.017 -0.0796  0.7626  0.4226
 5714TIP3    H238634   0.383   2.804   5.004  0.0795  0.7163 -0.4747
 5715TIP3   OH238635   1.223   5.589   5.791  0.0670  0.2732  0.3157
 5715TIP3    H138636   1.141   5.607   5.745  0.2174  0.0083 -0.0532
 5715TIP3    H238637   1.269   5.673   5.791 -0.6196  0.6605  1.3610
 5716TIP3   OH238638   2.455   3.502   0.711  0.3201  0.3879  0.2111
 5716TIP3    H138639   2.467   3.439   0.640  0.8615  1.5013 -0.7023
 5716TIP3    H238640   2.362   3.498   0.731  0.2336 -0.2141 -0.2844
 5717TIP3   OH238641   5.139   5.125   3.386  0.2648  0.7219 -0.3707
 5717TIP3    H138642   5.082   5.172   3.447  0.8112 -0.2724  0.9322
 5717TIP3    H238643   5.088   5.050   3.358 -0.3329  1.6781 -1.8796
 5718TIP3   OH238644   1.263   0.678  16.217  0.3126 -0.2883 -0.1214
 5718TIP3    H138645   1.313   0.598  16.201 -0.0675 -0.2741 -1.5369
 5718TIP3    H238646   1.190   0.672  16.155  0.4702  1.3118 -0.4797
 5719TIP3   OH238647   1.041   2.249  11.789 -0.0465 -0.1198  0.1648
 5719TIP3    H138648   0.990   2.197  11.726 -0.0710 -0.2242  0.2701
 5719TIP3    H238649   1.130   2.216  11.780 -0.1054 -0.3503  0.4037
 5720TIP3   OH238650   5.805   4.762   0.008  0.1231 -0.1718  0.1267
 5720TIP3    H138651   5.725   4.730   0.048 -0.4114  0.1138 -0.7083
 5720TIP3    H238652   5.836   4.831   0.067 -0.7021  0.3071 -0.0068
 5721TIP3   OH238653   0.600   1.581   3.792 -0.5788  0.2366 -0.0852
 5721TIP3    H138654   0.690   1.604   3.769 -0.3032 -0.8454 -0.0898
 5721TIP3    H238655   0.566   1.659   3.837  0.0329  1.0188 -0.9686
 5722TIP3   OH238656   6.407   2.122  11.626  0.5083 -0.0320 -1.1843
 5722TIP3    H138657   6.345   2.194  11.616  0.9105  0.3557 -0.9032
 5722TIP3    H238658   6.367   2.064  11.692  0.7192  0.5117 -0.5764
 5723TIP3   OH238659   3.499   5.620   4.654 -0.0630 -0.9780 -0.3378
 5723TIP3    H138660   3.498   5.596   4.747 -0.4887 -0.6679 -0.2570
 5723TIP3    H238661   3.556   5.556   4.613 -3.1614 -3.7476 -0.5786
 5724TIP3   OH238662   4.939   5.981   6.026 -0.4304 -0.0839  0.0740
 5724TIP3    H138663   4.967   6.034   6.101 -1.5119  0.1388  0.3341
 5724TIP3    H238664   4.910   5.898   6.065 -0.3547 -0.2231 -0.1657
 5725TIP3   OH238665   6.156   0.629  17.205  0.8007  0.4824  0.1880
 5725TIP3    H138666   6.171   0.634  17.111 -1.4582 -2.2726 -0.3835
 5725TIP3    H238667   6.120   0.715  17.228 -1.1479  0.2858 -1.9603
 5726TIP3   OH238668   5.451   2.571  12.577 -0.3660  0.2027  0.5422
 5726TIP3    H138669   5.391   2.516  12.526 -0.7212  0.2831  0.8729
 5726TIP3    H238670   5.408   2.580  12.662 -0.6825  1.6367  0.2425
 5727TIP3   OH238671   4.656   6.429  16.738 -0.3704  0.0632 -0.2393
 5727TIP3    H138672   4.654   6.366  16.666 -0.9410 -0.2531  0.0548
 5727TIP3    H238673   4.668   6.514  16.695 -0.0952 -0.1922 -0.6662
 5728TIP3   OH238674   5.077   6.377   2.972 -0.6196 -0.2421  0.1126
 5728TIP3    H138675   5.152   6.331   3.009 -1.5728 -0.6909  1.5385
 5728TIP3    H238676   5.114   6.455   2.931  0.7375 -1.0271 -0.1886
 5729TIP3   OH238677   4.750   3.919  14.256  0.1633  0.0032  0.2120
 5729TIP3    H138678   4.658   3.893  14.261  0.9185 -2.3002  3.7179
 5729TIP3    H238679   4.747   4.014  14.247 -2.5672 -0.2525 -2.1091
 5730TIP3   OH238680   4.001   3.320   3.381  0.0693 -0.0860  0.1760
 5730TIP3    H138681   3.959   3.366   3.455  0.5293 -0.9390  0.9795
 5730TIP3    H238682   3.971   3.230   3.390  0.2092 -0.2088 -0.6370
 5731TIP3   OH238683   2.949   3.119   4.300 -0.2412  0.1662  0.5573
 5731TIP3    H138684   2.977   3.118   4.391 -0.6502  0.6423  0.6915
 5731TIP3    H238685   3.025   3.151   4.251  0.3189 -1.0708  0.6079
 5732TIP3   OH238686   0.925   3.422   4.353 -0.0619 -0.4471 -0.5721
 5732TIP3    H138687   1.019   3.411   4.338  0.0246 -1.0677  0.4506
 5732TIP3    H238688   0.887   3.426   4.265  1.0604  1.0319 -1.0020
 5733TIP3   OH238689   6.736   1.588   4.333  0.1298  0.0863 -0.1531
 5733TIP3    H138690   6.720   1.509   4.384  1.4851  0.0784  0.2766
 5733TIP3    H238691   6.831   1.600   4.336  0.0452  1.0827 -1.1832
 5734TIP3   OH238692   0.161   5.397  15.588 -0.2170  0.3371  0.3406
 5734TIP3    H138693   0.168   5.457  15.662 -0.2685  0.5466  0.1761
 5734TIP3    H238694   0.105   5.326  15.619 -2.0696  1.5139 -0.2005
 5735TIP3   OH238695   3.076   4.072  11.422 -0.7652 -0.5834 -0.1552
 5735TIP3    H138696   3.073   4.027  11.338  0.2818 -3.5891  1.3572
 5735TIP3    H238697   2.985   4.076  11.451 -1.1644  0.7359 -1.5425
 5736TIP3   OH238698   5.114   4.250  15.625  0.4293 -0.4956 -0.2166
 5736TIP3    H138699   5.182   4.184  15.609  1.2291  0.5345 -1.1552
 5736TIP3    H238700   5.116   4.265  15.719  0.0797 -1.9783  0.0387
 5737TIP3   OH238701   6.450   2.235   0.748 -0.0306  0.0472 -0.8046
 5737TIP3    H138702   6.495   2.280   0.819  1.3072 -1.7201 -0.4841
 5737TIP3    H238703   6.439   2.145   0.780  1.6637 -1.1017 -3.2760
 5738TIP3   OH238704   4.018   1.295   4.843  0.3614  0.4813  0.4079
 5738TIP3    H138705   3.965   1.314   4.765  1.2517  2.8167  0.3300
 5738TIP3    H238706   3.991   1.361   4.907  1.1075 -0.1336  1.3766
 5739TIP3   OH238707   1.586   4.942   1.511  0.7830  0.1818  0.4550
 5739TIP3    H138708   1.666   4.900   1.479 -0.1675 -0.1920 -1.5289
 5739TIP3    H238709   1.591   5.032   1.480 -0.2395 -0.2337 -0.9638
 5740TIP3   OH238710   4.804   1.270   2.812  0.3433  0.5951 -0.2206
 5740TIP3    H138711   4.719   1.237   2.784 -0.2371  0.2753  1.8739
 5740TIP3    H238712   4.811   1.356   2.770 -0.2371 -0.1105 -1.7992
 5741TIP3   OH238713   6.128   4.228  14.065 -0.0066  0.5288  0.2364
 5741TIP3    H138714   6.036   4.245  14.087 -0.0017  0.1119  0.5744
 5741TIP3    H238715   6.166   4.315  14.053 -0.4730  0.6997 -0.0130
 5742TIP3   OH238716   3.480   6.354  14.200  0.1980 -0.2104  0.1903
 5742TIP3    H138717   3.441   6.385  14.118 -1.1793  0.3460  1.0385
 5742TIP3    H238718   3.412   6.301  14.240  1.4853 -1.9097  0.1787
 5743TIP3   OH238719   1.084   0.652   6.092 -0.0232 -0.4628  0.3603
 5743TIP3    H138720   1.089   0.671   6.186 -0.7374  0.3269  0.2467
 5743TIP3    H238721   1.119   0.730   6.049  1.5372 -1.3358 -0.0205
 5744TIP3   OH238722   4.717   3.388  15.429  0.2293  0.0852 -0.4699
 5744TIP3    H138723   4.804   3.350  15.416  0.4017  0.9632 -1.9644
 5744TIP3    H238724   4.726   3.444  15.506  0.1090 -2.4501  1.4230
 5745TIP3   OH238725   1.948   5.132  11.853 -0.1694  0.2281 -1.0249
 5745TIP3    H138726   2.031   5.168  11.887  0.0818 -0.5424 -0.7946
 5745TIP3    H238727   1.949   5.152  11.760 -0.0267  0.8048 -0.9004
 5746TIP3   OH238728   6.402   2.473   5.068  0.0466  0.1152  0.4484
 5746TIP3    H138729   6.317   2.443   5.102 -0.0506 -0.4752 -0.2883
 5746TIP3    H238730   6.386   2.562   5.038  0.0631  0.5389  1.6706
 5747TIP3   OH238731   0.326   4.911   1.495 -0.5501 -0.4058 -0.4452
 5747TIP3    H138732   0.371   4.857   1.560 -1.5697 -0.2958  0.3581
 5747TIP3    H238733   0.284   4.849   1.436 -0.0854 -0.5006 -0.6789
 5748TIP3   OH238734   5.772   3.974  13.566 -0.1669 -0.4878 -0.3525
 5748TIP3    H138735   5.848   3.957  13.511 -1.3967 -0.4568 -2.1320
 5748TIP3    H238736   5.738   4.058  13.535 -0.5511 -0.1894  0.8462
 5749TIP3   OH238737   0.636   6.388  16.029  0.0315 -0.1982  0.1782
 5749TIP3    H138738   0.596   6.418  16.110  1.8212  0.9146  0.6882
 5749TIP3    H238739   0.653   6.295  16.043  0.5633  0.0465  1.1907
 5750TIP3   OH238740   1.076   5.809   3.810  0.2925  0.1478 -0.2554
 5750TIP3    H138741   1.156   5.824   3.761  0.2796  0.9781 -0.0223
 5750TIP3    H238742   1.030   5.893   3.809 -0.3486 -0.1894  0.0193
 5751TIP3   OH238743   4.439   1.555  16.608 -0.2676 -0.1525  0.0260
 5751TIP3    H138744   4.515   1.592  16.561  1.3283 -0.4015  2.3403
 5751TIP3    H238745   4.413   1.624  16.669 -1.8974 -0.1011 -0.7051
 5752TIP3   OH238746   1.046   5.121  12.950 -0.1408 -0.5340 -0.0618
 5752TIP3    H138747   1.091   5.037  12.937  0.9663 -0.1238  1.0213
 5752TIP3    H238748   1.107   5.186  12.914 -1.8925 -0.3405 -2.8134
 5753TIP3   OH238749   0.121   1.314   5.730 -0.1399  0.0912  0.3061
 5753TIP3    H138750   0.047   1.256   5.746  0.0086 -0.0731  0.3961
 5753TIP3    H238751   0.153   1.287   5.643  0.8847 -0.9978  1.0066
 5754TIP3   OH238752   4.736   4.078   0.398 -0.2154  0.4554 -0.0124
 5754TIP3    H138753   4.659   4.021   0.400  0.0448  0.1186  1.1613
 5754TIP3    H238754   4.773   4.066   0.311  0.7180 -2.4099  0.7026
 5755TIP3   OH238755   0.047   3.461   6.183 -0.0821  0.0010 -0.0603
 5755TIP3    H138756   0.121   3.504   6.225 -1.0778  1.9350 -0.2156
 5755TIP3    H238757  -0.028   3.481   6.239 -0.6538 -1.1056 -0.4192
 5756TIP3   OH238758   2.244   6.319   0.544 -0.8623  0.3864 -0.0942
 5756TIP3    H138759   2.266   6.401   0.499  0.3568 -0.5679 -1.2743
 5756TIP3    H238760   2.193   6.347   0.620  1.4457  2.4552  0.7933
 5757TIP3   OH238761   1.921   3.076  16.365 -0.2991 -0.5632  0.1004
 5757TIP3    H138762   1.951   3.000  16.414  1.4983  0.3385  0.4261
 5757TIP3    H238763   1.831   3.089  16.394 -0.1510 -1.7083  1.1000
 5758TIP3   OH238764   0.163   4.442   1.280 -0.2675  0.3489 -0.1583
 5758TIP3    H138765   0.236   4.480   1.328 -0.8123  1.5171 -0.2528
 5758TIP3    H238766   0.108   4.403   1.348  0.1841 -0.0895 -0.0442
 5759TIP3   OH238767   1.510   3.538   0.006 -0.3828  0.3202  0.4339
 5759TIP3    H138768   1.589   3.489   0.026  1.1256  2.2323 -0.7055
 5759TIP3    H238769   1.487   3.512  -0.084  0.1684  1.3339 -0.0107
 5760TIP3   OH238770   0.883   1.013  16.382 -0.6687  0.0869 -0.4900
 5760TIP3    H138771   0.964   0.968  16.357  0.2478  1.6075 -0.3366
 5760TIP3    H238772   0.869   0.988  16.474 -0.3812 -0.2098 -0.5279
 5761TIP3   OH238773   3.864   6.687   4.437  0.2123  0.4276  0.3173
 5761TIP3    H138774   3.926   6.690   4.364  0.1392  0.0951  0.2389
 5761TIP3    H238775   3.908   6.735   4.508  0.2714  0.7755  0.0479
 5762TIP3   OH238776   1.278   1.820   1.315 -0.2651 -0.2218  0.0512
 5762TIP3    H138777   1.204   1.848   1.261 -0.8192 -0.7240  0.5408
 5762TIP3    H238778   1.327   1.900   1.333 -1.8441  0.4681  1.4631
 5763TIP3   OH238779   4.420   0.360  16.902  0.3634 -0.1637  0.7910
 5763TIP3    H138780   4.455   0.400  16.822 -0.6090 -0.1449  0.3632
 5763TIP3    H238781   4.400   0.434  16.959 -0.7282 -0.0729  0.2946
 5764TIP3   OH238782   2.352   5.773   3.916  0.5009  0.1729 -0.2101
 5764TIP3    H138783   2.331   5.758   4.008  0.5330 -0.2228 -0.2636
 5764TIP3    H238784   2.350   5.868   3.906  0.6262  0.2256  0.2285
 5765TIP3   OH238785   3.394   5.196  15.460 -0.5063  0.3532  0.1108
 5765TIP3    H138786   3.405   5.197  15.365 -1.1542  0.8632  0.0417
 5765TIP3    H238787   3.444   5.272  15.491  0.4844 -0.3507  0.2681
 5766TIP3   OH238788   2.870   0.515   6.324  0.1441 -0.0700 -0.6734
 5766TIP3    H138789   2.787   0.470   6.343 -0.4516  1.6881  0.9770
 5766TIP3    H238790   2.919   0.510   6.406  1.7426 -1.1752 -1.6634
 5767TIP3   OH238791   4.005   1.437  12.563 -0.0130 -0.3232 -0.6071
 5767TIP3    H138792   4.099   1.452  12.556  0.2661 -1.0681  1.2094
 5767TIP3    H238793   3.982   1.388  12.484  1.2224 -0.5971 -0.7983
 5768TIP3   OH238794   3.403   4.517   0.614  0.3309 -0.7157  0.5579
 5768TIP3    H138795   3.386   4.607   0.642  2.5221 -0.2300  0.3855
 5768TIP3    H238796   3.318   4.473   0.622 -0.1236  0.6137  3.4049
 5769TIP3   OH238797   2.132   3.036   2.148  0.3179  0.2502  0.0876
 5769TIP3    H138798   2.050   3.026   2.195 -0.3109  3.0489 -0.2772
 5769TIP3    H238799   2.170   3.117   2.184  0.6632  1.4841 -2.9113
 5770TIP3   OH238800   1.783   1.394   1.782 -0.0154 -0.0354 -0.6700
 5770TIP3    H138801   1.687   1.395   1.784 -0.0591  0.8727 -2.6814
 5770TIP3    H238802   1.807   1.470   1.729  1.8428 -0.0041  0.1913
 5771TIP3   OH238803   6.235   2.421  13.132 -0.9819  0.1235  0.0049
 5771TIP3    H138804   6.192   2.507  13.127 -1.6744 -0.2277 -0.2090
 5771TIP3    H238805   6.189   2.368  13.066 -1.0905 -0.6383  0.6849
 5772TIP3   OH238806   0.420   0.922  15.169  0.4278  0.2611  0.1715
 5772TIP3    H138807   0.442   1.007  15.208  1.5725  0.6861 -1.3746
 5772TIP3    H238808   0.331   0.934  15.136 -0.2973  0.1144  1.9838
 5773TIP3   OH238809   3.983   0.503  10.682 -0.2032 -0.0436  0.0362
 5773TIP3    H138810   4.022   0.415  10.689  0.3599  0.1897 -0.1790
 5773TIP3    H238811   3.971   0.530  10.773  1.1807  0.3402  0.1165
 5774TIP3   OH238812   0.496   0.817   4.484  0.5404 -0.1302  0.0060
 5774TIP3    H138813   0.575   0.789   4.530 -0.1863 -0.1774  1.2563
 5774TIP3    H238814   0.431   0.749   4.503  0.3437 -0.3724 -1.4642
 5775TIP3   OH238815   6.107   1.622  11.158  0.3398 -0.4453  0.0835
 5775TIP3    H138816   6.171   1.689  11.182  1.5976 -1.6386  0.1238
 5775TIP3    H238817   6.150   1.539  11.180 -0.9354 -1.2914 -0.5743
 5776TIP3   OH238818   1.606   3.146  11.333  0.1247  0.5298  0.2569
 5776TIP3    H138819   1.604   3.063  11.286 -1.3211  0.5728  0.2336
 5776TIP3    H238820   1.624   3.212  11.266  0.0900  0.3626  0.0851
 5777TIP3   OH238821   2.895   4.402   0.580 -0.4613 -0.0381 -0.5141
 5777TIP3    H138822   2.988   4.422   0.586 -0.8474  1.9200 -0.6066
 5777TIP3    H238823   2.871   4.374   0.669  0.0133  0.4340 -0.2300
 5778TIP3   OH238824   6.135   0.573  10.240  0.2708  0.2763 -0.8501
 5778TIP3    H138825   6.101   0.494  10.282  0.0336 -0.1837 -1.8912
 5778TIP3    H238826   6.230   0.570  10.256  0.4235 -0.8478 -1.9034
 5779TIP3   OH238827   6.133   6.298   1.582  0.2958 -0.1384 -0.1972
 5779TIP3    H138828   6.180   6.294   1.498  0.3309  1.0256 -0.2450
 5779TIP3    H238829   6.189   6.352   1.638 -0.8079  0.9690 -0.1440
 5780TIP3   OH238830   0.965   5.658   4.770  0.3592  0.0728 -0.0102
 5780TIP3    H138831   0.945   5.751   4.767  1.2613  0.3698  2.1641
 5780TIP3    H238832   0.903   5.622   4.835  1.5368 -0.4114  0.8630
 5781TIP3   OH238833   6.724   3.208   0.046  0.1989  0.5335  0.2541
 5781TIP3    H138834   6.786   3.169  -0.016  1.7577  0.7985  1.5925
 5781TIP3    H238835   6.690   3.285   0.000 -0.8117 -0.8531 -1.3394
 5782TIP3   OH238836   3.497   5.744  14.133 -0.7329 -0.1062 -0.2452
 5782TIP3    H138837   3.570   5.695  14.172  0.3230  0.3253 -1.6491
 5782TIP3    H238838   3.460   5.684  14.069 -0.9610  0.0656 -0.2752
 5783TIP3   OH238839   3.198   0.310   0.061  0.1727  0.9673  0.3023
 5783TIP3    H138840   3.127   0.360   0.021  0.0930  0.6575  0.0543
 5783TIP3    H238841   3.214   0.239  -0.001  0.0578  0.4922  0.8202
 5784TIP3   OH238842   0.747   6.512   5.068 -0.2032  0.4562 -0.6311
 5784TIP3    H138843   0.712   6.432   5.030  1.8834  0.4990 -2.7696
 5784TIP3    H238844   0.822   6.483   5.120  0.2034  0.9688 -0.9304
 5785TIP3   OH238845   6.323   2.421   1.021  0.5590  0.0882  0.4247
 5785TIP3    H138846   6.341   2.457   1.107 -0.8330  0.2088  0.6799
 5785TIP3    H238847   6.303   2.329   1.036  0.7336  0.0094  0.1844
 5786TIP3   OH238848   3.125   4.240  14.498  0.3685  0.4164 -0.2802
 5786TIP3    H138849   3.184   4.248  14.574 -0.4104  0.4255  0.3327
 5786TIP3    H238850   3.157   4.164  14.451  0.2608 -0.1916  0.6108
 5787TIP3   OH238851   5.632   3.271   5.144 -0.1755  0.1202  0.2622
 5787TIP3    H138852   5.684   3.349   5.164  2.2655 -1.5386  0.4423
 5787TIP3    H238853   5.629   3.268   5.048 -0.4545  0.5132  0.2534
 5788TIP3   OH238854   4.561   3.375  12.951 -0.2741 -0.2957 -0.3463
 5788TIP3    H138855   4.513   3.330  13.020  0.9280 -0.3219  0.4785
 5788TIP3    H238856   4.653   3.363  12.973  0.1353 -0.7432 -2.2456
 5789TIP3   OH238857   6.723   0.760  14.175 -0.6490  0.1350  0.1584
 5789TIP3    H138858   6.688   0.711  14.249  0.4002 -0.5365  0.2195
 5789TIP3    H238859   6.805   0.715  14.153  0.6988  2.2361  0.6647
 5790TIP3   OH238860   6.759   6.605  11.644  0.1146 -0.3807 -0.4392
 5790TIP3    H138861   6.803   6.680  11.604  2.7563 -0.9841  1.1420
 5790TIP3    H238862   6.728   6.637  11.729  2.7647 -1.4082  1.0025
 5791TIP3   OH238863   1.705   5.659  16.765 -0.4207  0.4822 -0.1524
 5791TIP3    H138864   1.629   5.663  16.823  1.2927 -0.1985  2.2114
 5791TIP3    H238865   1.745   5.574  16.782  0.3154  0.3948 -2.1159
 5792TIP3   OH238866   5.358   0.796   3.881 -0.1649  0.0153 -0.4063
 5792TIP3    H138867   5.447   0.802   3.914  0.2155 -1.4134 -1.1652
 5792TIP3    H238868   5.317   0.727   3.933 -0.5807  0.0796 -0.6428
 5793TIP3   OH238869   3.970   5.537   5.606  0.4720  0.3718  0.1683
 5793TIP3    H138870   3.887   5.491   5.604  0.7075 -0.0655  0.3061
 5793TIP3    H238871   3.951   5.625   5.573 -0.1010  0.3668  0.4915
 5794TIP3   OH238872   0.257   2.344   6.507  0.2888  0.0322 -0.1436
 5794TIP3    H138873   0.192   2.306   6.567  0.6075 -0.1162  0.1081
 5794TIP3    H238874   0.292   2.419   6.554 -0.3261  0.6324 -0.6338
 5795TIP3   OH238875   5.036   4.886  17.046  0.0198  0.5379  0.2494
 5795TIP3    H138876   5.049   4.888  17.141  0.0268 -0.4902  0.2764
 5795TIP3    H238877   5.099   4.950  17.012  1.8039 -0.8829  0.7544
 5796TIP3   OH238878   1.880   3.394   5.319 -0.4975  0.3774  0.0384
 5796TIP3    H138879   1.958   3.418   5.269  0.0706 -1.9858 -0.2932
 5796TIP3    H238880   1.838   3.477   5.339  0.8332  1.5538 -1.8368
 5797TIP3   OH238881   3.586   3.981  12.065 -0.8257 -0.3947 -0.3501
 5797TIP3    H138882   3.591   4.075  12.047  2.3537 -0.8887 -2.3301
 5797TIP3    H238883   3.561   3.942  11.982  1.0185 -1.5721 -0.3658
 5798TIP3   OH238884   2.812   6.453  11.916  0.2985  0.6079 -0.1561
 5798TIP3    H138885   2.788   6.524  11.856  0.2243  0.7628  0.0581
 5798TIP3    H238886   2.738   6.446  11.976  0.6223  0.8310  0.2669
 5799TIP3   OH238887   5.030   6.193  17.013  0.3809 -0.3021 -0.5558
 5799TIP3    H138888   4.972   6.167  17.085  0.5950  0.5821 -0.0624
 5799TIP3    H238889   4.971   6.228  16.946  0.0017 -2.7110 -1.5485
 5800TIP3   OH238890   4.890   0.666  13.752 -0.5833 -0.3845  0.2069
 5800TIP3    H138891   4.865   0.705  13.669  1.2781 -1.5230 -0.9220
 5800TIP3    H238892   4.808   0.656  13.800 -1.6303  0.5718 -1.3614
 5801TIP3   OH238893   6.041   2.074   2.227 -0.5892 -0.0814 -0.3098
 5801TIP3    H138894   6.073   2.144   2.170 -2.8403  1.5070  0.3266
 5801TIP3    H238895   6.027   2.116   2.311 -3.3940 -0.9504 -0.3098
 5802TIP3   OH238896   3.281   3.115  15.358 -0.3599 -0.1646 -0.4874
 5802TIP3    H138897   3.291   3.022  15.378 -0.6198 -0.1166 -0.1315
 5802TIP3    H238898   3.296   3.159  15.442  0.7380  0.1796 -0.8607
 5803TIP3   OH238899   5.161   3.189   6.322  0.3635  0.3210 -0.2878
 5803TIP3    H138900   5.247   3.197   6.363  0.8213  0.7968 -1.3317
 5803TIP3    H238901   5.103   3.242   6.378  1.1033  1.4559 -0.5744
 5804TIP3   OH238902   4.793   3.340   2.662  0.2253  0.1262 -0.3924
 5804TIP3    H138903   4.842   3.285   2.601  0.4547  0.5205 -0.5694
 5804TIP3    H238904   4.849   3.416   2.676 -0.6795  0.9650 -1.2283
 5805TIP3   OH238905   5.665   2.534   5.119  0.0079  0.0318  0.3741
 5805TIP3    H138906   5.729   2.600   5.093  1.0046 -0.5916  1.2235
 5805TIP3    H238907   5.665   2.471   5.047 -0.8646  0.8921 -0.3872
 5806TIP3   OH238908   5.579   2.764  14.075  0.1313  0.3068 -0.6670
 5806TIP3    H138909   5.558   2.855  14.094 -0.3947 -0.1907  1.2734
 5806TIP3    H238910   5.521   2.714  14.132  2.0255 -1.2104 -0.0231
 5807TIP3   OH238911   1.535   3.049   2.546  0.7569 -0.2735  0.0903
 5807TIP3    H138912   1.451   3.091   2.563  0.8760  0.0045 -0.0090
 5807TIP3    H238913   1.597   3.097   2.601  1.1363  0.5922 -1.0690
 5808TIP3   OH238914   6.205   3.337   3.974  0.3166  0.3666 -0.1101
 5808TIP3    H138915   6.118   3.338   4.015  0.6380 -1.6376  0.6645
 5808TIP3    H238916   6.266   3.335   4.047  1.0758  2.8534 -0.6434
 5809TIP3   OH238917   1.677   5.417  15.126  0.5071  0.2078 -0.4179
 5809TIP3    H138918   1.694   5.468  15.206  1.5368 -0.1424 -0.4063
 5809TIP3    H238919   1.620   5.346  15.155  0.5646  0.2984 -0.0791
 5810TIP3   OH238920   2.017   1.355  12.811  0.3971  0.2948  0.1064
 5810TIP3    H138921   1.992   1.330  12.900  0.0059  0.9622  0.1866
 5810TIP3    H238922   2.107   1.388  12.820  0.8930 -0.9823  0.0099
 5811TIP3   OH238923   2.870   0.255  12.721  0.3715  0.7666 -0.2119
 5811TIP3    H138924   2.842   0.226  12.634 -0.7256 -0.7738  0.6295
 5811TIP3    H238925   2.936   0.322  12.703 -0.3011  0.9389 -2.2307
 5812TIP3   OH238926   4.077   2.027   1.342  0.4252  0.1090 -0.3101
 5812TIP3    H138927   4.017   1.954   1.356  2.2858 -0.9899  2.4087
 5812TIP3    H238928   4.048   2.093   1.405  0.2708  0.7632 -1.0603
 5813TIP3   OH238929   3.505   0.952   4.517 -0.1113  0.0750  0.9510
 5813TIP3    H138930   3.518   1.047   4.525  1.5782 -0.1768  1.2963
 5813TIP3    H238931   3.593   0.916   4.512 -0.7736 -1.3670 -0.6407
 5814TIP3   OH238932   2.289   0.998  14.345 -0.5009  0.0885  0.0748
 5814TIP3    H138933   2.287   0.952  14.428 -1.4895 -0.3001 -0.1598
 5814TIP3    H238934   2.265   0.932  14.280 -1.1006  0.7270 -0.3572
 5815TIP3   OH238935   4.616   3.183  13.442  0.0866 -0.4454 -0.3309
 5815TIP3    H138936   4.710   3.190  13.459  0.3175 -1.2399 -1.2347
 5815TIP3    H238937   4.586   3.273  13.438  1.1892 -0.1287 -2.0949
 5816TIP3   OH238938   4.939   1.500  14.366 -0.0588  0.1973 -0.3011
 5816TIP3    H138939   5.013   1.503  14.427  1.4791  1.6864 -2.1688
 5816TIP3    H238940   4.907   1.410  14.371  1.9214 -0.4835  0.4951
 5817TIP3   OH238941   2.864   5.585  15.483 -0.4266  0.0307 -0.8526
 5817TIP3    H138942   2.828   5.505  15.522 -0.3905 -0.1220 -1.1246
 5817TIP3    H238943   2.823   5.656  15.531 -1.0596 -0.1434 -1.1257
 5818TIP3   OH238944   1.436   3.484  17.026  0.1240 -0.0029  0.3458
 5818TIP3    H138945   1.478   3.400  17.008 -0.9297 -0.3001 -0.8219
 5818TIP3    H238946   1.491   3.549  16.983 -0.1877 -0.3157 -0.5409
 5819TIP3   OH238947   3.345   1.551   3.994  0.3830  0.3103  1.0165
 5819TIP3    H138948   3.318   1.576   3.905  0.9115  0.5110  0.9086
 5819TIP3    H238949   3.297   1.611   4.051 -0.0330  0.1167  0.8698
 5820TIP3   OH238950   4.145   3.244  15.224 -0.9491 -0.7610 -0.1699
 5820TIP3    H138951   4.174   3.329  15.193  0.1528 -1.6542 -1.6481
 5820TIP3    H238952   4.098   3.206  15.150  0.3841 -2.2993 -0.2616
 5821TIP3   OH238953   5.429   6.176   3.781 -0.1811  0.2005  0.1048
 5821TIP3    H138954   5.422   6.268   3.807 -0.4693  0.8690 -2.1969
 5821TIP3    H238955   5.521   6.154   3.796 -0.2873  0.6016  1.4422
 5822TIP3   OH238956   6.432   0.957   5.622 -0.6327 -0.0502 -0.3446
 5822TIP3    H138957   6.473   0.970   5.537  0.3096  0.8812  0.2420
 5822TIP3    H238958   6.505   0.935   5.681 -0.9639  1.4664  0.6754
 5823TIP3   OH238959   0.814   6.269   3.453 -0.6103 -0.3923 -0.0662
 5823TIP3    H138960   0.842   6.349   3.498 -1.2417 -0.7927  1.0586
 5823TIP3    H238961   0.895   6.224   3.432 -0.2611  0.3798 -0.4225
 5824TIP3   OH238962   3.494   6.541   0.249 -0.1493 -0.0648 -0.2502
 5824TIP3    H138963   3.485   6.457   0.202  1.6742 -0.0147 -0.7301
 5824TIP3    H238964   3.580   6.574   0.222 -1.2211  2.3911 -0.7501
 5825TIP3   OH238965   6.333   4.447   1.925 -0.2032 -0.6190  0.4337
 5825TIP3    H138966   6.390   4.375   1.947  0.4839 -0.2270 -0.0434
 5825TIP3    H238967   6.391   4.516   1.894 -0.9936 -0.5873 -1.0509
 5826TIP3   OH238968   1.783   1.509   0.673  0.2876  0.2286 -0.5482
 5826TIP3    H138969   1.853   1.564   0.708  0.9240 -0.0250 -1.4226
 5826TIP3    H238970   1.754   1.553   0.594  1.8259 -1.4260 -2.0944
 5827TIP3   OH238971   1.123   0.283  12.765  0.0993 -0.2606 -0.4223
 5827TIP3    H138972   1.099   0.374  12.785 -1.3538 -0.8576  0.5777
 5827TIP3    H238973   1.127   0.240  12.851  0.7846 -1.1545 -0.8958
 5828TIP3   OH238974   6.470   5.624  16.232  0.2300 -0.1816 -0.1877
 5828TIP3    H138975   6.462   5.558  16.301 -0.0412  0.3530  0.3031
 5828TIP3    H238976   6.496   5.575  16.154  0.3078 -0.8256  0.2399
 5829TIP3   OH238977   4.876   1.317   0.561 -0.1967  0.7450  1.0967
 5829TIP3    H138978   4.814   1.295   0.630 -0.1942  0.1511  0.9160
 5829TIP3    H238979   4.919   1.234   0.541 -1.6305  0.4700 -1.0240
 5830TIP3   OH238980   4.349   0.036   3.973 -0.0216  0.4277 -0.1905
 5830TIP3    H138981   4.415   0.053   3.906  0.3119 -0.3755 -0.0766
 5830TIP3    H238982   4.302   0.119   3.983 -0.9495  0.1942 -2.3535
 5831TIP3   OH238983   1.944   1.689  11.601 -0.1049  0.3610  0.2944
 5831TIP3    H138984   1.858   1.684  11.642 -0.2161  0.0006  0.0228
 5831TIP3    H238985   1.932   1.745  11.524 -0.1458  0.1378  0.1381
 5832TIP3   OH238986   1.481   0.083   3.947 -0.2240  0.6327 -0.1101
 5832TIP3    H138987   1.481   0.159   4.005 -0.3447  0.6187 -0.0917
 5832TIP3    H238988   1.553   0.028   3.978 -0.4625  0.4949  0.1963
 5833TIP3   OH238989   1.476   3.825   6.178  0.6077 -0.2822  0.2075
 5833TIP3    H138990   1.413   3.832   6.250  0.8532  0.7108  0.3199
 5833TIP3    H238991   1.422   3.807   6.101  0.0971  1.4597  0.1439
 5834TIP3   OH238992   2.917   1.036   2.415  0.0494 -0.0904  0.5528
 5834TIP3    H138993   2.995   1.030   2.470  0.6740 -2.2387 -0.5145
 5834TIP3    H238994   2.939   1.102   2.350  1.2669 -1.2074 -0.1823
 5835TIP3   OH238995   2.872   5.489   4.852 -0.4739  0.0705  0.3947
 5835TIP3    H138996   2.909   5.512   4.767  0.9863 -0.7181  0.7946
 5835TIP3    H238997   2.803   5.426   4.832 -1.3813  1.2659 -0.3322
 5836TIP3   OH238998   5.164   2.755  16.047  0.4545  0.0607  0.2963
 5836TIP3    H138999   5.166   2.720  16.136 -0.8540  2.8180  1.4600
 5836TIP3    H239000   5.224   2.830  16.049 -2.6029  2.5956 -0.0056
 5837TIP3   OH239001   1.700   5.115  16.823  0.3103  0.3279  0.0935
 5837TIP3    H139002   1.740   5.031  16.846 -0.9482 -0.0548  0.9196
 5837TIP3    H239003   1.695   5.113  16.727 -0.5811 -0.9400  0.1636
 5838TIP3   OH239004   0.860   4.148   0.838 -0.2086  0.2513  0.2254
 5838TIP3    H139005   0.790   4.149   0.904 -2.8777 -0.9983 -2.4419
 5838TIP3    H239006   0.859   4.059   0.804  1.3483  0.7812 -1.2522
 5839TIP3   OH239007   4.023   2.347   0.157  0.1961 -0.0074  0.2721
 5839TIP3    H139008   3.949   2.287   0.165 -0.0254  0.2594  0.2514
 5839TIP3    H239009   3.982   2.431   0.136  0.6723 -0.4531 -2.6259
 5840TIP3   OH239010   3.393   3.800   4.713  0.0600 -0.0816 -0.5484
 5840TIP3    H139011   3.348   3.715   4.711 -2.2295  1.0665 -0.1151
 5840TIP3    H239012   3.322   3.864   4.710  1.7907  1.8369 -1.9074
 5841TIP3   OH239013   3.323   3.914  16.736  0.6836 -0.0161  0.0111
 5841TIP3    H139014   3.362   3.951  16.815 -0.6125  0.2585  0.5313
 5841TIP3    H239015   3.252   3.974  16.713 -1.4342 -2.1154  0.8452
 5842TIP3   OH239016   4.154   0.580  12.530  0.6467 -0.5485 -0.5072
 5842TIP3    H139017   4.232   0.633  12.513 -0.3801  1.2565  0.2496
 5842TIP3    H239018   4.152   0.572  12.626 -1.2482  1.2606 -0.3549
 5843TIP3   OH239019   3.873   1.028  13.629 -0.4453 -0.2376  0.0941
 5843TIP3    H139020   3.888   1.114  13.592 -0.2070 -0.4317 -0.2660
 5843TIP3    H239021   3.793   1.037  13.681 -1.8755 -0.4038 -1.9813
 5844TIP3   OH239022   5.454   1.185   3.450  0.2823  0.0664 -0.8552
 5844TIP3    H139023   5.506   1.161   3.373 -0.4217 -1.8034 -0.7723
 5844TIP3    H239024   5.425   1.101   3.486 -2.4726  1.0280 -0.6850
 5845TIP3   OH239025   5.341   3.968  10.687  0.7106 -0.2101  0.2552
 5845TIP3    H139026   5.436   3.970  10.694  0.6463 -0.6446  1.3818
 5845TIP3    H239027   5.311   4.044  10.736  0.4067 -1.0540  1.3928
 5846TIP3   OH239028   6.811   4.346   6.176  0.7761 -0.7534 -0.1528
 5846TIP3    H139029   6.735   4.389   6.217  0.6802 -0.4047 -0.6978
 5846TIP3    H239030   6.855   4.302   6.249  1.6589  1.4353  0.6600
 5847TIP3   OH239031   3.131   1.825   0.602  0.4320  0.0834  0.4823
 5847TIP3    H139032   3.168   1.754   0.550  0.9521  0.1399  0.7627
 5847TIP3    H239033   3.066   1.783   0.658  1.1419 -0.2625  1.0509
 5848TIP3   OH239034   2.322   1.758  12.909 -0.0459  0.6482  0.5915
 5848TIP3    H139035   2.258   1.731  12.975  0.8362 -0.3928  1.0407
 5848TIP3    H239036   2.343   1.849  12.932  2.1803 -0.4860  3.3650
 5849TIP3   OH239037   1.804   2.735   0.261  0.2508 -0.2444  0.2208
 5849TIP3    H139038   1.781   2.683   0.337 -2.5248 -0.4095 -0.6920
 5849TIP3    H239039   1.737   2.803   0.257  0.3430 -0.2451 -2.0711
 5850TIP3   OH239040   1.887   0.236   6.036 -0.0656 -0.1698  0.4127
 5850TIP3    H139041   1.861   0.217   5.946  0.5918  0.5329  0.0623
 5850TIP3    H239042   1.817   0.199   6.090 -0.7563 -0.0906 -0.4139
 5851TIP3   OH239043   5.486   0.964  14.982  0.2290  0.1281  0.0424
 5851TIP3    H139044   5.448   0.876  14.969 -1.3463  0.9062 -0.7899
 5851TIP3    H239045   5.545   0.954  15.056  0.9189 -1.9067 -0.7337
 5852TIP3   OH239046   3.216   2.625  16.310  0.3697 -0.4297  0.0084
 5852TIP3    H139047   3.220   2.549  16.252  2.9271 -0.4947  0.1883
 5852TIP3    H239048   3.299   2.622  16.358 -0.0699  1.7461  0.9471
 5853TIP3   OH239049   5.068   3.394   4.519 -0.3954  0.8485  0.2904
 5853TIP3    H139050   5.081   3.309   4.477 -1.0546 -0.0374  1.8701
 5853TIP3    H239051   5.068   3.456   4.446 -0.4497 -0.5520 -0.9287
 5854TIP3   OH239052   0.196   6.687  14.830  0.4926 -0.3857  1.0444
 5854TIP3    H139053   0.118   6.634  14.847 -0.4637  0.7142  0.1893
 5854TIP3    H239054   0.232   6.706  14.916 -0.3047 -0.7127  1.4562
 5855TIP3   OH239055   3.523   4.257  13.666 -0.0211 -0.0242  0.1102
 5855TIP3    H139056   3.583   4.270  13.739 -0.3670  0.9260  0.2258
 5855TIP3    H239057   3.468   4.184  13.694  0.1463  0.0374  0.6084
 5856TIP3   OH239058   2.422   1.209  13.783  0.5093  0.0289  0.4584
 5856TIP3    H139059   2.508   1.168  13.777  0.7540  0.8364 -1.9876
 5856TIP3    H239060   2.359   1.137  13.780  1.0393 -0.4086 -0.0648
 5857TIP3   OH239061   4.298   0.109  16.934  0.0502  0.2989 -0.8808
 5857TIP3    H139062   4.212   0.151  16.930 -0.0259  0.6009  2.3844
 5857TIP3    H239063   4.361   0.179  16.917 -0.2813  0.3402 -1.9791
 5858TIP3   OH239064   6.144   2.682   4.824 -0.4753  0.1043  0.3211
 5858TIP3    H139065   6.153   2.705   4.917 -0.0468  1.2627  0.0075
 5858TIP3    H239066   6.121   2.589   4.824 -0.9506  0.2120  1.6030
 5859TIP3   OH239067   3.938   4.975  11.974 -0.7581 -0.0829 -0.5746
 5859TIP3    H139068   3.966   4.923  11.899  1.1714 -0.7039  0.5420
 5859TIP3    H239069   3.908   4.910  12.038  0.6949  0.2036  0.4281
 5860TIP3   OH239070   0.395   4.331  12.564  0.9866 -0.4344  0.1324
 5860TIP3    H139071   0.468   4.392  12.559 -0.5670  1.5285  0.5695
 5860TIP3    H239072   0.341   4.363  12.636 -2.5095  0.7191 -2.8162
 5861TIP3   OH239073   3.321   0.799  13.264  0.6124 -0.0009  0.0387
 5861TIP3    H139074   3.376   0.762  13.195  1.4260 -0.2357  0.8168
 5861TIP3    H239075   3.376   0.864  13.307  0.3502 -0.3796  0.9579
 5862TIP3   OH239076   5.320   2.353  10.231 -0.3331  0.5268  0.4891
 5862TIP3    H139077   5.231   2.346  10.198 -0.3479  0.0470  0.6236
 5862TIP3    H239078   5.338   2.447  10.233 -0.3879  0.5610 -0.7128
 5863TIP3   OH239079   5.315   5.552  16.463  0.3186  0.2401 -0.4646
 5863TIP3    H139080   5.284   5.613  16.530  0.4204 -1.1645  0.8939
 5863TIP3    H239081   5.392   5.510  16.502 -1.2011 -2.5671 -0.3501
 5864TIP3   OH239082   2.500   0.750   4.275  0.4536 -0.2838 -0.1517
 5864TIP3    H139083   2.543   0.718   4.354 -0.2905  2.3222  1.3634
 5864TIP3    H239084   2.499   0.845   4.284  0.0277  0.0558 -3.1440
 5865TIP3   OH239085   3.310   5.192  13.383 -0.1920  0.2844 -1.1621
 5865TIP3    H139086   3.284   5.214  13.473  1.4705 -0.3064 -0.4995
 5865TIP3    H239087   3.230   5.160  13.342 -0.3401 -2.5440  1.1413
 5866TIP3   OH239088   4.989   4.859  14.787 -0.5026 -0.1259  0.1368
 5866TIP3    H139089   4.920   4.825  14.729 -0.8247 -0.6485  0.8129
 5866TIP3    H239090   4.982   4.806  14.866 -1.5622  2.0780  1.5680
 5867TIP3   OH239091   1.871   1.188   1.239  0.3691 -0.1735 -0.1953
 5867TIP3    H139092   1.821   1.203   1.319  2.1394 -0.9378  1.0903
 5867TIP3    H239093   1.931   1.262   1.233 -0.7374  0.6493 -1.6429
 5868TIP3   OH239094   0.868   0.931  10.661  0.1492  0.0260 -0.5038
 5868TIP3    H139095   0.951   0.911  10.705 -0.5337 -1.4258  0.1663
 5868TIP3    H239096   0.883   0.906  10.570  0.2213 -0.8858 -0.2422
 5869TIP3   OH239097   4.892   6.400  16.874 -0.1319  0.7395  0.2756
 5869TIP3    H139098   4.809   6.409  16.826 -0.4218  1.0921  0.8332
 5869TIP3    H239099   4.883   6.460  16.947  0.0727 -0.2271  1.1036
 5870TIP3   OH239100   0.468   1.285   6.817 -0.2211 -0.4704  0.0045
 5870TIP3    H139101   0.451   1.340   6.893 -2.7672 -0.9214 -0.2020
 5870TIP3    H239102   0.498   1.202   6.854  0.6977  0.0382  0.4162
 5871TIP3   OH239103   3.632   0.554  16.850  0.0781  0.0740  0.1576
 5871TIP3    H139104   3.544   0.554  16.888  1.0133  0.9537  2.3423
 5871TIP3    H239105   3.637   0.637  16.803  0.2286  0.6552  1.1902
 5872TIP3   OH239106   4.093   2.667  11.470 -0.1783 -0.3866  0.6841
 5872TIP3    H139107   4.010   2.676  11.518  0.5540 -0.2777  1.9659
 5872TIP3    H239108   4.148   2.737  11.506  1.0114 -1.4767  1.0226
 5873TIP3   OH239109   3.903   5.263  15.766  0.3779 -0.6061  0.0184
 5873TIP3    H139110   3.940   5.277  15.679 -0.1121 -0.1455 -0.1215
 5873TIP3    H239111   3.961   5.310  15.825 -0.1382  0.3713 -0.2309
 5874TIP3   OH239112   1.944   3.106  12.520  0.7402 -0.3799 -0.7411
 5874TIP3    H139113   1.926   3.134  12.430  0.5208  2.2926  0.1098
 5874TIP3    H239114   1.868   3.136  12.570  1.4865 -0.6518  0.5780
 5875TIP3   OH239115   0.075   4.053   0.069 -0.1236 -0.2470  0.0998
 5875TIP3    H139116   0.060   4.114  -0.004 -0.4211 -1.2278 -0.6714
 5875TIP3    H239117   0.024   4.089   0.141 -0.4942  0.2906 -0.4214
 5876TIP3   OH239118   5.903   0.449   0.590  0.1712  0.2104 -0.4460
 5876TIP3    H139119   5.909   0.365   0.634 -0.8021  1.0159  1.2851
 5876TIP3    H239120   5.814   0.451   0.554 -0.0891  0.8046  0.2092
 5877TIP3   OH239121   5.332   2.461   5.035  0.4420 -0.1312 -0.2627
 5877TIP3    H139122   5.372   2.435   5.118  2.7464  1.8371 -0.6853
 5877TIP3    H239123   5.269   2.529   5.058  0.5764 -0.0838 -0.0382
 5878TIP3   OH239124   5.026   2.942  15.084  0.1453  0.2094 -0.4347
 5878TIP3    H139125   5.118   2.964  15.094  0.7480 -2.5175  0.5312
 5878TIP3    H239126   4.999   2.913  15.171 -1.7323  1.2264 -0.6349
 5879TIP3   OH239127   3.996   5.382  15.540 -0.4867 -0.1790 -0.4614
 5879TIP3    H139128   4.053   5.351  15.471  0.8368 -1.5560  1.2075
 5879TIP3    H239129   4.027   5.471  15.560  0.4131 -0.5393 -0.2606
 5880TIP3   OH239130   4.801   5.044   5.619  0.0797  0.5623  0.0939
 5880TIP3    H139131   4.887   5.026   5.657  0.3376 -0.6175 -1.0139
 5880TIP3    H239132   4.819   5.093   5.539 -0.3266  1.0916  0.3268
 5881TIP3   OH239133   2.721   1.849   2.839 -0.2813  0.3978  0.1237
 5881TIP3    H139134   2.628   1.872   2.834 -0.0418  1.8154  1.6454
 5881TIP3    H239135   2.754   1.864   2.751 -1.3581  0.5583 -0.2572
 5882TIP3   OH239136   3.722   3.806  11.719 -0.6788 -0.2736 -0.3690
 5882TIP3    H139137   3.776   3.881  11.695 -0.8402 -0.5569 -1.6301
 5882TIP3    H239138   3.660   3.796  11.647 -3.1317  0.7107  1.5261
 5883TIP3   OH239139   4.924   1.645   1.937 -0.9239  0.3603 -0.1144
 5883TIP3    H139140   4.856   1.660   2.003  0.8372  2.6379  1.2620
 5883TIP3    H239141   4.973   1.727   1.934  1.2301 -0.9285 -1.7196
 5884TIP3   OH239142   1.756   2.432   3.528  0.1381 -0.1096 -0.0085
 5884TIP3    H139143   1.739   2.406   3.618  0.6706 -0.2972  0.0362
 5884TIP3    H239144   1.775   2.526   3.532 -2.7740  0.5422 -0.2862
 5885TIP3   OH239145   1.427   3.098  12.860  0.4014  0.1051  0.6526
 5885TIP3    H139146   1.367   3.142  12.920  0.4100  2.2008 -0.8267
 5885TIP3    H239147   1.484   3.168  12.827  2.1135 -1.4456  0.2211
 5886TIP3   OH239148   0.924   5.383  17.018  0.4834  0.2789 -0.2686
 5886TIP3    H139149   0.933   5.317  16.948 -2.2299 -0.3135 -0.1182
 5886TIP3    H239150   0.860   5.445  16.983 -0.1780  0.4968  1.3097
 5887TIP3   OH239151   2.657   3.864  14.087  0.2755 -0.0366  0.3244
 5887TIP3    H139152   2.739   3.823  14.114 -0.3888 -2.0826 -0.5861
 5887TIP3    H239153   2.590   3.821  14.141 -0.3774  0.3766 -0.1495
 5888TIP3   OH239154   1.452   6.759  16.340  0.6311 -0.3664  0.5484
 5888TIP3    H139155   1.359   6.776  16.327  1.1157  2.1953  0.1638
 5888TIP3    H239156   1.488   6.754  16.251  0.9688 -0.6796  0.7035
 5889TIP3   OH239157   1.099   1.846   2.511  0.0163 -0.0655 -0.3008
 5889TIP3    H139158   1.065   1.919   2.459  0.8138 -0.0576 -0.8207
 5889TIP3    H239159   1.122   1.886   2.596 -2.1598 -0.2601  0.4089
 5890TIP3   OH239160   5.007   5.913  15.494 -0.9398 -0.2177 -0.4242
 5890TIP3    H139161   4.933   5.884  15.546 -1.3591  0.3662 -0.6936
 5890TIP3    H239162   4.997   5.868  15.410 -1.4775  0.5544 -0.7706
 5891TIP3   OH239163   0.981   1.918   2.002  0.1339  0.5823  0.0990
 5891TIP3    H139164   0.979   1.980   2.075 -1.4405  1.2514 -0.4822
 5891TIP3    H239165   1.063   1.938   1.957  1.2019  0.0518  1.7550
 5892TIP3   OH239166   2.155   1.545  16.191  0.2737  0.2603  0.6094
 5892TIP3    H139167   2.071   1.561  16.233  0.3838  0.6671  0.6788
 5892TIP3    H239168   2.214   1.609  16.231  0.5296  0.2242  0.2902
 5893TIP3   OH239169   3.841   5.997   3.654 -0.1736  0.8727 -0.9598
 5893TIP3    H139170   3.841   5.902   3.638  0.8077  0.7872 -0.4893
 5893TIP3    H239171   3.887   6.034   3.579  1.6254  0.7454  0.0366
 5894TIP3   OH239172   3.092   3.808   4.762  0.1431 -0.0365 -1.3233
 5894TIP3    H139173   3.142   3.885   4.788  1.9120 -1.4704 -0.2867
 5894TIP3    H239174   3.096   3.807   4.667  2.5890 -0.3872 -1.2452
 5895TIP3   OH239175   6.027   2.227  13.341 -0.3711  0.1824 -0.4300
 5895TIP3    H139176   5.984   2.251  13.422  1.0862 -1.8735  1.0198
 5895TIP3    H239177   6.052   2.310  13.301 -2.0990  1.2458  0.6467
 5896TIP3   OH239178   2.478   5.948  16.068  0.2281 -0.1068 -0.2053
 5896TIP3    H139179   2.457   5.971  15.978  0.2013  1.7566  0.2714
 5896TIP3    H239180   2.395   5.954  16.115  0.5356  0.5308  0.2724
 5897TIP3   OH239181   5.433   1.847  15.986 -0.0099  0.2061 -0.0233
 5897TIP3    H139182   5.346   1.859  15.947  0.8929 -0.3571 -2.2558
 5897TIP3    H239183   5.415   1.818  16.075 -2.1201  0.9921 -0.1651
 5898TIP3   OH239184   6.438   2.800  10.926  0.3825 -0.3493 -0.0062
 5898TIP3    H139185   6.380   2.874  10.907  0.7653 -0.1870 -0.5630
 5898TIP3    H239186   6.382   2.736  10.970 -0.3043 -0.3189 -0.8212
 5899TIP3   OH239187   2.752   4.942   3.876 -0.1436  0.8848  0.0965
 5899TIP3    H139188   2.758   4.916   3.968  0.7249 -0.3201 -0.2899
 5899TIP3    H239189   2.659   4.959   3.862 -0.6610 -1.4794  0.5151
 5900TIP3   OH239190   2.649   6.373   3.285 -0.2189  0.1909  0.1561
 5900TIP3    H139191   2.728   6.381   3.338  0.5169 -0.6216 -0.8114
 5900TIP3    H239192   2.581   6.418   3.336  0.8218  0.7436  1.0623
 5901TIP3   OH239193   5.277   5.975   5.047  0.2835 -0.5974  0.8699
 5901TIP3    H139194   5.207   5.927   5.093  0.5546 -3.3080 -1.4020
 5901TIP3    H239195   5.355   5.921   5.059  1.4615  1.1424  1.2578
 5902TIP3   OH239196   3.354   4.675  16.435 -0.0851 -0.4044 -0.3636
 5902TIP3    H139197   3.301   4.599  16.460  0.4999 -1.8939 -3.4206
 5902TIP3    H239198   3.336   4.687  16.341  1.5149  1.8787 -0.4125
 5903TIP3   OH239199   3.312   3.227  10.094  0.2912 -0.7100 -0.1945
 5903TIP3    H139200   3.259   3.199  10.019  2.1217 -1.1415 -1.3498
 5903TIP3    H239201   3.378   3.158  10.105  0.5788 -0.2271  1.2798
 5904TIP3   OH239202   0.826   0.399   4.684  0.0351  0.1687  0.5998
 5904TIP3    H139203   0.803   0.319   4.638  0.6921  0.6734 -0.6259
 5904TIP3    H239204   0.789   0.388   4.772 -2.6259 -0.1268 -0.5248
 5905TIP3   OH239205   6.143   6.397  12.583 -0.1670 -0.4362  0.5877
 5905TIP3    H139206   6.206   6.334  12.548 -0.0601  0.1026 -0.1896
 5905TIP3    H239207   6.189   6.481  12.582 -0.4944 -0.2447  1.1097
 5906TIP3   OH239208   3.378   5.907  11.088 -0.3540  0.1895  0.0425
 5906TIP3    H139209   3.362   5.815  11.109  0.9964  0.1562  0.9575
 5906TIP3    H239210   3.352   5.916  10.996 -1.2916 -0.8948  0.1909
 5907TIP3   OH239211   2.821   3.011  10.957 -0.1722 -0.3906 -0.5311
 5907TIP3    H139212   2.827   2.922  10.921  0.1775 -1.2354  1.5630
 5907TIP3    H239213   2.909   3.030  10.988  0.5474  1.9480 -3.7386
 5908TIP3   OH239214   0.602   0.438   5.465 -0.1043 -0.1785 -0.2880
 5908TIP3    H139215   0.582   0.531   5.454  0.3613  0.5608  4.1846
 5908TIP3    H239216   0.528   0.403   5.515  0.3631 -1.9585 -0.7992
 5909TIP3   OH239217   1.732   0.245   0.053 -0.1196 -0.0489  0.3658
 5909TIP3    H139218   1.751   0.320  -0.003  0.2509 -0.5575 -0.2031
 5909TIP3    H239219   1.818   0.218   0.087 -0.3496  0.2921  1.2283
 5910TIP3   OH239220   1.164   1.006   4.378 -0.0417 -0.0841 -0.1028
 5910TIP3    H139221   1.256   1.033   4.379 -0.0603 -0.0222 -0.0543
 5910TIP3    H239222   1.163   0.924   4.428 -0.0374 -0.0041  0.0296
 5911TIP3   OH239223   2.599   0.027   4.785 -0.5134 -0.2042 -0.2475
 5911TIP3    H139224   2.544  -0.050   4.780 -0.6649 -0.2087  1.2039
 5911TIP3    H239225   2.688  -0.006   4.769 -0.8727 -0.2165 -2.4319
 5912TIP3   OH239226   1.554   0.829  16.463 -0.1463 -0.1081  0.0398
 5912TIP3    H139227   1.565   0.924  16.459  1.7146 -0.3489 -1.0854
 5912TIP3    H239228   1.587   0.798  16.379 -0.5837 -1.7800  0.4743
 5913TIP3   OH239229   6.089   2.801   0.246  0.4264  0.1044  0.0728
 5913TIP3    H139230   6.095   2.809   0.341  0.4832  1.5363 -0.0396
 5913TIP3    H239231   6.002   2.762   0.231  0.8860 -1.2047  0.7474
 5914TIP3   OH239232   5.904   1.687   4.959  0.5881 -0.3048 -0.0121
 5914TIP3    H139233   5.948   1.772   4.962 -1.8458  0.9557  2.4786
 5914TIP3    H239234   5.831   1.700   4.898 -0.3887 -0.2728  1.1462
 5915TIP3   OH239235   0.331   2.710  12.183  0.2544  0.4723  0.2423
 5915TIP3    H139236   0.359   2.687  12.095 -0.0512  0.2950  0.1914
 5915TIP3    H239237   0.350   2.804  12.190 -0.0122  0.5535 -0.1222
 5916TIP3   OH239238   2.267   5.581  15.634 -0.4421  0.1272 -0.1242
 5916TIP3    H139239   2.230   5.669  15.630  0.1545  0.5164  1.8926
 5916TIP3    H239240   2.362   5.595  15.632 -0.3611 -0.5897 -1.4964
 5917TIP3   OH239241   0.465   2.163  11.173  0.1676 -0.1543 -0.2948
 5917TIP3    H139242   0.417   2.216  11.109 -1.3511 -0.9264  0.1690
 5917TIP3    H239243   0.424   2.077  11.168  0.5371 -0.4250  1.1761
 5918TIP3   OH239244   5.634   2.659   3.095 -0.2156  0.2968  0.3765
 5918TIP3    H139245   5.633   2.679   3.002 -3.4044 -0.4057  0.2166
 5918TIP3    H239246   5.705   2.595   3.105 -1.1535 -1.1607 -1.9089
 5919TIP3   OH239247   6.808   6.109   1.808  0.3533  0.4615  0.4837
 5919TIP3    H139248   6.818   6.080   1.898  0.5748  1.4699  0.7895
 5919TIP3    H239249   6.891   6.087   1.766  1.1437  2.1494  1.1400
 5920TIP3   OH239250   0.270   0.374  14.845  0.4513 -0.4813  0.0456
 5920TIP3    H139251   0.181   0.408  14.835 -0.1124 -1.6187  1.1255
 5920TIP3    H239252   0.291   0.336  14.760 -0.1376 -0.3183 -0.1749
 5921TIP3   OH239253   3.045   6.043   1.058 -0.1643 -0.5193  0.6700
 5921TIP3    H139254   3.054   6.134   1.085 -1.3978  0.0504 -0.7950
 5921TIP3    H239255   3.007   5.999   1.134 -0.2683  0.3419  1.1206
 5922TIP3   OH239256   4.855   0.996  16.396 -0.6309 -0.0432 -0.0304
 5922TIP3    H139257   4.890   0.967  16.312 -2.0836  0.3236 -0.7889
 5922TIP3    H239258   4.925   0.980  16.459  1.0911  1.1676 -1.5783
 5923TIP3   OH239259   2.214   1.908  11.674  0.7232 -0.4056  0.1791
 5923TIP3    H139260   2.195   1.955  11.593  2.9240 -0.0657 -0.1487
 5923TIP3    H239261   2.309   1.906  11.680  0.6075 -1.0239  2.4185
 5924TIP3   OH239262   1.688   3.736  11.986 -0.3426  0.0485 -0.0775
 5924TIP3    H139263   1.719   3.776  11.905  0.9893 -0.1436  0.3210
 5924TIP3    H239264   1.753   3.668  12.005 -0.1204  0.7352  1.6649
 5925TIP3   OH239265   4.193   2.360  13.504  1.4239 -0.1168  0.5779
 5925TIP3    H139266   4.278   2.356  13.548  0.3272 -2.9277  2.6567
 5925TIP3    H239267   4.182   2.273  13.465 -0.1271  0.4883 -0.3828
 5926TIP3   OH239268   3.417   5.207  12.649  0.4940 -0.3689  0.4233
 5926TIP3    H139269   3.407   5.262  12.726 -2.3272  1.6941 -1.3163
 5926TIP3    H239270   3.499   5.237  12.609  1.9950 -1.5042  2.6211
 5927TIP3   OH239271   1.435   0.557  15.581 -0.4496 -0.3811 -0.1487
 5927TIP3    H139272   1.526   0.547  15.608 -0.3195  1.3706  0.1156
 5927TIP3    H239273   1.413   0.474  15.537  1.2087 -0.8705 -0.0613
 5928TIP3   OH239274   3.523   4.079  13.051  0.0030  0.3730  1.1224
 5928TIP3    H139275   3.534   4.159  13.103 -0.2644  0.0267  1.7155
 5928TIP3    H239276   3.439   4.090  13.008  1.0529  1.4955 -0.7180
 5929TIP3   OH239277   3.504   6.058   5.082 -0.2699  0.7315  0.5328
 5929TIP3    H139278   3.458   6.094   5.007  1.6127  0.6678 -0.6739
 5929TIP3    H239279   3.551   6.132   5.119 -1.0474  0.7272  1.5787
 5930TIP3   OH239280   3.834   0.904  16.216 -0.3158  0.2263 -0.1806
 5930TIP3    H139281   3.866   0.832  16.161 -0.4691 -0.8503  1.0944
 5930TIP3    H239282   3.821   0.977  16.156 -1.0603 -1.1072 -1.6863
 5931TIP3   OH239283   2.450   6.585  11.723 -0.4190 -0.6730  0.1974
 5931TIP3    H139284   2.451   6.668  11.771  2.1195 -0.6884  0.2615
 5931TIP3    H239285   2.461   6.610  11.631 -1.2173 -0.8601  0.0506
 5932TIP3   OH239286   3.171   3.032   0.962 -0.0728  0.3464 -0.2712
 5932TIP3    H139287   3.222   2.954   0.983  1.6989  1.7338  0.6950
 5932TIP3    H239288   3.174   3.085   1.042 -0.4640  1.8232 -1.2219
 5933TIP3   OH239289   1.916   0.804  14.147  0.1025 -0.3937 -0.2443
 5933TIP3    H139290   1.923   0.887  14.101 -1.4861 -0.4913 -0.6850
 5933TIP3    H239291   1.829   0.805  14.186  0.7820 -1.0387  1.3465
 5934TIP3   OH239292   1.158   1.220  11.388  0.2081 -0.3381 -0.1119
 5934TIP3    H139293   1.101   1.284  11.345  0.6282  0.1451  0.0463
 5934TIP3    H239294   1.130   1.135  11.353  0.6649  0.0610 -1.4992
 5935TIP3   OH239295   3.862   1.532   6.103  0.0615  0.2690  0.1719
 5935TIP3    H139296   3.781   1.482   6.113 -2.1927  3.4776 -0.8784
 5935TIP3    H239297   3.918   1.477   6.048 -1.9872 -1.3938 -0.3150
 5936TIP3   OH239298   1.651   4.957  12.298 -0.9021  0.0270  0.2097
 5936TIP3    H139299   1.595   4.929  12.370  0.8137  1.1921  2.0561
 5936TIP3    H239300   1.715   4.887  12.288 -0.3787  0.4344  0.6714
 5937TIP3   OH239301   0.651   6.186   1.785 -0.7107  0.1895  0.4666
 5937TIP3    H139302   0.696   6.265   1.817  0.6818  0.0012 -0.9480
 5937TIP3    H239303   0.682   6.176   1.695 -1.4326 -1.5723  0.4031
 5938TIP3   OH239304   4.842   2.346   4.034  0.2308  0.0531  0.1355
 5938TIP3    H139305   4.892   2.307   4.106  0.5905  1.2827  0.5558
 5938TIP3    H239306   4.766   2.387   4.077 -0.3115 -0.4466 -0.3389
 5939TIP3   OH239307   0.533   1.335  10.897  0.0342 -0.3721  0.2643
 5939TIP3    H139308   0.515   1.310  10.807  1.7726 -1.5813  0.2300
 5939TIP3    H239309   0.451   1.319  10.943 -0.9177  0.4318 -1.1256
 5940TIP3   OH239310   2.356   6.044   1.295 -0.0434 -0.0817 -0.3106
 5940TIP3    H139311   2.414   5.996   1.236  1.6432  0.9010  0.5042
 5940TIP3    H239312   2.329   5.980   1.360 -0.9526 -0.8786 -1.4603
 5941TIP3   OH239313   5.606   1.919  14.875 -0.2968  0.0256  0.2785
 5941TIP3    H139314   5.698   1.917  14.901 -0.3816 -0.3220  0.5750
 5941TIP3    H239315   5.605   1.962  14.790  0.1375  0.0447  0.2832
 5942TIP3   OH239316   5.607   3.497  13.722  0.4559  0.0447 -0.3939
 5942TIP3    H139317   5.639   3.586  13.737  0.7705 -0.3528  1.4050
 5942TIP3    H239318   5.669   3.459  13.660  0.7697  0.8304 -0.5640
 5943TIP3   OH239319   3.346   4.496   6.382 -0.2436 -0.3795 -0.0886
 5943TIP3    H139320   3.339   4.590   6.401 -1.4510 -0.4232 -0.2702
 5943TIP3    H239321   3.255   4.465   6.380  0.0306 -1.1017 -2.2745
 5944TIP3   OH239322   5.234   0.354  17.238 -0.4966  0.2630  0.7975
 5944TIP3    H139323   5.193   0.268  17.233 -0.7105  0.3257  1.4198
 5944TIP3    H239324   5.236   0.374  17.332  0.1997  0.6261  0.7113
 5945TIP3   OH239325   1.845   2.429  12.909 -0.1567 -0.4467 -0.3560
 5945TIP3    H139326   1.812   2.402  12.824  0.8577  2.7239 -1.8527
 5945TIP3    H239327   1.921   2.373  12.924  1.0653  0.5208 -2.6765
 5946TIP3   OH239328   6.240   1.919  12.088  0.0373 -0.1642 -0.6345
 5946TIP3    H139329   6.308   1.952  12.029  0.4548 -0.8762 -0.5598
 5946TIP3    H239330   6.162   1.910  12.033  0.4516 -0.9221 -1.1035
 5947TIP3   OH239331   1.579   4.483   6.049 -0.5384  0.3920  0.0300
 5947TIP3    H139332   1.649   4.536   6.010  0.9030 -0.4271  1.4633
 5947TIP3    H239333   1.616   4.395   6.055 -3.0501 -0.9532 -2.7127
 5948TIP3   OH239334   3.253   0.429   1.681  0.1422  0.2764  0.2198
 5948TIP3    H139335   3.209   0.452   1.599  0.3713  1.7546  0.4973
 5948TIP3    H239336   3.345   0.444   1.664  0.3997 -1.2497  0.1619
 5949TIP3   OH239337   1.577   4.298  11.718  0.0871 -0.8958  0.2223
 5949TIP3    H139338   1.592   4.235  11.788 -1.0039 -0.1098  1.1717
 5949TIP3    H239339   1.509   4.258  11.663  0.9220 -1.4980 -0.3814
 5950TIP3   OH239340   3.958   1.799  15.503 -0.0422  0.0028  0.1406
 5950TIP3    H139341   3.975   1.713  15.541  1.0284 -0.4324 -1.2922
 5950TIP3    H239342   4.045   1.838  15.492 -0.0704 -0.9726 -4.3235
 5951TIP3   OH239343   0.815   1.772  14.192 -0.3992 -0.7335 -0.4489
 5951TIP3    H139344   0.858   1.853  14.165 -0.3921 -0.6888 -0.3056
 5951TIP3    H239345   0.877   1.703  14.170 -0.5638 -0.7315 -0.9167
 5952TIP3   OH239346   5.154   6.594  17.097  0.6031 -0.2619  0.3440
 5952TIP3    H139347   5.069   6.572  17.135  1.4132 -1.0885  1.7376
 5952TIP3    H239348   5.139   6.596  17.003 -1.0058 -0.1976  0.5964
 5953TIP3   OH239349   5.794   0.457  15.119 -0.3182 -0.4067  0.7961
 5953TIP3    H139350   5.816   0.543  15.081  1.2885 -1.0413  0.2343
 5953TIP3    H239351   5.699   0.460  15.131 -0.3981  1.1337 -0.0058
 5954TIP3   OH239352   3.482   4.937  15.960  0.0189  0.0980  0.3803
 5954TIP3    H139353   3.490   5.032  15.957  2.3323 -0.1018 -0.8782
 5954TIP3    H239354   3.543   4.909  16.028  0.0582 -0.5454  0.0863
 5955TIP3   OH239355   0.842   0.258  16.618 -0.7529 -0.2690  0.1738
 5955TIP3    H139356   0.786   0.295  16.550  1.2298  1.2991 -0.6763
 5955TIP3    H239357   0.867   0.333  16.672  1.6748 -0.6527 -0.3491
 5956TIP3   OH239358   5.747   1.086  16.608 -0.8664 -0.0146 -0.2322
 5956TIP3    H139359   5.752   1.122  16.696  0.3424 -0.6415 -0.0378
 5956TIP3    H239360   5.786   1.153  16.552  1.9761 -1.2241  0.2078
 5957TIP3   OH239361   0.871   2.481   1.945 -0.3790 -0.2489 -0.4156
 5957TIP3    H139362   0.794   2.485   1.890 -0.2867 -1.2168 -0.6187
 5957TIP3    H239363   0.884   2.388   1.963  0.9936 -0.1398 -0.7550
 5958TIP3   OH239364   0.363   1.739   5.707 -0.2312  0.2923 -0.4656
 5958TIP3    H139365   0.407   1.707   5.786 -1.2997 -2.4492 -0.9248
 5958TIP3    H239366   0.431   1.740   5.640  1.0862  4.1862  0.7799
 5959TIP3   OH239367   0.101   2.204   3.233 -0.1007  0.2649 -0.1745
 5959TIP3    H139368   0.152   2.141   3.182 -0.0295 -0.5814  0.9103
 5959TIP3    H239369   0.166   2.249   3.287 -0.2809  0.4891 -0.1451
 5960TIP3   OH239370   2.065   1.825   4.007  0.1327 -0.1839  0.8469
 5960TIP3    H139371   2.160   1.836   4.005  0.0514  0.3303 -1.5341
 5960TIP3    H239372   2.052   1.730   4.000  0.4607 -0.1522 -0.2666
 5961TIP3   OH239373   4.172   3.765   0.122 -0.7701  0.0982 -0.1016
 5961TIP3    H139374   4.208   3.841   0.075  1.5696  0.2255  1.7823
 5961TIP3    H239375   4.108   3.803   0.182 -1.9233  0.2111 -1.3808
 5962TIP3   OH239376   2.938   5.149  11.278  0.0115 -0.8252  0.2357
 5962TIP3    H139377   3.004   5.160  11.347 -0.5212 -2.8027  1.0814
 5962TIP3    H239378   2.982   5.179  11.198  1.2955 -0.3525  1.1045
 5963TIP3   OH239379   0.879   6.620  16.598  0.4482  0.0402 -0.1976
 5963TIP3    H139380   0.821   6.619  16.674  0.3578 -0.0990 -0.2694
 5963TIP3    H239381   0.942   6.690  16.617  0.1950  0.2585 -0.1721
 5964TIP3   OH239382   0.404   3.450   4.298 -0.2766 -0.1555 -0.1200
 5964TIP3    H139383   0.367   3.538   4.287  1.7550  0.7333 -0.1487
 5964TIP3    H239384   0.451   3.433   4.216  0.1870 -0.8429  0.2843
 5965TIP3   OH239385   0.271   1.934   4.266 -0.2893  0.3711 -0.1938
 5965TIP3    H139386   0.364   1.946   4.244 -0.6181  2.3378 -0.5953
 5965TIP3    H239387   0.272   1.898   4.355  0.8603  0.2177 -0.2596
 5966TIP3   OH239388   3.909   4.124   5.070 -0.0399 -0.5094  0.1892
 5966TIP3    H139389   3.851   4.085   5.006 -0.3682 -0.9486  0.7490
 5966TIP3    H239390   3.971   4.054   5.093  0.7501 -0.0287 -0.4480
 5967TIP3   OH239391   3.935   3.029   0.590  0.1899  0.4397  0.2054
 5967TIP3    H139392   3.856   3.079   0.569  0.6225  0.8954 -0.3678
 5967TIP3    H239393   3.995   3.047   0.517  0.6447 -0.2898  0.3861
 5968TIP3   OH239394   2.794   2.988  12.155 -0.2088 -0.4941  0.3282
 5968TIP3    H139395   2.801   2.919  12.221 -0.0480 -2.0679 -1.2759
 5968TIP3    H239396   2.864   2.969  12.093 -0.1457  1.1458 -0.1392
 5969TIP3   OH239397   3.082   5.052  14.023 -0.1932  0.2787  0.3689
 5969TIP3    H139398   3.130   5.024  14.100  0.1480  0.8816  0.3791
 5969TIP3    H239399   3.138   5.117  13.982 -0.9812  0.9551  0.3511
 5970TIP3   OH239400   6.650   1.517   3.157 -0.1417 -0.2373  0.4526
 5970TIP3    H139401   6.560   1.506   3.188 -0.4060  0.6444  0.0068
 5970TIP3    H239402   6.704   1.483   3.228 -0.8214 -0.6426  0.7833
 5971TIP3   OH239403   5.564   4.556  16.602  0.2016  0.3312 -0.9295
 5971TIP3    H139404   5.488   4.605  16.572  1.3990  2.6711 -0.2781
 5971TIP3    H239405   5.529   4.494  16.666 -1.0222  2.3727  0.4640
 5972TIP3   OH239406   0.896   1.026   5.039  0.0851 -0.1895 -0.4054
 5972TIP3    H139407   0.837   1.025   4.964  0.5982 -0.2050 -0.8138
 5972TIP3    H239408   0.983   1.032   5.001  0.3307  0.1582  0.2024
 5973TIP3   OH239409   4.819   5.430   5.279  0.0550  0.2151 -0.3076
 5973TIP3    H139410   4.752   5.499   5.276  0.4818  0.6235 -0.5605
 5973TIP3    H239411   4.787   5.363   5.218 -0.1055  0.4291 -0.4602
 5974TIP3   OH239412   4.547   2.030  14.497 -0.7469 -0.2769  0.0016
 5974TIP3    H139413   4.611   1.988  14.555 -1.1066  0.5817  1.0375
 5974TIP3    H239414   4.499   2.089  14.554 -2.9189 -1.3770 -0.6378
 5975TIP3   OH239415   0.155   5.457  12.085 -0.0270  0.3374 -0.4692
 5975TIP3    H139416   0.063   5.450  12.108  0.5051 -2.6099  1.0299
 5975TIP3    H239417   0.155   5.482  11.992 -2.2607  3.9007  0.4055
 5976TIP3   OH239418   1.955   0.530  14.185 -0.2273 -0.4606 -0.5197
 5976TIP3    H139419   1.928   0.622  14.179 -2.3662 -1.1471 -2.5319
 5976TIP3    H239420   2.017   0.519  14.114  0.8612 -0.3276  0.4015
 5977TIP3   OH239421   4.921   3.703   0.968  0.0275  0.2438  0.0648
 5977TIP3    H139422   4.955   3.615   0.951  0.3064  0.3236  0.2032
 5977TIP3    H239423   4.828   3.698   0.945  0.1959  0.1079 -0.6221
 5978TIP3   OH239424   4.553   6.300  14.399  0.0897  0.8518 -0.0635
 5978TIP3    H139425   4.573   6.391  14.380 -0.6403  1.1799  0.6841
 5978TIP3    H239426   4.594   6.250  14.328  0.8311  1.7267 -0.2529
 5979TIP3   OH239427   5.255   0.416  14.387 -0.2404 -0.4092 -0.8506
 5979TIP3    H139428   5.256   0.505  14.422 -1.0004  0.0624 -2.0168
 5979TIP3    H239429   5.251   0.427  14.292 -2.3148 -1.6852 -0.9483
 5980TIP3   OH239430   0.099   3.306  11.972 -0.5168  0.6277  0.2999
 5980TIP3    H139431   0.070   3.397  11.982 -0.8276  0.7962 -1.8060
 5980TIP3    H239432   0.032   3.254  12.016  0.9908  1.5292  3.7911
 5981TIP3   OH239433   3.873   3.912   2.655  0.3684 -0.1276 -0.0199
 5981TIP3    H139434   3.883   3.993   2.606 -0.5437 -0.6925 -1.1650
 5981TIP3    H239435   3.951   3.907   2.710  0.1470  1.8083  0.5005
 5982TIP3   OH239436   2.304   3.155   1.708  0.2635 -0.0075 -0.1830
 5982TIP3    H139437   2.378   3.129   1.654  1.6705  0.6585  1.3646
 5982TIP3    H239438   2.289   3.080   1.766 -1.7019 -1.0064 -1.9477
 5983TIP3   OH239439   6.045   5.738  15.584  0.0666 -0.4940  0.5485
 5983TIP3    H139440   6.055   5.650  15.621 -0.9542 -0.7816  0.1517
 5983TIP3    H239441   5.979   5.780  15.638 -0.0745 -0.2641  0.2020
 5984TIP3   OH239442   2.358   0.749   0.878 -0.3804  0.2933 -0.5090
 5984TIP3    H139443   2.363   0.844   0.887  0.3057  0.1129  1.1952
 5984TIP3    H239444   2.427   0.727   0.816  1.2553  0.6748  1.1282
 5985TIP3   OH239445   1.686   4.315  17.171 -0.5717  0.5880  0.3974
 5985TIP3    H139446   1.672   4.251  17.241 -2.6048 -1.7118 -1.9819
 5985TIP3    H239447   1.603   4.362  17.163 -0.4715  0.6182 -0.6384
 5986TIP3   OH239448   5.872   1.286  12.243 -0.3951  0.4610 -0.6402
 5986TIP3    H139449   5.878   1.307  12.150 -2.9328  1.8416 -0.5384
 5986TIP3    H239450   5.813   1.212  12.248 -1.1836  1.1112 -0.0683
 5987TIP3   OH239451   1.462   2.102   0.853 -0.2962  1.1871  0.0938
 5987TIP3    H139452   1.546   2.075   0.814  0.1374  3.3958 -0.5455
 5987TIP3    H239453   1.404   2.027   0.838  0.8153  0.6685 -1.8447
 5988TIP3   OH239454   3.135   4.906   6.353  0.1676 -0.0266  0.6996
 5988TIP3    H139455   3.117   4.999   6.371 -0.6020 -0.3567  1.6853
 5988TIP3    H239456   3.191   4.879   6.426  0.0542 -0.4426  0.6308
 5989TIP3   OH239457   3.386   6.076   5.338 -0.2466 -0.0722  0.0799
 5989TIP3    H139458   3.425   6.122   5.264  2.2430 -3.6349 -0.9508
 5989TIP3    H239459   3.445   6.096   5.411 -0.5417  0.3429  0.2052
 5990TIP3   OH239460   6.689   5.686   4.969  0.5605 -0.0727 -0.3382
 5990TIP3    H139461   6.623   5.725   5.026 -0.4308  0.2806 -1.6944
 5990TIP3    H239462   6.680   5.734   4.886  1.1014 -1.4258 -1.1898
 5991TIP3   OH239463   1.163   6.661   1.121  0.3096  0.1420 -0.5013
 5991TIP3    H139464   1.111   6.626   1.049 -0.8732 -0.2344  0.5215
 5991TIP3    H239465   1.252   6.666   1.086 -0.1685 -0.4561 -1.8372
 5992TIP3   OH239466   5.036   1.266  16.565  0.3918  0.3566  0.7998
 5992TIP3    H139467   5.076   1.182  16.588 -0.5524 -0.0320  1.0908
 5992TIP3    H239468   5.047   1.273  16.470  1.2038  0.2952  0.8873
 5993TIP3   OH239469   4.213   6.358   2.683 -0.2794 -0.1576  0.0669
 5993TIP3    H139470   4.226   6.277   2.633  0.0912 -0.3986  0.5393
 5993TIP3    H239471   4.138   6.339   2.739  0.0899 -0.3417  0.5055
 5994TIP3   OH239472   3.985   5.534  12.935 -0.3119 -1.2809 -0.0155
 5994TIP3    H139473   3.993   5.440  12.924  0.8611 -1.2584  0.5921
 5994TIP3    H239474   4.064   5.571  12.895  0.1603 -0.6912  1.4313
 5995TIP3   OH239475   2.699   4.969  15.309  0.0191  0.1522 -0.2755
 5995TIP3    H139476   2.673   5.060  15.327 -0.2872  0.0548 -0.2193
 5995TIP3    H239477   2.757   4.946  15.381  3.3871  1.6388 -2.3972
 5996TIP3   OH239478   5.623   3.564   4.525  0.2882  0.2216  0.2750
 5996TIP3    H139479   5.553   3.535   4.466  0.7610  0.0563 -0.2037
 5996TIP3    H239480   5.604   3.520   4.608  0.3319 -0.5418 -0.1150
 5997TIP3   OH239481   0.362   4.392  15.555  0.1001 -0.1949 -0.5668
 5997TIP3    H139482   0.417   4.470  15.558 -1.9612  1.2857  0.8628
 5997TIP3    H239483   0.281   4.421  15.512 -1.0117 -1.2818  0.7087
 5998TIP3   OH239484   3.103   0.781  16.175  0.3737  0.3717  0.9989
 5998TIP3    H139485   3.125   0.689  16.193 -1.0937 -0.1372  0.2987
 5998TIP3    H239486   3.074   0.816  16.259 -1.2876 -0.4734  0.7948
 5999TIP3   OH239487   5.555   2.567  16.594 -0.0847  0.0823 -0.6169
 5999TIP3    H139488   5.636   2.618  16.592 -0.0023  0.1011  1.6565
 5999TIP3    H239489   5.535   2.558  16.687 -2.0636 -0.9396 -1.1153
 6000TIP3   OH239490   1.798   4.345   4.488 -0.0112  0.4306 -0.5836
 6000TIP3    H139491   1.893   4.352   4.487 -0.0790  1.5546 -0.2092
 6000TIP3    H239492   1.780   4.252   4.475  1.1873 -0.2463  2.3707
 6001TIP3   OH239493   1.034   3.675   4.101  0.4314 -0.0400  0.0322
 6001TIP3    H139494   1.064   3.617   4.031 -1.1200 -2.3686  1.2161
 6001TIP3    H239495   1.113   3.721   4.130  0.9584  1.6188 -3.7493
 6002TIP3   OH239496   1.626   1.924   1.651  0.0512  0.3160  0.6337
 6002TIP3    H139497   1.531   1.940   1.654  0.3244  2.1971 -0.4921
 6002TIP3    H239498   1.658   1.956   1.735 -0.1999  0.3916  0.7013
 6003TIP3   OH239499   3.971   5.127   1.575  0.2782  0.5148  0.6744
 6003TIP3    H139500   4.020   5.046   1.561 -1.5760 -0.3641 -0.9068
 6003TIP3    H239501   3.995   5.155   1.664  0.6988 -1.9227  1.3530
 6004TIP3   OH239502   5.528   5.034   1.920  0.0637 -0.8636  0.3147
 6004TIP3    H139503   5.585   4.967   1.958  1.5284 -1.0549 -2.1175
 6004TIP3    H239504   5.465   4.984   1.868 -0.4842 -0.4851  0.6116
 6005TIP3   OH239505   2.023   5.019  12.118  0.2349 -0.0841 -0.1172
 6005TIP3    H139506   1.952   5.078  12.143  1.6292  1.1782  0.9076
 6005TIP3    H239507   2.018   5.015  12.022  0.2654  1.8958 -0.2221
 6006TIP3   OH239508   5.635   4.295   0.862  0.1412 -0.1965  0.2957
 6006TIP3    H139509   5.544   4.266   0.860  0.4247 -1.2148  1.4063
 6006TIP3    H239510   5.670   4.258   0.943  1.6798 -0.2569 -0.3805
 6007TIP3   OH239511   0.829   3.777  15.465 -0.3232  0.4575  0.5445
 6007TIP3    H139512   0.787   3.848  15.514 -0.2845  0.4771  0.5505
 6007TIP3    H239513   0.830   3.808  15.374 -2.9425 -0.7568  0.0419
 6008TIP3   OH239514   6.697   1.486   0.190  0.1375  0.0386  0.2564
 6008TIP3    H139515   6.674   1.543   0.263 -0.4601  2.3470 -1.6428
 6008TIP3    H239516   6.790   1.504   0.173 -0.2336  1.0420 -0.8056
 6009TIP3   OH239517   0.532   0.716   0.067 -0.5347  0.1606 -0.4112
 6009TIP3    H139518   0.526   0.802   0.025  2.8937  1.1309  0.8926
 6009TIP3    H239519   0.545   0.655  -0.006  1.9800  1.4162 -1.0886
 6010TIP3   OH239520   6.541   1.987   3.486  0.5189  0.0366  0.1462
 6010TIP3    H139521   6.587   2.017   3.565 -0.1764 -0.0225  0.5729
 6010TIP3    H239522   6.608   1.989   3.418  1.2879 -0.5224  0.8763
 6011TIP3   OH239523   2.332   6.256   3.150 -0.1699 -0.7813  0.3717
 6011TIP3    H139524   2.413   6.219   3.114 -0.8390 -0.6962 -1.2881
 6011TIP3    H239525   2.290   6.182   3.194  0.3492 -1.0530  0.4254
 6012TIP3   OH239526   3.288   1.215   3.826 -0.3762  0.2615  0.4404
 6012TIP3    H139527   3.365   1.165   3.853 -0.4478 -0.2369 -0.2888
 6012TIP3    H239528   3.321   1.275   3.759 -0.5632  0.2541  0.3434
 6013TIP3   OH239529   2.573   0.722   1.936 -0.5849  0.5299 -0.7600
 6013TIP3    H139530   2.557   0.636   1.973 -1.0627  1.4462  1.2519
 6013TIP3    H239531   2.657   0.715   1.891 -0.8042 -1.0650 -0.9274
 6014TIP3   OH239532   1.227   3.465   0.902  0.0148  0.1707 -0.2503
 6014TIP3    H139533   1.192   3.523   0.970 -0.8947 -0.2012 -0.3893
 6014TIP3    H239534   1.215   3.515   0.821  0.3300  0.2725 -0.2348
 6015TIP3   OH239535   2.847   5.516  16.158  0.5370 -0.3663 -0.1821
 6015TIP3    H139536   2.830   5.544  16.068  2.5901  1.0146 -0.1979
 6015TIP3    H239537   2.779   5.559  16.210 -0.7902 -1.3456 -1.0752
 6016TIP3   OH239538   3.837   6.167   0.414  0.5360  0.5049  0.1106
 6016TIP3    H139539   3.767   6.232   0.406  0.7304  0.8789  1.3507
 6016TIP3    H239540   3.887   6.175   0.333  1.4066  2.9010  0.8424
 6017TIP3   OH239541   2.851   3.310   2.821 -0.2677  0.0686  0.4920
 6017TIP3    H139542   2.929   3.323   2.875 -0.0005 -0.9575  0.3672
 6017TIP3    H239543   2.854   3.380   2.757 -0.8188  1.5653  2.0587
 6018TIP3   OH239544   2.498   2.100  11.882  0.1193 -0.4057  0.1847
 6018TIP3    H139545   2.506   2.118  11.976 -1.3158 -0.8427  0.3948
 6018TIP3    H239546   2.519   2.006  11.875 -0.5552 -0.5540  0.1706
 6019TIP3   OH239547   3.730   3.079  11.577  0.2091 -0.7267 -0.0938
 6019TIP3    H139548   3.754   3.168  11.552  0.2226 -0.7316 -0.0982
 6019TIP3    H239549   3.713   3.085  11.671 -1.8481 -0.2598 -0.4652
 6020TIP3   OH239550   0.813   5.840   5.407  0.0948  0.4871 -0.4572
 6020TIP3    H139551   0.763   5.787   5.345 -0.0394  1.2037 -0.9629
 6020TIP3    H239552   0.766   5.830   5.490 -0.5318  0.6518 -0.7897
 6021TIP3   OH239553   2.827   6.600   3.508  0.0645 -0.0676 -0.1463
 6021TIP3    H139554   2.732   6.604   3.494  0.2319 -0.8162 -1.6536
 6021TIP3    H239555   2.861   6.677   3.463  0.0041  1.4484  2.3007
 6022TIP3   OH239556   3.425   1.191  13.571 -0.4415  0.1651  0.2447
 6022TIP3    H139557   3.390   1.251  13.637  0.9285  0.9213  0.2912
 6022TIP3    H239558   3.501   1.151  13.613 -0.9502 -1.1117 -0.0338
 6023TIP3   OH239559   3.942   1.390   0.088 -0.2512 -0.2931  0.5685
 6023TIP3    H139560   3.908   1.476   0.065  0.9373 -0.0488 -0.3293
 6023TIP3    H239561   3.966   1.351   0.004  0.0717 -1.1353  1.0454
 6024TIP3   OH239562   4.860   0.374  14.974 -0.0782  0.6024  0.0765
 6024TIP3    H139563   4.787   0.387  15.035  0.2073  1.8165  0.1614
 6024TIP3    H239564   4.819   0.333  14.897 -1.2098  3.0355 -0.6582
 6025TIP3   OH239565   1.879   5.148  16.096 -0.3259  0.2799  0.4609
 6025TIP3    H139566   1.805   5.179  16.045 -1.1087 -2.6471 -0.2591
 6025TIP3    H239567   1.943   5.118  16.031  0.6961  0.9766  1.1149
 6026TIP3   OH239568   4.316   0.019  13.446 -0.0682 -0.2513  0.2424
 6026TIP3    H139569   4.262   0.096  13.463 -0.7844 -0.5235 -0.7515
 6026TIP3    H239570   4.335   0.023  13.352 -1.1495 -1.9384 -0.0822
 6027TIP3   OH239571   1.023   2.293   0.196  0.0301 -0.0113 -0.3239
 6027TIP3    H139572   1.038   2.220   0.257 -3.6573 -0.3280  0.3085
 6027TIP3    H239573   0.956   2.261   0.137  2.0738  1.0728 -3.3294
 6028TIP3   OH239574   2.241   5.634   2.937 -0.1611 -0.6938 -0.4297
 6028TIP3    H139575   2.192   5.654   2.857 -0.0498  0.9249 -0.1161
 6028TIP3    H239576   2.174   5.622   3.004 -0.2369 -1.5878 -0.6614
 6029TIP3   OH239577   6.394   1.739  13.363  0.0204  0.7837  0.1809
 6029TIP3    H139578   6.424   1.666  13.418 -0.0122  1.6194  1.3239
 6029TIP3    H239579   6.438   1.725  13.279  0.6466 -0.1141  0.6477
 6030TIP3   OH239580   3.926   0.212  16.521  0.3135 -0.4361 -0.7718
 6030TIP3    H139581   3.972   0.230  16.603  2.9317 -2.6096 -1.6873
 6030TIP3    H239582   3.911   0.298  16.482  1.4031  0.4477  0.7068
 6031TIP3   OH239583   2.792   3.902   1.167  0.5450 -0.5259 -0.0391
 6031TIP3    H139584   2.726   3.885   1.234  1.2508 -1.1094  0.5134
 6031TIP3    H239585   2.863   3.841   1.187  1.7765  0.9246  0.1041
 6032TIP3   OH239586   0.951   4.713   1.737 -0.5270  0.3158 -0.2717
 6032TIP3    H139587   0.922   4.622   1.744 -0.1457  0.1237 -1.1035
 6032TIP3    H239588   1.008   4.714   1.660  1.1250  0.8252  0.9333
 6033TIP3   OH239589   4.974   5.182   3.801 -0.4894 -0.5478  0.9320
 6033TIP3    H139590   4.961   5.089   3.819  0.5901 -0.6944  0.9627
 6033TIP3    H239591   5.000   5.219   3.885  0.8741 -0.5568  0.5237
 6034TIP3   OH239592   1.632   6.683   3.556 -0.6817 -0.6279  0.2065
 6034TIP3    H139593   1.650   6.758   3.499  1.7570 -0.2069  1.4620
 6034TIP3    H239594   1.589   6.721   3.633  0.8053 -0.4287  0.9680
 6035TIP3   OH239595   4.611   3.241   2.310 -0.3971 -0.3256  0.4950
 6035TIP3    H139596   4.686   3.182   2.310  0.4190  0.6838 -0.6918
 6035TIP3    H239597   4.591   3.256   2.218 -0.2972  1.5854  0.7541
 6036TIP3   OH239598   1.737   4.161  16.222  0.2245 -0.2857  0.0756
 6036TIP3    H139599   1.808   4.126  16.277  0.7625 -0.5266 -0.7534
 6036TIP3    H239600   1.735   4.254  16.242  0.6449 -0.3135  0.2618
 6037TIP3   OH239601   0.033   1.736   3.613 -0.5858 -0.2114  0.5677
 6037TIP3    H139602  -0.062   1.735   3.601 -0.7016 -0.1774  1.4934
 6037TIP3    H239603   0.057   1.643   3.616 -0.7012 -0.2226  1.2092
 6038TIP3   OH239604   1.062   1.702  13.918 -0.1728 -0.4142 -0.3351
 6038TIP3    H139605   1.012   1.774  13.880  1.1966  0.5973 -0.2586
 6038TIP3    H239606   1.021   1.623  13.883 -1.3592  0.4158 -0.8340
 6039TIP3   OH239607   2.780   3.843  14.485 -0.2045 -0.0690 -0.1490
 6039TIP3    H139608   2.865   3.800  14.469 -0.0433  0.0933  0.2628
 6039TIP3    H239609   2.800   3.936  14.479 -0.6050 -0.0506 -1.2941
 6040TIP3   OH239610   6.543   1.039  14.141 -0.2137  0.4018  0.3721
 6040TIP3    H139611   6.639   1.038  14.141 -0.1617  2.0698 -1.4025
 6040TIP3    H239612   6.518   0.996  14.223  2.0204 -1.7578 -0.0293
 6041TIP3   OH239613   5.471   0.671  14.988  0.1869  0.3881 -0.4418
 6041TIP3    H139614   5.477   0.576  14.999 -0.4381  0.6370  2.3714
 6041TIP3    H239615   5.392   0.696  15.036  1.5357  2.5965  0.7236
 6042TIP3   OH239616   2.748   3.446  11.068 -0.0994 -0.5851 -0.2066
 6042TIP3    H139617   2.671   3.423  11.016  1.7185 -0.1837 -3.1625
 6042TIP3    H239618   2.800   3.366  11.070 -0.2956 -0.6925  1.3265
 6043TIP3   OH239619   3.390   5.090  16.251 -0.1701 -0.3990 -0.8568
 6043TIP3    H139620   3.438   5.027  16.304 -1.3672  0.0262  0.7798
 6043TIP3    H239621   3.455   5.155  16.225  0.4287 -0.6193  0.0873
 6044TIP3   OH239622   6.584   0.627  16.180  0.2512 -0.1553 -0.4604
 6044TIP3    H139623   6.661   0.656  16.131  0.7966 -1.0299 -0.1276
 6044TIP3    H239624   6.604   0.648  16.271 -0.5756  1.0572 -0.5361
 6045TIP3   OH239625   2.131   6.317  11.509 -0.2989 -0.5784 -0.2372
 6045TIP3    H139626   2.115   6.270  11.428  2.7163 -0.4853 -0.9603
 6045TIP3    H239627   2.089   6.402  11.496 -0.5419 -0.8621 -1.3500
 6046TIP3   OH239628   1.863   0.395   1.548 -0.0808  0.1965 -0.2775
 6046TIP3    H139629   1.887   0.402   1.455  1.7622  2.8206  0.3143
 6046TIP3    H239630   1.821   0.479   1.568  1.6361  0.6079  1.7859
 6047TIP3   OH239631   5.443   2.981  14.135 -0.2218  0.3319  0.1527
 6047TIP3    H139632   5.487   3.031  14.203  2.8460  1.5970 -2.6324
 6047TIP3    H239633   5.400   3.047  14.081  0.1634 -0.3944 -1.0540
 6048TIP3   OH239634   0.406   2.836   3.017  0.0424  0.5883 -0.3735
 6048TIP3    H139635   0.361   2.829   2.933  1.6709 -1.5799 -1.1089
 6048TIP3    H239636   0.490   2.876   2.996 -0.6465  2.6595  0.6782
 6049TIP3   OH239637   2.410   2.310   5.297  0.2442 -0.3593  0.0009
 6049TIP3    H139638   2.469   2.298   5.223 -0.5661 -0.9944 -0.5467
 6049TIP3    H239639   2.445   2.386   5.344  0.6147  0.1825 -1.1533
 6050TIP3   OH239640   5.457   1.221   2.393 -0.2617 -0.6830  0.0367
 6050TIP3    H139641   5.395   1.174   2.337  0.3409 -0.5670 -0.7533
 6050TIP3    H239642   5.487   1.155   2.456 -0.9320 -0.8243  0.2117
 6051TIP3   OH239643   1.256   1.451   1.901  0.4176  0.5724 -0.2633
 6051TIP3    H139644   1.232   1.425   1.990 -1.6763 -2.7136 -1.7143
 6051TIP3    H239645   1.190   1.515   1.875  0.3256  0.6328  0.1239
 6052TIP3   OH239646   4.818   5.851  15.661 -0.2389 -0.0492 -0.1359
 6052TIP3    H139647   4.760   5.775  15.659  1.3416 -1.2737 -0.5591
 6052TIP3    H239648   4.864   5.844  15.744  0.6320 -0.1188 -0.6194
 6053TIP3   OH239649   3.841   4.681   3.325  0.2806  0.1847  0.9531
 6053TIP3    H139650   3.840   4.776   3.314 -0.6635 -0.0755 -1.5294
 6053TIP3    H239651   3.825   4.667   3.418 -0.7192  2.4187  1.1389
 6054TIP3   OH239652   0.714   1.070   4.480 -0.0270  0.1118 -0.0371
 6054TIP3    H139653   0.739   1.047   4.391 -0.5039 -0.6041  0.0136
 6054TIP3    H239654   0.696   0.986   4.523 -0.0035  0.4638  0.6736
 6055TIP3   OH239655   3.048   0.716   3.736  0.0319 -0.6687 -0.1398
 6055TIP3    H139656   3.054   0.648   3.670  0.0988 -0.0941 -0.7257
 6055TIP3    H239657   3.102   0.788   3.702  2.5280 -1.4858  1.9062
 6056TIP3   OH239658   1.978   1.580   1.913 -0.5232 -0.3007  0.3070
 6056TIP3    H139659   1.890   1.594   1.947 -0.8402 -0.2393 -0.5366
 6056TIP3    H239660   2.024   1.662   1.929 -1.0150  0.1259 -0.4598
 6057TIP3   OH239661   5.500   2.815  12.104  0.1182 -0.0817  0.6140
 6057TIP3    H139662   5.504   2.721  12.083  1.4124 -0.2542  1.5753
 6057TIP3    H239663   5.575   2.852  12.059 -0.0389  0.4029  0.7519
 6058TIP3   OH239664   1.178   3.518   3.552  0.0040  0.6202  0.4089
 6058TIP3    H139665   1.199   3.426   3.534 -2.0963  0.1621  0.2558
 6058TIP3    H239666   1.083   3.524   3.543 -0.0865  2.4260  2.1550
 6059TIP3   OH239667   1.997   6.523  11.761  0.2860  0.1690  0.0818
 6059TIP3    H139668   2.052   6.531  11.839  0.3746  0.0595  0.0307
 6059TIP3    H239669   2.049   6.562  11.691  1.0745 -1.5921 -0.3454
 6060TIP3   OH239670   6.628   3.048   1.317  0.1561  0.0622 -0.4283
 6060TIP3    H139671   6.656   3.131   1.354  1.3934 -0.2767 -0.5880
 6060TIP3    H239672   6.544   3.067   1.276 -0.5656  0.7569  1.3216
 6061TIP3   OH239673   6.651   3.289   0.607  0.3789 -0.5520  0.0557
 6061TIP3    H139674   6.729   3.234   0.621 -0.6977 -1.9914  0.5537
 6061TIP3    H239675   6.673   3.343   0.531  2.1539 -0.3915  0.6625
 6062TIP3   OH239676   6.749   4.284  12.694  0.0658  0.0109 -0.2001
 6062TIP3    H139677   6.825   4.313  12.745  0.7078 -0.5844 -0.7917
 6062TIP3    H239678   6.682   4.349  12.711  0.3135 -0.1071  1.3066
 6063TIP3   OH239679   1.465   1.093   2.583  0.5489 -0.1396 -0.2286
 6063TIP3    H139680   1.440   1.170   2.636 -0.4120 -0.2680 -0.4870
 6063TIP3    H239681   1.416   1.103   2.502  0.0549 -1.2686 -0.0781
 6064TIP3   OH239682   1.206   4.948  15.783  0.0687 -0.0490 -0.0178
 6064TIP3    H139683   1.239   4.868  15.824 -2.0550 -0.8835  0.1152
 6064TIP3    H239684   1.132   4.919  15.729  0.1032  1.6448 -1.0059
 6065TIP3   OH239685   5.352   4.210   3.359  0.2180 -0.0544  0.4402
 6065TIP3    H139686   5.293   4.196   3.285 -0.8420  0.5896  1.1296
 6065TIP3    H239687   5.429   4.253   3.322 -0.6442  0.9936 -0.1729
 6066TIP3   OH239688   4.086   2.938   2.138 -0.6169  0.3765 -0.0460
 6066TIP3    H139689   4.079   2.935   2.042 -0.0048  0.0804 -0.0823
 6066TIP3    H239690   4.124   3.023   2.156 -1.2458  0.6580 -0.0322
 6067TIP3   OH239691   6.199   6.557  14.708 -0.3549 -1.4325  0.4701
 6067TIP3    H139692   6.144   6.631  14.682  2.2146 -0.1432 -1.5328
 6067TIP3    H239693   6.197   6.558  14.804 -0.1996  1.3938  0.4832
 6068TIP3   OH239694   2.077   6.818  10.835  0.2683 -0.0020 -0.2804
 6068TIP3    H139695   2.145   6.753  10.851  1.2488  1.0388 -0.1482
 6068TIP3    H239696   2.008   6.797  10.898  1.0080 -0.3016  0.4352
 6069TIP3   OH239697   5.755   3.981  13.861  0.1631  0.1813  0.3165
 6069TIP3    H139698   5.721   3.892  13.876 -0.3139  0.2445 -0.3175
 6069TIP3    H239699   5.766   3.985  13.766  0.9610  0.5268  0.4278
 6070TIP3   OH239700   1.723   0.328  13.760  0.0536 -0.1549  0.2924
 6070TIP3    H139701   1.792   0.308  13.698  0.8331 -0.2680  1.1846
 6070TIP3    H239702   1.764   0.387  13.824 -0.9815  0.6908  0.1870
 6071TIP3   OH239703   2.503   3.268   0.561  0.3912 -0.2017  0.3650
 6071TIP3    H139704   2.524   3.327   0.488  0.5562 -1.9606 -1.0473
 6071TIP3    H239705   2.588   3.244   0.598  0.4959 -1.5379 -0.6922
 6072TIP3   OH239706   5.885   2.174   1.146  0.6147 -0.2113 -0.2966
 6072TIP3    H139707   5.874   2.231   1.070  1.7659 -0.3015 -0.5392
 6072TIP3    H239708   5.796   2.151   1.172  0.2225 -0.8783 -2.1619
 6073TIP3   OH239709   0.011   5.483   2.137 -0.0956  0.1202 -0.1091
 6073TIP3    H139710   0.093   5.433   2.141  0.4383  0.8370 -1.6019
 6073TIP3    H239711   0.037   5.571   2.110 -1.2954  0.5309  0.0362
 6074TIP3   OH239712   5.487   3.411   2.434 -0.0774  0.1736 -0.2046
 6074TIP3    H139713   5.421   3.347   2.464  0.9254 -0.9201 -0.2782
 6074TIP3    H239714   5.453   3.495   2.463 -1.7752 -0.3178 -0.6965
 6075TIP3   OH239715   1.466   5.192  12.659  0.0622 -0.0922 -0.0995
 6075TIP3    H139716   1.558   5.214  12.671 -0.0393 -0.7325  2.1134
 6075TIP3    H239717   1.463   5.096  12.659 -0.5771 -0.0776 -0.3166
 6076TIP3   OH239718   0.300   4.991  15.893  0.1526 -0.4089  0.0615
 6076TIP3    H139719   0.244   5.029  15.826  1.2281  0.3073 -0.4341
 6076TIP3    H239720   0.389   5.018  15.870  0.5494 -0.1942  1.7357
 6077TIP3   OH239721   3.401   3.672   4.984  0.8770 -0.4051 -0.8920
 6077TIP3    H139722   3.486   3.653   5.022  0.8880  0.5858 -0.4006
 6077TIP3    H239723   3.420   3.739   4.917  0.5042 -0.2369 -0.8300
 6078TIP3   OH239724   0.779   2.857  16.822  0.5851 -1.2036  0.0891
 6078TIP3    H139725   0.824   2.925  16.773  1.2700 -1.3786  0.4765
 6078TIP3    H239726   0.806   2.775  16.779  0.2624 -1.2766  0.0238
 6079TIP3   OH239727   5.793   5.250  10.439  0.4960  0.4029 -0.3846
 6079TIP3    H139728   5.756   5.181  10.383  1.8706 -0.1185 -0.6759
 6079TIP3    H239729   5.755   5.331  10.404 -2.5551 -0.3073  1.0984
 6080TIP3   OH239730   6.694   4.853   5.150  0.4043 -0.1656 -0.4345
 6080TIP3    H139731   6.741   4.804   5.083  0.7103 -1.8512  0.9681
 6080TIP3    H239732   6.760   4.912   5.188  0.9027 -1.0777  0.1454
 6081TIP3   OH239733   0.825   1.187  10.550  0.0509  0.3444 -0.0823
 6081TIP3    H139734   0.859   1.105  10.585 -0.7514  0.3408  0.7367
 6081TIP3    H239735   0.831   1.248  10.624  0.5785  1.0071 -0.6619
 6082TIP3   OH239736   1.700   2.745   6.718  0.2125 -0.3426 -0.6146
 6082TIP3    H139737   1.766   2.710   6.777 -1.6245 -1.1274  1.0221
 6082TIP3    H239738   1.705   2.689   6.640  0.8549 -0.9497 -0.1448
 6083TIP3   OH239739   0.729   1.029  11.477 -0.3763 -0.0027 -1.1377
 6083TIP3    H139740   0.653   0.971  11.468  0.1630 -0.8962 -0.0068
 6083TIP3    H239741   0.801   0.981  11.436 -0.3003  0.6390 -1.7772
 6084TIP3   OH239742   2.360   4.827   6.601 -0.0562  0.7436  0.2361
 6084TIP3    H139743   2.415   4.755   6.570 -0.5370  1.4998 -2.4715
 6084TIP3    H239744   2.366   4.893   6.533 -2.5502  1.7835  0.9599
 6085TIP3   OH239745   1.987   1.483  14.539 -0.3597  0.5730  0.0574
 6085TIP3    H139746   1.954   1.572  14.535 -0.7946  0.3977 -0.2550
 6085TIP3    H239747   1.909   1.429  14.551 -0.0372  0.2859  0.8739
 6086TIP3   OH239748   3.636   4.857   3.048  0.2136  0.1822 -0.3397
 6086TIP3    H139749   3.570   4.795   3.014 -1.2612  1.0556  0.8410
 6086TIP3    H239750   3.717   4.832   3.004 -0.8321 -1.1492 -1.5856
 6087TIP3   OH239751   0.108   3.907   6.136  0.1666  0.1114  0.5223
 6087TIP3    H139752   0.015   3.926   6.152 -0.0655 -1.5311  1.1951
 6087TIP3    H239753   0.155   3.971   6.189 -0.6043 -0.7893  2.3564
 6088TIP3   OH239754   2.597   4.711   5.849 -0.0787  0.2913 -0.2114
 6088TIP3    H139755   2.602   4.615   5.849 -0.3648  0.2756 -0.8960
 6088TIP3    H239756   2.520   4.731   5.903 -1.5020  0.0451 -2.0886
 6089TIP3   OH239757   1.298   1.003   1.583 -0.3815  0.3462 -0.3162
 6089TIP3    H139758   1.344   0.931   1.626 -2.0700  0.6685  2.1449
 6089TIP3    H239759   1.265   0.965   1.502 -0.4123 -1.3996  0.4850
 6090TIP3   OH239760   3.630   5.986   2.376 -0.1897 -0.5629  0.0160
 6090TIP3    H139761   3.704   5.934   2.409 -0.6858 -1.3378 -0.0750
 6090TIP3    H239762   3.648   6.075   2.406  0.5267 -0.8387  0.4230
 6091TIP3   OH239763   2.288   2.925  16.702  0.0429  0.0167  0.7413
 6091TIP3    H139764   2.369   2.961  16.667 -0.4854  0.0864 -0.4281
 6091TIP3    H239765   2.221   2.989  16.680 -0.6753 -1.0159 -0.1520
 6092TIP3   OH239766   6.038   3.417  11.540 -0.0075 -0.7308  0.5296
 6092TIP3    H139767   5.955   3.411  11.492  0.9921 -3.4195 -1.0153
 6092TIP3    H239768   6.015   3.396  11.630 -1.4388  1.3857  0.6890
 6093TIP3   OH239769   2.405   5.751   4.667 -0.5439 -0.3236 -0.0467
 6093TIP3    H139770   2.398   5.771   4.760  0.0155  0.9856 -0.2794
 6093TIP3    H239771   2.333   5.800   4.627 -2.1026 -2.5293 -0.0875
 6094TIP3   OH239772   2.875   2.073   1.287 -0.1089 -0.3822  0.4764
 6094TIP3    H139773   2.832   2.146   1.330 -2.2136 -1.9045  1.0852
 6094TIP3    H239774   2.936   2.038   1.352 -0.9804 -0.7241  1.1280
 6095TIP3   OH239775   1.712   3.899   5.307  0.0012  0.5971  0.0867
 6095TIP3    H139776   1.628   3.902   5.261  0.5728  0.5866 -0.9915
 6095TIP3    H239777   1.735   3.991   5.320  0.0184  0.6036  0.0095
 6096TIP3   OH239778   3.821   5.032   6.167 -0.3910 -0.0864  0.1009
 6096TIP3    H139779   3.745   4.983   6.134  1.1380 -1.3059 -1.7036
 6096TIP3    H239780   3.857   4.976   6.236 -0.1019 -0.3729 -0.2746
 6097TIP3   OH239781   4.840   2.809  11.894  0.0870 -0.8515 -0.2934
 6097TIP3    H139782   4.824   2.903  11.900 -2.3478 -1.0744 -2.1675
 6097TIP3    H239783   4.788   2.771  11.965  2.2209 -0.7158  1.3842
 6098TIP3   OH239784   6.083   4.386   1.840 -0.3457 -0.0522 -0.1071
 6098TIP3    H139785   6.177   4.397   1.855 -0.2188 -0.7790 -0.3139
 6098TIP3    H239786   6.052   4.473   1.817  0.6490 -0.1671 -1.9938
 6099TIP3   OH239787   4.779   2.722   0.852 -0.4356  0.0127 -0.0665
 6099TIP3    H139788   4.739   2.765   0.776  0.3735 -0.8185 -0.9671
 6099TIP3    H239789   4.872   2.742   0.845 -0.2733 -0.5708  0.3772
 6100TIP3   OH239790   4.686   3.155   5.954  0.2950 -0.3208 -0.4663
 6100TIP3    H139791   4.704   3.181   6.045  0.2758  0.9352 -0.8125
 6100TIP3    H239792   4.693   3.060   5.955  0.4901 -0.3079  0.8168
 6101TIP3   OH239793   0.152   4.233  14.087  0.6588 -0.5177  0.4305
 6101TIP3    H139794   0.133   4.243  13.994  0.1957  0.7536  0.6567
 6101TIP3    H239795   0.228   4.288  14.102 -1.1333  1.7620  1.4253
 6102TIP3   OH239796   4.957   5.407   0.572 -0.7015 -0.3047 -0.1014
 6102TIP3    H139797   4.886   5.471   0.576 -1.0765 -0.7775  1.1786
 6102TIP3    H239798   5.033   5.458   0.544 -1.4136  0.3229 -0.9152
 6103TIP3   OH239799   0.863   2.628   5.348  0.3428 -0.1768 -0.0584
 6103TIP3    H139800   0.930   2.646   5.414  0.1399  0.2095  0.0441
 6103TIP3    H239801   0.900   2.557   5.295 -0.6837 -2.4713  2.1925
 6104TIP3   OH239802   0.826   5.216  13.627  0.2627 -0.3000  0.5280
 6104TIP3    H139803   0.907   5.173  13.657  0.3838 -1.3757 -1.2674
 6104TIP3    H239804   0.819   5.191  13.535 -1.6903  0.4802  0.4557
 6105TIP3   OH239805   4.522   6.183  13.877 -0.2195  0.9994  0.4631
 6105TIP3    H139806   4.526   6.094  13.912  1.1342  0.7672 -0.2434
 6105TIP3    H239807   4.535   6.240  13.953  0.3810  0.5541  0.7016
 6106TIP3   OH239808   4.978   5.166   1.809 -0.3362 -0.4340  0.2366
 6106TIP3    H139809   5.015   5.144   1.895  1.7875  2.8230  0.2695
 6106TIP3    H239810   5.055   5.185   1.755 -1.7769  0.6782 -1.4446
 6107TIP3   OH239811   6.255   1.280  15.427 -0.0446 -0.5391  0.0200
 6107TIP3    H139812   6.321   1.260  15.494  1.5238 -0.7593 -1.5551
 6107TIP3    H239813   6.287   1.236  15.348 -1.1852  0.8098 -1.2125
 6108TIP3   OH239814   1.199   1.979  13.051 -0.0529 -0.1232  0.0727
 6108TIP3    H139815   1.201   1.961  12.957 -1.9216 -1.3057  0.2503
 6108TIP3    H239816   1.242   2.065  13.059 -1.3634  0.7907 -2.0482
 6109TIP3   OH239817   5.144   3.981  10.488 -0.4104  0.7997 -0.1826
 6109TIP3    H139818   5.065   3.943  10.525 -0.3103  1.1977  0.4509
 6109TIP3    H239819   5.205   3.986  10.562  0.6243 -0.5991 -0.9114
 6110TIP3   OH239820   2.995   2.683  11.952 -0.1761 -0.6392 -0.3811
 6110TIP3    H139821   2.956   2.734  11.881 -3.1132  0.1814  1.7451
 6110TIP3    H239822   2.943   2.603  11.955  0.4144 -1.0058  0.3984
 6111TIP3   OH239823   4.267   3.297  10.921 -0.1135 -0.3153  0.2358
 6111TIP3    H139824   4.204   3.361  10.954  1.8803  1.6632  0.3438
 6111TIP3    H239825   4.283   3.324  10.831 -0.6263 -1.7882 -0.3076
 6112TIP3   OH239826   5.083   5.456   5.349  0.3434 -0.4159 -0.3393
 6112TIP3    H139827   5.104   5.377   5.399  0.3098 -0.3511 -0.2217
 6112TIP3    H239828   4.989   5.451   5.334  0.3404 -0.3948 -0.3261
 6113TIP3   OH239829   1.446   2.741   1.850  0.4233 -0.4864  1.1605
 6113TIP3    H139830   1.350   2.740   1.844  0.5518  0.2708 -2.7688
 6113TIP3    H239831   1.474   2.760   1.761  4.2338  0.6350  2.5396
 6114TIP3   OH239832   0.149   4.367   6.418 -0.5061 -0.3885 -0.2303
 6114TIP3    H139833   0.098   4.447   6.433 -1.1198 -0.7678 -0.2656
 6114TIP3    H239834   0.238   4.390   6.446 -0.5352  0.5075 -0.8484
 6115TIP3   OH239835   0.504   0.709   5.487  0.2066 -0.4515  0.3968
 6115TIP3    H139836   0.473   0.711   5.577  0.4325 -2.0144  0.5258
 6115TIP3    H239837   0.554   0.790   5.477 -0.8768  0.3355  1.2790
 6116TIP3   OH239838   0.884   6.597   2.541 -0.2580 -0.0592 -0.1594
 6116TIP3    H139839   0.818   6.528   2.550 -1.3898  1.0611  0.2907
 6116TIP3    H239840   0.920   6.608   2.629 -0.7771  0.5867 -0.0195
 6117TIP3   OH239841   0.923   2.190   2.577 -0.1469  0.4280 -0.0284
 6117TIP3    H139842   0.962   2.164   2.660  0.8755 -1.3645 -1.0243
 6117TIP3    H239843   0.856   2.253   2.600  0.2206  0.0531  2.1402
 6118TIP3   OH239844   6.112   5.068  14.165  0.0924  0.4761  0.2502
 6118TIP3    H139845   6.163   5.073  14.084  1.3807  0.4314  1.0423
 6118TIP3    H239846   6.139   5.145  14.215  0.3479 -0.2440  1.2367
 6119TIP3   OH239847   3.174   0.562   0.898  0.4883 -0.1060 -0.0335
 6119TIP3    H139848   3.153   0.510   0.820  2.7230 -2.1477  0.6626
 6119TIP3    H239849   3.243   0.622   0.869  0.1276  0.3195 -0.0259
 6120TIP3   OH239850   2.066   3.484  15.201 -0.0307  0.0209  0.3367
 6120TIP3    H139851   2.025   3.468  15.116  0.0521  0.1979  0.2619
 6120TIP3    H239852   2.001   3.455  15.265 -0.2398  0.2280  0.2193
 6121TIP3   OH239853   0.125   1.904  13.595  0.6897 -0.7770 -0.0894
 6121TIP3    H139854   0.076   1.986  13.596  1.9293  0.0599 -2.9059
 6121TIP3    H239855   0.063   1.839  13.562  0.6684 -0.2634 -1.0817
 6122TIP3   OH239856   6.348   3.088  15.769 -0.3552 -0.0825 -0.1071
 6122TIP3    H139857   6.410   3.016  15.778 -0.3325  0.0906  1.2376
 6122TIP3    H239858   6.402   3.163  15.743 -0.2877 -0.3807 -0.8544
 6123TIP3   OH239859   2.248   3.138  17.091 -0.4705 -0.1213 -0.4165
 6123TIP3    H139860   2.271   3.056  17.049 -2.3986 -0.0155 -1.7520
 6123TIP3    H239861   2.161   3.123  17.129 -0.3765  0.9537  0.2534
 6124TIP3   OH239862   5.226   4.232   1.022  0.3154  0.0003  0.0617
 6124TIP3    H139863   5.224   4.145   1.061  0.3776 -1.1623 -2.4047
 6124TIP3    H239864   5.135   4.261   1.022  0.1854 -0.4162  0.1632
 6125TIP3   OH239865   1.574   0.993   5.458 -0.1598 -0.0481  0.2101
 6125TIP3    H139866   1.634   0.979   5.385 -0.1760  0.5383  0.0861
 6125TIP3    H239867   1.624   0.967   5.535  0.3661  0.7441  0.1377
 6126TIP3   OH239868   2.379   4.684   0.373 -0.1178  0.4019 -0.3973
 6126TIP3    H139869   2.381   4.754   0.307 -0.3066  2.4849  1.7204
 6126TIP3    H239870   2.467   4.646   0.369  0.0792  0.9244 -1.4177
 6127TIP3   OH239871   5.461   1.943   2.757 -0.2217 -0.1777 -0.1904
 6127TIP3    H139872   5.541   1.891   2.748  0.3790  0.3824  1.7715
 6127TIP3    H239873   5.447   1.950   2.851 -1.4231  1.5341 -0.4732
 6128TIP3   OH239874   6.418   6.577   2.239  0.5264 -0.1924 -0.0091
 6128TIP3    H139875   6.347   6.633   2.272 -0.5851 -2.3724  1.3733
 6128TIP3    H239876   6.498   6.627   2.258 -0.5703  2.2512 -1.4892
 6129TIP3   OH239877   1.150   4.160   3.431 -0.1295 -0.4127 -0.9562
 6129TIP3    H139878   1.108   4.115   3.358 -0.1860 -0.1561 -1.0814
 6129TIP3    H239879   1.243   4.160   3.410 -0.1761 -0.0947 -1.1598
 6130TIP3   OH239880   3.663   2.956   5.243 -0.4427  0.1000 -0.0953
 6130TIP3    H139881   3.723   2.888   5.212 -0.8982  0.1673 -1.1247
 6130TIP3    H239882   3.580   2.937   5.200 -0.9330  0.5383  0.6327
 6131TIP3   OH239883   3.615   0.116   1.483 -0.3830 -0.2995  0.0000
 6131TIP3    H139884   3.556   0.175   1.436  0.7264  0.9366  0.1310
 6131TIP3    H239885   3.559   0.044   1.510 -0.9157 -1.4748 -3.9059
 6132TIP3   OH239886   3.104   4.302   5.579 -0.8145 -0.0802 -0.4262
 6132TIP3    H139887   3.146   4.354   5.510 -1.2022 -0.5707 -1.0421
 6132TIP3    H239888   3.013   4.333   5.581 -0.4519  0.9339  0.8592
 6133TIP3   OH239889   0.085   5.802  15.855 -0.3114  0.0696  0.1255
 6133TIP3    H139890   0.117   5.846  15.934  0.4654 -0.3815  0.0616
 6133TIP3    H239891   0.008   5.854  15.829 -1.4555 -0.6290  1.9995
 6134TIP3   OH239892   2.034   6.678   4.425 -0.2493  0.1406 -0.0404
 6134TIP3    H139893   1.938   6.685   4.424 -0.2536  0.0456 -0.2618
 6134TIP3    H239894   2.060   6.702   4.336 -0.1312 -0.7063 -0.2462
 6135TIP3   OH239895   0.160   1.290  11.247 -0.3285  0.1928 -0.0727
 6135TIP3    H139896   0.106   1.265  11.322  2.1222  0.5845  1.8459
 6135TIP3    H239897   0.135   1.380  11.228 -0.4825  0.3057  0.6704
 6136TIP3   OH239898   5.448   4.338  11.614  0.4903 -0.1815 -0.4615
 6136TIP3    H139899   5.364   4.361  11.573 -0.3971 -0.9107  0.9182
 6136TIP3    H239900   5.476   4.259  11.568 -0.6184 -1.1298  0.4857
 6137TIP3   OH239901   6.472   1.566   5.413 -0.1752 -0.2558  0.0276
 6137TIP3    H139902   6.565   1.544   5.416 -0.7154 -2.5439  0.6019
 6137TIP3    H239903   6.438   1.514   5.340 -0.9374  0.8771 -0.4262
 6138TIP3   OH239904   5.967   2.456   1.195  0.6907 -0.0117 -0.2398
 6138TIP3    H139905   5.947   2.503   1.276 -0.0539  0.8271 -0.8984
 6138TIP3    H239906   5.968   2.364   1.221  0.1442  0.2248  0.6595
 6139TIP3   OH239907   3.173   3.949  16.460 -0.0848  0.0097  0.3971
 6139TIP3    H139908   3.167   3.904  16.376 -0.8142 -0.8700  0.8992
 6139TIP3    H239909   3.082   3.957  16.489  0.0547  1.5311  0.4752
 6140TIP3   OH239910   0.970   5.155  11.274 -0.6817 -0.0632  0.1685
 6140TIP3    H139911   0.898   5.104  11.311  1.4707 -2.2158  1.5361
 6140TIP3    H239912   0.971   5.131  11.181 -0.5094 -1.5936  0.5481
 6141TIP3   OH239913   2.151   4.811  15.456  0.6975  0.2388  0.1509
 6141TIP3    H139914   2.157   4.726  15.499 -0.4221  1.4078  2.6876
 6141TIP3    H239915   2.074   4.803  15.399  0.8863 -0.5969  0.0069
 6142TIP3   OH239916   1.210   3.470   0.617  0.1193  0.1368 -0.4119
 6142TIP3    H139917   1.154   3.444   0.544  0.9335  2.2120 -1.8359
 6142TIP3    H239918   1.204   3.566   0.618  0.6081  0.1674  1.8703
 6143TIP3   OH239919   2.515   5.227  17.187  0.1944  0.2201  0.5229
 6143TIP3    H139920   2.569   5.299  17.218 -1.1671  1.0027  1.1481
 6143TIP3    H239921   2.505   5.243  17.093  0.6269  0.3520  0.4991
 6144TIP3   OH239922   6.646   3.045  15.087 -0.1540 -0.0375 -0.4531
 6144TIP3    H139923   6.621   3.005  15.170  1.2106  0.3867  0.1761
 6144TIP3    H239924   6.736   3.074  15.100 -0.1215  0.5678 -1.8847
 6145TIP3   OH239925   2.261   2.945   1.918  0.0260  0.5574  0.1328
 6145TIP3    H139926   2.205   2.988   1.983  0.7509  0.5430  0.7727
 6145TIP3    H239927   2.219   2.861   1.902  0.8215 -0.2037  1.9417
 6146TIP3   OH239928   0.628   3.325  13.507  0.6618  0.4135 -0.3074
 6146TIP3    H139929   0.581   3.242  13.504  1.3583  0.0281 -0.7116
 6146TIP3    H239930   0.583   3.376  13.574  0.8339 -0.6612  0.6517
 6147TIP3   OH239931   0.881   0.177   5.654  0.3321  0.2319  0.1046
 6147TIP3    H139932   0.968   0.202   5.623 -0.9609  2.2684 -2.0138
 6147TIP3    H239933   0.834   0.149   5.576 -0.4867 -2.3707  1.4498
 6148TIP3   OH239934   6.691   3.878   2.550 -0.0736  0.0724 -0.4048
 6148TIP3    H139935   6.761   3.943   2.544 -0.2490  0.1888 -1.3805
 6148TIP3    H239936   6.611   3.930   2.555 -0.2023 -0.0692 -0.9850
 6149TIP3   OH239937   1.315   3.211   5.225  0.0062  0.6759 -0.3411
 6149TIP3    H139938   1.228   3.177   5.249  1.2254 -0.9826  1.9188
 6149TIP3    H239939   1.315   3.301   5.257 -0.5860  0.3981  0.4583
 6150TIP3   OH239940   6.555   6.580   1.942  0.6783  0.3446 -0.1031
 6150TIP3    H139941   6.602   6.632   2.007  1.6577 -0.9877  0.2710
 6150TIP3    H239942   6.471   6.561   1.983  0.5810  1.0763  0.0301
 6151TIP3   OH239943   0.782   1.244   3.115 -0.1256 -0.4858 -0.0893
 6151TIP3    H139944   0.792   1.337   3.093  1.4549 -0.3249  1.2019
 6151TIP3    H239945   0.733   1.243   3.197 -0.1845 -0.7893 -0.1275
 6152TIP3   OH239946   6.582   4.756   1.457  0.6199 -0.3866  0.1239
 6152TIP3    H139947   6.573   4.746   1.362  0.1011 -0.2155  0.1525
 6152TIP3    H239948   6.657   4.702   1.480  0.2369 -1.0964 -0.2653
 6153TIP3   OH239949   1.315   1.760  13.803  0.1294  0.0522  0.0106
 6153TIP3    H139950   1.226   1.755  13.837 -0.1230 -1.2193 -0.8032
 6153TIP3    H239951   1.340   1.851  13.815 -0.6880  0.0660  1.7361
 6154TIP3   OH239952   4.604   2.137   4.196 -0.0234  0.4000  0.2848
 6154TIP3    H139953   4.598   2.204   4.264  2.1852 -0.4429  1.3626
 6154TIP3    H239954   4.681   2.163   4.144 -1.3026  0.6808 -1.5139
 6155TIP3   OH239955   5.948   0.426  12.922 -0.6783 -0.1441  0.0208
 6155TIP3    H139956   5.891   0.357  12.887  0.0046 -0.3329 -0.7207
 6155TIP3    H239957   6.018   0.435  12.857  0.2325 -0.0318  1.0123
 6156TIP3   OH239958   1.402   6.501   0.012  0.2089 -0.8009 -0.3820
 6156TIP3    H139959   1.468   6.543   0.066 -0.5854 -0.0611  0.0164
 6156TIP3    H239960   1.433   6.514  -0.078  0.5324 -0.3518 -0.2043
 6157TIP3   OH239961   0.115   1.566   4.604 -0.4675 -0.1265  0.2803
 6157TIP3    H139962   0.192   1.559   4.547 -0.8779 -1.0840 -0.1693
 6157TIP3    H239963   0.151   1.592   4.689  0.2478  0.3933 -0.1740
 6158TIP3   OH239964   5.375   0.037  11.942  0.0339  0.2842  0.2940
 6158TIP3    H139965   5.298   0.066  11.991  0.4230  0.5070  0.7744
 6158TIP3    H239966   5.374   0.091  11.863  0.8219  1.7124  1.2460
 6159TIP3   OH239967   4.994   4.722  14.343  0.4015  0.1933  0.0686
 6159TIP3    H139968   5.062   4.768  14.392  0.3603 -0.4531  0.7338
 6159TIP3    H239969   4.913   4.738  14.393  0.0859  0.8425 -0.6406
 6160TIP3   OH239970   0.737   3.262  16.385  0.2796  0.0609 -0.5548
 6160TIP3    H139971   0.776   3.175  16.381  0.0060 -0.0432 -0.9781
 6160TIP3    H239972   0.810   3.322  16.371  0.1638 -0.1567 -2.2127
 6161TIP3   OH239973   1.733   2.268  14.167  0.5867 -0.1297  0.6090
 6161TIP3    H139974   1.762   2.355  14.138  0.8608 -0.4251 -0.0024
 6161TIP3    H239975   1.811   2.214  14.165  0.5105 -0.2752  1.4534
 6162TIP3   OH239976   4.302   0.852   0.508  0.0494  0.0173  0.2693
 6162TIP3    H139977   4.255   0.900   0.576  1.6172  2.5568 -0.3595
 6162TIP3    H239978   4.240   0.844   0.436 -0.2240  1.2147  0.3556
 6163TIP3   OH239979   1.391   1.345   4.080 -0.2014  0.4634 -0.5888
 6163TIP3    H139980   1.362   1.433   4.100  1.8754  1.2512 -0.8503
 6163TIP3    H239981   1.444   1.319   4.156 -0.2600 -0.3042 -0.8010
 6164TIP3   OH239982   6.803   6.180   0.217 -0.5362  0.1995  0.3588
 6164TIP3    H139983   6.739   6.121   0.177  0.0549 -0.3947  0.2819
 6164TIP3    H239984   6.777   6.267   0.188 -0.6187 -0.1525 -0.6260
 6165TIP3   OH239985   4.462   0.442   6.763 -0.4865  0.2757 -0.2851
 6165TIP3    H139986   4.382   0.422   6.811 -0.4561  0.5277 -0.1272
 6165TIP3    H239987   4.451   0.398   6.679 -1.2841  1.2529 -0.6916
 6166TIP3   OH239988   0.016   3.061  16.885  0.5595 -0.1902  0.0966
 6166TIP3    H139989   0.080   3.013  16.938  1.0819  1.0434  0.6087
 6166TIP3    H239990   0.065   3.088  16.807  0.6191  0.5723  0.3910
 6167TIP3   OH239991   2.370   2.420   2.597 -0.3045 -0.1925 -0.0299
 6167TIP3    H139992   2.322   2.503   2.604 -0.8669 -0.4816 -0.4250
 6167TIP3    H239993   2.332   2.365   2.666 -0.1758 -0.2402  0.0023
 6168TIP3   OH239994   3.035   1.149  13.336 -0.1628 -0.5603 -0.2095
 6168TIP3    H139995   3.066   1.239  13.348 -0.2515 -0.3500 -1.5493
 6168TIP3    H239996   2.951   1.147  13.382 -0.1058 -0.0013 -0.0701
 6169TIP3   OH239997   3.106   6.022   4.508  0.3898 -0.2729 -0.2261
 6169TIP3    H139998   3.130   6.015   4.600  0.9354 -0.2485 -0.3689
 6169TIP3    H239999   3.104   6.116   4.490 -1.0767 -0.2149  0.1173
 6170TIP3   OH240000   0.762   6.336   4.731  0.0777  0.2692  0.1608
 6170TIP3    H140001   0.749   6.251   4.772  0.7193 -0.1227 -0.4337
 6170TIP3    H240002   0.675   6.375   4.727 -0.4424 -0.9780 -0.9083
 6171TIP3   OH240003   6.437   0.671  15.866  0.2119  0.0834 -0.7684
 6171TIP3    H140004   6.493   0.650  15.941  0.5386  0.6860 -0.8439
 6171TIP3    H240005   6.465   0.611  15.797 -0.1757 -0.5627 -0.3768
 6172TIP3   OH240006   3.545   2.280   1.048  0.5613  0.2082 -0.4805
 6172TIP3    H140007   3.474   2.331   1.008  2.2462  3.4279  0.4180
 6172TIP3    H240008   3.623   2.334   1.035  2.2821 -1.7821  1.2904
 6173TIP3   OH240009   3.491   5.065  11.612 -0.0627 -0.2793 -0.3815
 6173TIP3    H140010   3.448   5.107  11.686 -0.7861  0.7506 -1.3602
 6173TIP3    H240011   3.443   4.984  11.599  0.7911 -1.0264  0.9789
 6174TIP3   OH240012   1.810   1.286  11.182  0.2169  0.0519 -0.4770
 6174TIP3    H140013   1.900   1.265  11.160  0.1929  1.7495 -2.2807
 6174TIP3    H240014   1.768   1.305  11.098 -1.5970  0.1301  0.4195
 6175TIP3   OH240015   3.257   0.020   4.424  0.1416  0.2709 -0.8104
 6175TIP3    H140016   3.255   0.115   4.413  2.0828  0.4869  0.5664
 6175TIP3    H240017   3.187   0.001   4.486  3.3339  1.4737  3.3437
 6176TIP3   OH240018   1.767   5.794   2.141  0.2872 -0.1327 -0.1310
 6176TIP3    H140019   1.770   5.861   2.073  0.5595  0.0015  0.0100
 6176TIP3    H240020   1.786   5.841   2.222 -0.8871 -0.1454  0.1565
 6177TIP3   OH240021   6.268   1.479  12.303  0.0984 -0.3987  0.4414
 6177TIP3    H140022   6.349   1.492  12.353  0.5123 -0.2819 -0.2546
 6177TIP3    H240023   6.209   1.437  12.365  0.7757 -0.7209  0.8845
 6178TIP3   OH240024   5.545   2.143  10.948 -0.2430  0.2905 -0.9455
 6178TIP3    H140025   5.541   2.113  11.039  1.4010  0.0068 -0.9538
 6178TIP3    H240026   5.474   2.097  10.904 -0.8437  0.1855  0.1300
 6179TIP3   OH240027   1.258   4.166   3.732 -0.5036 -0.2301 -0.0980
 6179TIP3    H140028   1.214   4.096   3.780 -2.7046  0.7123 -0.6426
 6179TIP3    H240029   1.245   4.144   3.640 -0.6841  0.5610 -0.2655
 6180TIP3   OH240030   6.328   0.744  11.225  0.3815 -0.8524 -0.2347
 6180TIP3    H140031   6.255   0.696  11.266  0.7011  1.3955  3.2177
 6180TIP3    H240032   6.301   0.755  11.134 -1.6703 -3.6941 -0.0519
 6181TIP3   OH240033   6.075   3.650  12.093 -0.4545 -0.1161 -0.1963
 6181TIP3    H140034   5.999   3.661  12.150 -0.0831 -0.2891  0.3327
 6181TIP3    H240035   6.131   3.587  12.139 -0.5218 -0.8690 -1.1219
 6182TIP3   OH240036   1.626   6.311  10.467  0.3407 -0.1977 -0.1725
 6182TIP3    H140037   1.597   6.374  10.533 -0.7943  0.1695 -0.9913
 6182TIP3    H240038   1.570   6.329  10.391  2.1131 -0.1152 -1.4860
 6183TIP3   OH240039   5.349   4.459  14.212 -0.1751 -0.2417 -0.1460
 6183TIP3    H140040   5.284   4.423  14.273  0.2311  0.6627  0.8387
 6183TIP3    H240041   5.394   4.528  14.262  1.1496 -0.4593 -1.0034
 6184TIP3   OH240042   0.914   2.698   2.485 -0.0452 -0.1072  0.0442
 6184TIP3    H140043   0.917   2.676   2.578 -0.1409  1.0410  0.3228
 6184TIP3    H240044   0.909   2.613   2.441 -0.8318 -0.6339  1.1161
 6185TIP3   OH240045   0.814   2.135   1.620 -0.6276 -0.0042  0.2818
 6185TIP3    H140046   0.736   2.135   1.563 -1.0387  1.5557  0.7942
 6185TIP3    H240047   0.882   2.177   1.567 -0.7054  0.4408  0.5250
 6186TIP3   OH240048   0.803   6.817  17.091  0.2085  0.0031  0.4508
 6186TIP3    H140049   0.797   6.889  17.029  0.5616 -0.0236  0.3859
 6186TIP3    H240050   0.712   6.795  17.111  0.0806  1.2639  1.3899
 6187TIP3   OH240051   1.016   6.177   1.394 -0.0309  0.6266 -0.2226
 6187TIP3    H140052   1.042   6.263   1.362  1.4488  0.2821  0.0256
 6187TIP3    H240053   1.020   6.185   1.490 -0.4015  0.4250 -0.1879
 6188TIP3   OH240054   4.553   5.131   4.189 -0.4204  0.2198  0.2551
 6188TIP3    H140055   4.645   5.117   4.211 -0.0222  1.0155 -0.8562
 6188TIP3    H240056   4.506   5.061   4.234  0.8274 -0.7472  0.0540
 6189TIP3   OH240057   2.981   0.423   2.545  0.1441 -0.0874  0.4068
 6189TIP3    H140058   2.943   0.398   2.630 -0.9541 -1.0823 -0.3606
 6189TIP3    H240059   2.907   0.455   2.494  0.3417 -1.8849 -1.0554
 6190TIP3   OH240060   1.503   6.537  13.443 -0.2549 -0.4707  0.5680
 6190TIP3    H140061   1.534   6.626  13.459  0.6840 -0.9181  1.2943
 6190TIP3    H240062   1.474   6.505  13.528  0.6917 -1.3379  0.5717
 6191TIP3   OH240063   4.589   1.100  15.221  0.6637 -0.3006  0.1353
 6191TIP3    H140064   4.568   1.180  15.172  0.8547 -0.2857  0.0776
 6191TIP3    H240065   4.508   1.078  15.267  0.1238 -0.9757 -1.1098
 6192TIP3   OH240066   2.425   4.099  11.382  0.3217 -0.1085 -0.2114
 6192TIP3    H140067   2.435   4.017  11.332 -1.3704 -0.6337  0.2774
 6192TIP3    H240068   2.504   4.149  11.362  2.0111 -2.4123  0.5095
 6193TIP3   OH240069   4.910   6.041  16.067 -0.2791 -0.0478 -0.0473
 6193TIP3    H140070   4.851   6.083  16.130  1.8177  1.4860  0.9348
 6193TIP3    H240071   4.918   6.104  15.996  0.6303  0.0010  0.0938
 6194TIP3   OH240072   2.904   5.240   5.283 -0.4222  0.3346  0.3073
 6194TIP3    H140073   2.845   5.194   5.343 -0.2745  0.6498  0.6958
 6194TIP3    H240074   2.942   5.171   5.229 -0.2499  0.0059  0.8435
 6195TIP3   OH240075   3.825   2.097  16.901  0.2162 -0.4507  0.4053
 6195TIP3    H140076   3.786   2.009  16.894 -1.4309  0.4538 -2.6103
 6195TIP3    H240077   3.754   2.151  16.937  0.3538  0.1562 -0.2236
 6196TIP3   OH240078   0.355   2.054  10.303 -0.0440  0.3204  0.1782
 6196TIP3    H140079   0.274   2.006  10.316  0.0460  0.3348  0.7923
 6196TIP3    H240080   0.417   1.989  10.270  0.0816  0.0042  1.0217
 6197TIP3   OH240081   4.799   6.626   3.994  0.5776 -0.0875  0.2036
 6197TIP3    H140082   4.778   6.548   4.046  0.5783 -1.5749 -1.9805
 6197TIP3    H240083   4.715   6.653   3.957  0.7658  0.2673  0.0398
 6198TIP3   OH240084   6.115   1.272   2.874  0.4083 -0.0250 -0.1161
 6198TIP3    H140085   6.116   1.180   2.900 -0.4049 -0.5470 -1.8462
 6198TIP3    H240086   6.070   1.273   2.789 -1.4636  2.2157  0.8354
 6199TIP3   OH240087   3.077   6.720  15.080  0.5908 -0.3926  0.1357
 6199TIP3    H140088   3.129   6.683  15.151 -1.1410 -0.8599  1.1804
 6199TIP3    H240089   3.084   6.655  15.009  0.7469 -0.8455  0.5627
 6200TIP3   OH240090   1.763   4.757  12.479 -0.6485 -0.5281  0.3177
 6200TIP3    H140091   1.811   4.747  12.397 -0.6744  0.6911  0.1501
 6200TIP3    H240092   1.705   4.681  12.482 -0.8487 -0.4311 -0.9233
 6201TIP3   OH240093   4.818   4.934  16.384 -0.7910 -0.5791  0.2379
 6201TIP3    H140094   4.789   4.950  16.294 -1.7312  0.2256  0.6767
 6201TIP3    H240095   4.741   4.951  16.437  0.2527  0.7577  1.3577
 6202TIP3   OH240096   6.157   6.634  13.736  0.1823 -0.1274  0.1245
 6202TIP3    H140097   6.092   6.568  13.712 -0.2863  0.5837 -0.6171
 6202TIP3    H240098   6.107   6.715  13.741  1.0701  0.4884 -0.7926
 6203TIP3   OH240099   2.244   1.714  11.387 -0.4366  1.3204  0.2925
 6203TIP3    H140100   2.245   1.803  11.421 -3.3482  1.5245  0.0111
 6203TIP3    H240101   2.172   1.713  11.324 -1.2020 -1.5087  1.1194
 6204TIP3   OH240102   5.042   1.959  13.211 -0.2476  0.0471 -0.9676
 6204TIP3    H140103   5.135   1.980  13.212  0.5058 -2.7671  3.9171
 6204TIP3    H240104   4.999   2.035  13.252  0.1721  0.3402 -1.0734
 6205TIP3   OH240105   0.816   6.025   2.751  0.6998 -0.2101 -0.0140
 6205TIP3    H140106   0.748   6.072   2.799  0.6184 -0.2097 -0.1304
 6205TIP3    H240107   0.793   5.933   2.760  0.4825 -0.1910 -0.3590
 6206TIP3   OH240108   5.428   2.581  11.937  0.4247  0.6806  0.1298
 6206TIP3    H140109   5.355   2.520  11.945 -0.9434  2.3489  0.7246
 6206TIP3    H240110   5.406   2.634  11.860  1.8088  0.1486 -0.6443
 6207TIP3   OH240111   4.568   1.673   6.014  0.0524 -0.3401 -0.3337
 6207TIP3    H140112   4.597   1.721   6.091 -0.6914  1.0947 -0.9268
 6207TIP3    H240113   4.486   1.632   6.041 -0.5206  0.6572 -0.5318
 6208TIP3   OH240114   3.192   4.911   0.771  0.0681  0.3736  0.2397
 6208TIP3    H140115   3.163   4.920   0.680 -1.9435  0.2563  0.8566
 6208TIP3    H240116   3.243   4.990   0.787  1.6384 -0.2502 -1.4014
 6209TIP3   OH240117   4.647   1.076   2.501  0.0179  0.0973 -0.3271
 6209TIP3    H140118   4.698   1.121   2.433  1.0337  0.1154  0.4415
 6209TIP3    H240119   4.606   1.147   2.551 -0.9318  0.0780 -1.0657
 6210TIP3   OH240120   0.829   4.550  13.157  0.0996  0.6808 -0.1205
 6210TIP3    H140121   0.896   4.617  13.140 -0.0055  0.5065 -1.3163
 6210TIP3    H240122   0.859   4.474  13.107 -1.2002  0.7361 -1.0153
 6211TIP3   OH240123   3.533   2.749  11.555  0.7493  0.4923 -0.1577
 6211TIP3    H140124   3.461   2.781  11.499  0.4946 -0.7722 -0.5806
 6211TIP3    H240125   3.517   2.789  11.640  0.0130  0.8941 -0.4789
 6212TIP3   OH240126   5.107   3.209   0.063 -0.0728 -0.1594  0.3898
 6212TIP3    H140127   5.180   3.234   0.119 -1.3287  1.0148  1.5324
 6212TIP3    H240128   5.055   3.148   0.115 -1.1786  0.8367  0.4978
 6213TIP3   OH240129   6.759   3.252  10.882  0.1933 -0.0477 -0.3652
 6213TIP3    H140130   6.705   3.174  10.871 -1.3338  0.7008  1.4019
 6213TIP3    H240131   6.747   3.276  10.975  3.0316  0.5293 -0.1211
 6214TIP3   OH240132   4.478   2.256   3.291  0.3643 -0.0642  0.0847
 6214TIP3    H140133   4.417   2.321   3.327  0.8570  0.2290  0.4028
 6214TIP3    H240134   4.519   2.300   3.216  0.1984 -0.2522 -0.1163
 6215TIP3   OH240135   6.766   2.378  17.021  0.1693  0.5561  0.0188
 6215TIP3    H140136   6.777   2.473  17.015 -3.3014  1.0501  0.5655
 6215TIP3    H240137   6.733   2.364  17.110 -0.1854 -1.0883 -0.3609
 6216TIP3   OH240138   5.289   2.027  11.705 -0.0051 -0.3335  0.2212
 6216TIP3    H140139   5.317   1.948  11.750  0.0617  2.2777  5.1020
 6216TIP3    H240140   5.371   2.067  11.674  0.2579 -0.5669  0.6114
 6217TIP3   OH240141   5.944   0.423  16.568  0.3895  0.1174  0.0579
 6217TIP3    H140142   5.890   0.495  16.536  1.4187  1.2866  0.9050
 6217TIP3    H240143   5.930   0.423  16.663 -1.0982 -2.0504 -0.1187
 6218TIP3   OH240144   0.265   5.482   0.125  0.1355 -0.1353  0.3078
 6218TIP3    H140145   0.205   5.518   0.190  0.5646 -0.6494  0.9835
 6218TIP3    H240146   0.344   5.460   0.174  0.8641  0.4865 -0.5690
 6219TIP3   OH240147   5.580   4.681   3.175 -0.7491 -0.1773 -0.4697
 6219TIP3    H140148   5.640   4.618   3.216 -0.1465 -0.4487 -1.7378
 6219TIP3    H240149   5.632   4.761   3.167 -1.2094  0.1984  0.2651
 6220TIP3   OH240150   2.164   0.922   3.238  0.2929 -0.4039  0.3918
 6220TIP3    H140151   2.103   0.982   3.281 -0.1820 -0.2246 -0.5239
 6220TIP3    H240152   2.230   0.904   3.305 -0.2449  0.1469  1.0852
 6221TIP3   OH240153   0.091   3.220   0.624 -0.4177 -0.0635  0.3100
 6221TIP3    H140154   0.147   3.177   0.689  0.1153  0.3414  0.1285
 6221TIP3    H240155   0.153   3.262   0.564 -0.9190  0.1659 -0.0497
 6222TIP3   OH240156   2.651   0.422  14.785  0.0811 -0.6881  0.2710
 6222TIP3    H140157   2.704   0.412  14.706 -4.9723 -0.3413 -3.3823
 6222TIP3    H240158   2.630   0.515  14.789 -0.7167 -0.8992  1.3424
 6223TIP3   OH240159   1.197   2.256   4.031  0.2584 -0.5847  0.1385
 6223TIP3    H140160   1.233   2.324   4.089 -0.0208 -2.3524  2.4551
 6223TIP3    H240161   1.103   2.259   4.047 -0.1863  1.0130 -2.5848
 6224TIP3   OH240162   6.433   6.155  11.193 -0.1988  0.1502  0.0400
 6224TIP3    H140163   6.385   6.089  11.243  0.0276  1.6131  2.2488
 6224TIP3    H240164   6.518   6.114  11.176 -0.3829 -0.4795  0.5802
 6225TIP3   OH240165   5.708   1.187   2.182  0.4258  0.5972  0.4494
 6225TIP3    H140166   5.638   1.245   2.212  0.8630  0.3866  1.9228
 6225TIP3    H240167   5.774   1.191   2.251  0.8725 -0.9233  0.1423
 6226TIP3   OH240168   3.732   3.908   3.167 -0.6099  0.5764 -0.4962
 6226TIP3    H140169   3.744   3.992   3.123 -1.7939  1.1300  0.2280
 6226TIP3    H240170   3.807   3.902   3.227 -1.5657  2.0403  0.8794
 6227TIP3   OH240171   5.957   3.219   1.291 -0.2216  0.5596 -0.2826
 6227TIP3    H140172   5.974   3.313   1.281 -0.3078  0.5091 -0.9510
 6227TIP3    H240173   5.878   3.204   1.239  1.3558 -0.3865 -2.4937
 6228TIP3   OH240174   0.419   2.487   5.943  0.3596  0.0873 -0.1039
 6228TIP3    H140175   0.331   2.454   5.962  0.5020  0.3897  1.1612
 6228TIP3    H240176   0.473   2.409   5.936  0.1457 -0.0707  0.0048
 6229TIP3   OH240177   2.661   3.207   5.203 -0.0097 -0.2001 -0.1837
 6229TIP3    H140178   2.689   3.213   5.294 -0.0273  0.4941 -0.2171
 6229TIP3    H240179   2.627   3.294   5.183  0.4940 -0.1847 -1.0106
 6230TIP3   OH240180   4.591   3.945   3.262  0.6271  0.2921  0.1348
 6230TIP3    H140181   4.518   4.007   3.259  0.3927  0.0044 -4.1216
 6230TIP3    H240182   4.556   3.868   3.306 -0.7882  1.1374  0.5300
 6231TIP3   OH240183   1.420   4.422   4.145 -0.1501 -0.6283 -0.1364
 6231TIP3    H140184   1.406   4.355   4.079 -0.0146 -1.1154  0.3288
 6231TIP3    H240185   1.427   4.504   4.096 -0.3554 -0.9487 -0.6964
 6232TIP3   OH240186   5.422   5.945   2.507 -0.6387  0.0234 -0.6520
 6232TIP3    H140187   5.517   5.930   2.512 -0.4944  1.2219  0.5739
 6232TIP3    H240188   5.392   5.935   2.598 -1.6586 -0.0969 -0.9947
 6233TIP3   OH240189   3.413   1.388   3.663 -0.2558  1.0293 -0.4206
 6233TIP3    H140190   3.460   1.362   3.584  1.6550  0.1429  0.9665
 6233TIP3    H240191   3.468   1.455   3.704  0.9511 -1.4546  2.2726
 6234TIP3   OH240192   1.602   3.358  14.281 -0.2985 -0.1727 -0.5345
 6234TIP3    H140193   1.508   3.352  14.264 -0.2102  0.7496 -1.3922
 6234TIP3    H240194   1.608   3.393  14.370 -0.7603 -0.6378 -0.3169
 6235TIP3   OH240195   0.877   2.972  15.365 -1.1119 -0.4543 -0.1414
 6235TIP3    H140196   0.864   3.067  15.365  1.0051 -0.1431  0.9731
 6235TIP3    H240197   0.872   2.948  15.273  1.9048  1.2763 -0.8155
 6236TIP3   OH240198   6.365   4.845   6.681  0.2468  0.3762 -0.4070
 6236TIP3    H140199   6.448   4.816   6.720  0.6760  1.8970 -0.1448
 6236TIP3    H240200   6.298   4.820   6.744  0.3245 -2.2320 -1.3157
 6237TIP3   OH240201   0.504   6.761   6.027 -0.2721  0.3078 -0.2508
 6237TIP3    H140202   0.522   6.742   6.119 -1.4705 -0.8249 -0.2449
 6237TIP3    H240203   0.410   6.751   6.018 -0.6027  3.5465 -0.9123
 6238TIP3   OH240204   0.970   5.649   5.655  0.1604 -0.2336 -0.0345
 6238TIP3    H140205   0.931   5.617   5.737  0.4646  0.4281  0.3683
 6238TIP3    H240206   0.933   5.591   5.588  0.1165 -0.9536  0.5966
 6239TIP3   OH240207   6.623   4.998  12.393  0.3785 -0.6658  0.1921
 6239TIP3    H140208   6.717   4.979  12.400  0.2855 -1.3472 -0.3590
 6239TIP3    H240209   6.584   4.916  12.366 -0.1623  0.0585 -1.2730
 6240TIP3   OH240210   4.062   3.959  17.033 -0.0579  0.2893  0.3036
 6240TIP3    H140211   4.119   3.921  16.966  0.0814  2.7094 -0.9925
 6240TIP3    H240212   3.976   3.922  17.015  0.2501 -0.0867 -0.4024
 6241TIP3   OH240213   0.300   4.642   1.983 -0.2852 -0.4285 -0.5100
 6241TIP3    H140214   0.303   4.548   1.997  0.3352 -0.6531 -2.0192
 6241TIP3    H240215   0.221   4.656   1.930  0.1395 -0.2239 -1.0975
 6242TIP3   OH240216   3.759   3.189   5.318 -0.0984 -0.5248  0.1880
 6242TIP3    H140217   3.835   3.202   5.262  0.1079 -0.2412  0.5349
 6242TIP3    H240218   3.695   3.145   5.261  0.4162 -1.0077 -0.0215
 6243TIP3   OH240219   4.568   4.783   1.280  0.1966  0.0171  0.7626
 6243TIP3    H140220   4.649   4.812   1.322 -0.6167  2.3769  0.7755
 6243TIP3    H240221   4.553   4.847   1.211  1.0434 -3.2826 -2.6898
 6244TIP3   OH240222   1.172   0.852  15.070  0.1306  0.2236 -0.2690
 6244TIP3    H140223   1.095   0.808  15.034  0.6929 -1.2433  0.2593
 6244TIP3    H240224   1.139   0.936  15.102 -0.9890  0.1675 -1.2413
 6245TIP3   OH240225   5.456   1.038   4.111  0.1948  0.4900 -0.4159
 6245TIP3    H140226   5.501   1.036   4.195  0.0189  0.6597 -0.3163
 6245TIP3    H240227   5.510   0.984   4.053  0.1601  0.1378 -0.1155
 6246TIP3   OH240228   2.223   0.978  15.034  0.0477  0.1438 -0.6783
 6246TIP3    H140229   2.292   1.044  15.028 -0.3683  0.7387  0.8495
 6246TIP3    H240230   2.180   0.981  14.949  0.8725  0.9164 -1.0786
 6247TIP3   OH240231   0.298   2.475  13.912  0.3322  0.4972  0.2762
 6247TIP3    H140232   0.251   2.392  13.907  0.9814  0.2412 -2.2035
 6247TIP3    H240233   0.238   2.533  13.959 -1.6721 -0.3695 -1.1228
 6248TIP3   OH240234   4.705   5.847  16.060  0.4715 -0.0596 -0.2330
 6248TIP3    H140235   4.778   5.908  16.071 -0.1561  0.3800  1.7372
 6248TIP3    H240236   4.661   5.875  15.980 -0.1335  2.4243  0.9440
 6249TIP3   OH240237   2.611   0.058   1.566 -0.2895  0.5626  0.6033
 6249TIP3    H140238   2.654   0.067   1.651 -0.2448 -1.8887  0.8826
 6249TIP3    H240239   2.681   0.029   1.507 -0.9466 -0.7256  0.4366
 6250TIP3   OH240240   5.002   5.410   4.362 -0.0555  0.5552 -0.1940
 6250TIP3    H140241   5.031   5.368   4.281  0.7247  1.6952 -0.5258
 6250TIP3    H240242   5.079   5.459   4.392 -0.5890  0.7970  0.8004
 6251TIP3   OH240243   0.160   6.079   5.377 -0.1156  0.2907  0.3690
 6251TIP3    H140244   0.076   6.063   5.333  1.5171  0.1121 -2.8438
 6251TIP3    H240245   0.140   6.144   5.445 -3.0925 -0.8008  0.6042
 6252TIP3   OH240246   5.942   0.942   5.017  0.0372 -0.2716  0.0018
 6252TIP3    H140247   6.019   0.951   5.074  0.0494 -0.6092  0.0362
 6252TIP3    H240248   5.978   0.948   4.928 -0.1084  1.2837  0.0382
 6253TIP3   OH240249   4.124   1.955  14.128 -0.5101  0.2548  0.1062
 6253TIP3    H140250   4.190   2.022  14.112 -0.5995  0.0905 -0.9696
 6253TIP3    H240251   4.174   1.876  14.148 -0.4009  0.9072  2.6176
 6254TIP3   OH240252   5.003   2.487   0.550 -0.2514 -0.1753  0.2236
 6254TIP3    H140253   4.914   2.521   0.538 -0.6998 -1.3706  0.0815
 6254TIP3    H240254   5.056   2.564   0.568 -1.5625  0.4062  1.6976
 6255TIP3   OH240255   5.829   5.037   2.729 -0.1127 -0.0443 -0.1682
 6255TIP3    H140256   5.834   4.975   2.656  0.3409 -1.5292  1.0788
 6255TIP3    H240257   5.741   5.074   2.723 -0.8944 -1.8182 -0.1744
 6256TIP3   OH240258   4.403   2.442   0.291 -0.7293 -0.3697 -0.0120
 6256TIP3    H140259   4.395   2.519   0.348 -2.8129 -0.0256 -0.6971
 6256TIP3    H240260   4.495   2.438   0.268 -0.2729  0.8630  1.5134
 6257TIP3   OH240261   6.171   2.526   1.706 -0.3385  0.5242  0.4393
 6257TIP3    H140262   6.148   2.618   1.720 -0.9981  0.3677  0.4289
 6257TIP3    H240263   6.086   2.482   1.697 -0.1114 -0.4315  2.5861
 6258TIP3   OH240264   3.573   6.758   6.065  0.2719 -0.7794  0.6647
 6258TIP3    H140265   3.635   6.746   6.137 -1.9675 -0.7248  2.6727
 6258TIP3    H240266   3.504   6.694   6.082 -0.0586 -1.1089 -1.7370
 6259TIP3   OH240267   2.218   0.689   5.373 -0.5708  0.0323  0.0059
 6259TIP3    H140268   2.195   0.781   5.387 -0.2120 -0.0052  0.8764
 6259TIP3    H240269   2.312   0.685   5.389 -1.0722 -1.0649  3.2319
 6260TIP3   OH240270   5.336   1.956  14.720 -0.0559  0.3157  0.3351
 6260TIP3    H140271   5.411   2.008  14.692  0.5109  0.0960  1.4284
 6260TIP3    H240272   5.290   1.935  14.639 -0.5862  2.9395 -0.0987
 6261TIP3   OH240273   4.874   3.784  13.651 -0.4494  0.2264  0.4826
 6261TIP3    H140274   4.858   3.730  13.729 -1.5406 -0.4801 -0.2096
 6261TIP3    H240275   4.797   3.841  13.647 -1.6585 -1.4569 -1.4662
 6262TIP3   OH240276   1.978   2.984   3.140  0.2722 -0.9871 -0.1923
 6262TIP3    H140277   1.996   2.912   3.080 -0.6391  0.5392 -2.3395
 6262TIP3    H240278   2.064   3.025   3.154  0.2790 -0.5688 -1.4605
 6263TIP3   OH240279   0.502   5.353  15.186 -0.1326  0.0211 -0.1810
 6263TIP3    H140280   0.414   5.391  15.186 -0.3576 -0.4981  1.3306
 6263TIP3    H240281   0.558   5.425  15.215 -0.1960  0.0137 -0.0403
 6264TIP3   OH240282   4.199   4.946  16.667  0.6059  0.0367  0.1677
 6264TIP3    H140283   4.259   4.884  16.627 -1.6988 -2.4010  0.2972
 6264TIP3    H240284   4.191   5.017  16.604  1.4889 -0.9556 -1.0820
 6265TIP3   OH240285   3.618   0.306   4.792  0.3782  0.0925  0.4454
 6265TIP3    H140286   3.545   0.259   4.832 -1.6103  2.0535 -0.7395
 6265TIP3    H240287   3.614   0.280   4.700  1.4213 -0.0701  0.4481
 6266TIP3   OH240288   2.696   2.637   5.599  0.0827 -0.2980  0.7916
 6266TIP3    H140289   2.727   2.716   5.555 -0.2835 -0.5810  0.0304
 6266TIP3    H240290   2.746   2.566   5.559 -0.5939 -0.6084  0.5007
 6267TIP3   OH240291   4.159   5.283  11.755 -0.2326 -0.0349 -0.1341
 6267TIP3    H140292   4.143   5.368  11.796  1.0751  1.2284 -2.1355
 6267TIP3    H240293   4.253   5.283  11.738 -0.0419 -2.3467  0.8004
 6268TIP3   OH240294   2.249   3.792   2.278 -0.6289  0.1403  0.4566
 6268TIP3    H140295   2.278   3.883   2.274 -0.9757  0.3029  1.5160
 6268TIP3    H240296   2.316   3.743   2.230 -1.1432  1.1193 -1.3129
 6269TIP3   OH240297   4.031   5.951   5.464  0.0596  0.1790 -0.1726
 6269TIP3    H140298   4.006   6.033   5.421 -1.4277  0.8875  1.9399
 6269TIP3    H240299   4.123   5.964   5.488 -0.5824  1.8657  1.4798
 6270TIP3   OH240300   6.662   2.759   4.097 -0.1714  0.4310  0.0055
 6270TIP3    H140301   6.629   2.736   4.184 -0.3655  0.6861 -0.0008
 6270TIP3    H240302   6.755   2.778   4.111 -0.2507  0.6802  0.1918
 6271TIP3   OH240303   2.452   5.755  17.029  0.3442 -0.6650  0.0952
 6271TIP3    H140304   2.396   5.811  17.083 -1.0459  0.0069 -1.9929
 6271TIP3    H240305   2.537   5.799  17.029 -0.4697  0.9489 -0.7149
 6272TIP3   OH240306   2.804   1.369   2.525  0.0680  0.2212 -0.3304
 6272TIP3    H140307   2.794   1.361   2.431  1.0508 -0.8203 -0.3588
 6272TIP3    H240308   2.870   1.438   2.537 -0.5302  0.8061 -0.3804
 6273TIP3   OH240309   6.636   5.207   1.430 -0.2891 -0.3817  0.1838
 6273TIP3    H140310   6.722   5.245   1.453 -0.4059 -1.0278  1.7756
 6273TIP3    H240311   6.656   5.118   1.402 -0.3061 -0.0929 -0.7460
 6274TIP3   OH240312   1.895   5.671  12.294  0.4403  0.3884 -0.0333
 6274TIP3    H140313   1.838   5.662  12.370  0.0754  1.3207 -0.1868
 6274TIP3    H240314   1.971   5.720  12.327  1.9793 -2.3325  0.5863
 6275TIP3   OH240315   4.226   2.867  16.755 -0.4914 -0.0387 -0.3259
 6275TIP3    H140316   4.160   2.914  16.703  0.3443  0.6433 -0.7789
 6275TIP3    H240317   4.278   2.820  16.690  1.7968  2.3766 -0.2878
 6276TIP3   OH240318   3.597   2.581   3.136  0.0676  0.3456  0.4477
 6276TIP3    H140319   3.575   2.494   3.168 -2.2647 -0.2993 -2.6695
 6276TIP3    H240320   3.640   2.566   3.052 -1.1632  2.1968 -0.5492
 6277TIP3   OH240321   3.241   1.593   3.708 -0.6512  0.4114 -0.5289
 6277TIP3    H140322   3.150   1.563   3.710 -0.3048 -0.6679  2.5850
 6277TIP3    H240323   3.293   1.513   3.703  0.1580  0.9980 -1.7640
 6278TIP3   OH240324   0.884   5.348  12.378 -0.2644 -0.6073 -0.7686
 6278TIP3    H140325   0.925   5.402  12.310 -0.0247 -0.9616 -0.9061
 6278TIP3    H240326   0.923   5.262  12.366 -0.6849 -0.8243 -0.5802
 6279TIP3   OH240327   0.655   0.671   5.864  0.4102  0.4467  0.3181
 6279TIP3    H140328   0.715   0.682   5.938  1.8420  0.6424 -0.8570
 6279TIP3    H240329   0.610   0.589   5.882  0.0280  0.9797  1.9001
 6280TIP3   OH240330   6.360   5.010   0.912  0.2159 -0.1498  0.3047
 6280TIP3    H140331   6.442   5.057   0.897 -0.1602  0.7517  0.9646
 6280TIP3    H240332   6.295   5.080   0.925 -0.2211 -0.8561  2.0252
 6281TIP3   OH240333   2.721   6.408   5.840  0.5482  0.1306  0.3936
 6281TIP3    H140334   2.722   6.460   5.920  1.5277  1.4975 -0.4907
 6281TIP3    H240335   2.629   6.389   5.824  0.2604  0.8486  1.1893
 6282TIP3   OH240336   2.110   5.838   0.971 -0.2843 -0.2322 -0.4479
 6282TIP3    H140337   2.075   5.905   1.030  0.0346 -0.7638  0.3634
 6282TIP3    H240338   2.105   5.877   0.884 -3.5785 -0.5593 -0.4689
 6283TIP3   OH240339   4.328   0.825  12.153  0.0686 -0.0214 -0.0942
 6283TIP3    H140340   4.338   0.760  12.083  1.4689 -0.4295  0.4769
 6283TIP3    H240341   4.234   0.823  12.173 -0.5771  1.0656 -2.8501
 6284TIP3   OH240342   4.708   2.108  14.966 -0.1283 -0.4436 -0.1726
 6284TIP3    H140343   4.778   2.070  15.018 -1.0039 -1.3566  0.3562
 6284TIP3    H240344   4.664   2.168  15.026  0.1147  0.0245 -0.4624
 6285TIP3   OH240345   2.297   0.329   1.108  0.7912 -0.0997 -0.5329
 6285TIP3    H140346   2.249   0.286   1.037  1.9680 -0.1875 -1.3039
 6285TIP3    H240347   2.240   0.400   1.137  0.0011 -0.4979 -1.1144
 6286TIP3   OH240348   2.473   3.583   1.493  0.3851  0.2833 -0.6987
 6286TIP3    H140349   2.457   3.532   1.573  0.8674  2.5954  0.8996
 6286TIP3    H240350   2.387   3.590   1.452  0.0242 -0.4086 -0.0896
 6287TIP3   OH240351   1.088   4.813  17.223 -0.0119  0.6331 -0.0405
 6287TIP3    H140352   1.109   4.858  17.305  0.9001  1.7766 -0.8793
 6287TIP3    H240353   1.166   4.761  17.204 -0.0922  0.6205 -0.3436
 6288TIP3   OH240354   4.757   0.321  13.157 -0.8322 -0.7612  0.0128
 6288TIP3    H140355   4.792   0.274  13.081  0.1621 -0.8069  0.4898
 6288TIP3    H240356   4.830   0.323  13.219 -1.1831  0.5737  0.3787
 6289TIP3   OH240357   1.711   4.328   1.715  0.4694 -0.0423 -0.3658
 6289TIP3    H140358   1.741   4.383   1.642  1.2554  0.0124 -0.0036
 6289TIP3    H240359   1.790   4.309   1.764 -0.3792  1.9394  1.8611
 6290TIP3   OH240360   5.941   5.374  11.948  0.7545 -0.0896  0.2672
 6290TIP3    H140361   5.882   5.340  12.015  3.1130 -0.0780  2.4671
 6290TIP3    H240362   5.940   5.307  11.879  0.6095 -1.6505  1.7363
 6291TIP3   OH240363   1.691   1.513   3.415 -0.6223 -0.1721 -0.5457
 6291TIP3    H140364   1.710   1.575   3.345 -3.7278 -0.0864 -1.3948
 6291TIP3    H240365   1.595   1.512   3.421 -0.4945 -1.5608  2.4630
 6292TIP3   OH240366   0.618   5.829  16.019  0.1156 -0.1021 -0.0544
 6292TIP3    H140367   0.582   5.847  16.106  1.1722  1.3403  0.0898
 6292TIP3    H240368   0.541   5.816  15.964 -0.6426  2.5052  0.3530
 6293TIP3   OH240369   1.346   1.580  16.019  0.0085  0.1697 -0.7025
 6293TIP3    H140370   1.253   1.571  16.000 -0.4686  0.1067  1.5442
 6293TIP3    H240371   1.367   1.506  16.076  1.1737  0.8355 -0.2383
 6294TIP3   OH240372   5.889   1.618   1.197 -0.0128  0.0740  0.0522
 6294TIP3    H140373   5.911   1.682   1.130 -2.0055  1.4867  0.7082
 6294TIP3    H240374   5.931   1.537   1.168  2.5921  1.6466 -0.7742
 6295TIP3   OH240375   6.050   4.466  13.145 -0.2809  0.1388 -0.1480
 6295TIP3    H140376   5.995   4.500  13.216 -1.9253  0.0271 -1.3178
 6295TIP3    H240377   5.987   4.429  13.082  1.2390 -1.3503 -0.8343
 6296TIP3   OH240378   1.857   5.018   2.064  0.5851 -0.4396  0.3215
 6296TIP3    H140379   1.952   5.023   2.053  0.5590 -0.1864  0.2128
 6296TIP3    H240380   1.831   5.103   2.100  0.0650  0.5381 -2.2433
 6297TIP3   OH240381   1.452   1.471  14.130 -0.6561  0.8734 -0.0803
 6297TIP3    H140382   1.373   1.525  14.135 -2.2209 -1.3369 -0.2517
 6297TIP3    H240383   1.419   1.381  14.122  1.8725  0.0623 -1.9096
 6298TIP3   OH240384   3.338   3.834  15.432  0.5768  0.3735 -0.3198
 6298TIP3    H140385   3.381   3.845  15.517 -1.5455  0.1928  0.8010
 6298TIP3    H240386   3.383   3.896  15.374  0.8545  1.7918  1.3810
 6299TIP3   OH240387   0.959   2.981  17.095 -0.3767  0.0582  0.2449
 6299TIP3    H140388   1.034   3.002  17.039 -0.6892 -0.1398 -0.2405
 6299TIP3    H240389   0.923   3.066  17.120  0.0852  0.1603  0.5849
 6300TIP3   OH240390   5.333   5.958   4.722 -0.1524 -0.0933  0.5085
 6300TIP3    H140391   5.356   5.968   4.814 -0.9569  0.3369  0.6679
 6300TIP3    H240392   5.351   6.043   4.682  0.1292 -0.2577  0.2814
 6301TIP3   OH240393   3.659   2.942  13.281 -0.4699  0.4470  0.2388
 6301TIP3    H140394   3.697   2.899  13.205  0.6383  1.4261  0.2270
 6301TIP3    H240395   3.594   3.003  13.245 -0.6003  0.2448  0.1326
 6302TIP3   OH240396   5.680   5.294   5.107 -0.3017  0.9415  0.2965
 6302TIP3    H140397   5.630   5.252   5.038 -0.9087  1.1423  0.6120
 6302TIP3    H240398   5.621   5.296   5.182  1.0874 -1.2757  1.5156
 6303TIP3   OH240399   2.617   6.260  13.660  0.1493  0.1010 -0.1997
 6303TIP3    H140400   2.615   6.176  13.614 -0.0039  0.4347 -0.8160
 6303TIP3    H240401   2.576   6.242  13.745 -2.0523  0.0745 -1.2191
 6304TIP3   OH240402   5.648   6.181  16.113  0.4515 -0.2164  0.2569
 6304TIP3    H140403   5.703   6.139  16.047  1.2013  1.0780  0.0400
 6304TIP3    H240404   5.690   6.158  16.196  1.8082  1.4047  0.0516
 6305TIP3   OH240405   6.009   3.582  16.064 -0.2795  0.1054 -0.2009
 6305TIP3    H140406   5.952   3.536  16.125 -1.0118  2.0080  0.5696
 6305TIP3    H240407   5.962   3.662  16.042  2.0062  1.6719  0.3647
 6306TIP3   OH240408   2.944   4.533   1.501  0.6504 -0.0256 -0.2232
 6306TIP3    H140409   2.995   4.601   1.457 -0.2492  0.3546 -0.6858
 6306TIP3    H240410   2.913   4.574   1.581 -1.3866  0.7094 -1.3492
 6307TIP3   OH240411   4.598   3.846   2.821 -0.8551 -0.3456  0.0581
 6307TIP3    H140412   4.612   3.757   2.853 -2.8510 -1.2430 -1.4686
 6307TIP3    H240413   4.546   3.835   2.742 -0.0530  2.1168 -0.8434
 6308TIP3   OH240414   2.364   0.971  16.036  0.0921  0.0013 -0.2073
 6308TIP3    H140415   2.344   1.028  15.962 -0.7716 -2.4440 -1.9278
 6308TIP3    H240416   2.331   1.018  16.112  2.6378  3.3724 -1.1156
 6309TIP3   OH240417   3.210   0.892   5.872  0.1811  0.5701  0.5331
 6309TIP3    H140418   3.288   0.916   5.921  0.8294 -1.0165  0.2856
 6309TIP3    H240419   3.188   0.972   5.823  0.7455  1.5002  1.7548
 6310TIP3   OH240420   2.233   4.827  13.662  0.2979  0.0845  0.3104
 6310TIP3    H140421   2.282   4.902  13.628  0.2694  0.9774  2.1488
 6310TIP3    H240422   2.300   4.768  13.696  0.2088  0.6511  1.5226
 6311TIP3   OH240423   4.659   5.751  14.107 -0.3369  0.0990  0.3591
 6311TIP3    H140424   4.732   5.747  14.169 -0.8989  0.4991  1.0614
 6311TIP3    H240425   4.661   5.667  14.062 -0.2120 -0.3847  1.2603
 6312TIP3   OH240426   3.464   4.624  15.011  0.4807 -0.0830 -1.1316
 6312TIP3    H140427   3.401   4.569  14.965 -1.2280 -0.0859  1.0865
 6312TIP3    H240428   3.547   4.577  15.006 -0.4713 -1.8027 -1.1426
 6313TIP3   OH240429   2.668   3.883   1.621  0.5749 -0.0177  0.3863
 6313TIP3    H140430   2.730   3.954   1.602 -1.3833  1.6111 -0.2113
 6313TIP3    H240431   2.654   3.889   1.715  2.0363 -1.0222  0.6815
 6314TIP3   OH240432   2.568   5.519  17.183  0.0677  0.2163  0.3009
 6314TIP3    H140433   2.508   5.582  17.143 -1.6342 -0.8666  1.0741
 6314TIP3    H240434   2.576   5.548  17.274  1.4433  0.8664 -0.0137
 6315TIP3   OH240435   1.116   1.270   4.048 -0.5667  0.2094  0.0788
 6315TIP3    H140436   1.084   1.243   4.134  0.9081  1.1803  0.9576
 6315TIP3    H240437   1.208   1.293   4.063 -0.8426  2.3500 -1.3255
 6316TIP3   OH240438   2.216   0.004  12.422  0.6009 -0.2468 -0.4935
 6316TIP3    H140439   2.135  -0.003  12.473  0.3218  1.3705 -0.6960
 6316TIP3    H240440   2.282   0.030  12.486  0.7236 -0.4542 -0.5357
 6317TIP3   OH240441   4.757   5.792  13.621  0.0103 -0.1642 -0.2250
 6317TIP3    H140442   4.823   5.838  13.674  0.2615  1.0056 -1.5152
 6317TIP3    H240443   4.794   5.705  13.608  1.2988  0.4631 -0.9006
 6318TIP3   OH240444   1.555   1.434   1.284  0.3619  0.4706 -0.2538
 6318TIP3    H140445   1.538   1.525   1.310  0.7850  0.2746  0.7196
 6318TIP3    H240446   1.590   1.441   1.195  0.9519  1.3036  0.0400
 6319TIP3   OH240447   5.946   2.483   2.025  0.3886 -0.4229  0.9390
 6319TIP3    H140448   5.953   2.564   2.076 -2.2679 -0.1540  0.9520
 6319TIP3    H240449   5.930   2.512   1.936 -0.1039 -0.9200  0.8605
 6320TIP3   OH240450   5.851   2.434   3.089 -0.5628 -0.0072  0.1784
 6320TIP3    H140451   5.780   2.403   3.034  1.1895 -1.7058 -1.2027
 6320TIP3    H240452   5.910   2.480   3.028 -0.3723  1.2345  1.2716
 6321TIP3   OH240453   1.209   2.078  14.529  0.2347 -0.3853  0.2459
 6321TIP3    H140454   1.171   2.055  14.445  1.5790 -3.0550  0.2930
 6321TIP3    H240455   1.154   2.035  14.594  0.9115 -0.8036  0.5520
 6322TIP3   OH240456   1.187   3.780   1.933  0.1656 -0.1116 -0.1893
 6322TIP3    H140457   1.199   3.854   1.993  0.2358 -0.7822  0.6262
 6322TIP3    H240458   1.266   3.779   1.879 -0.4336  1.2563 -1.1511
 6323TIP3   OH240459   6.038   4.048   4.913 -0.3643  0.0210  0.4961
 6323TIP3    H140460   6.062   4.010   4.997  0.5749 -1.0682 -0.2455
 6323TIP3    H240461   5.975   3.987   4.876  0.3072 -0.2449 -0.2143
 6324TIP3   OH240462   0.569   6.234   3.933 -0.6603  0.4793  0.1347
 6324TIP3    H140463   0.538   6.144   3.924  0.3090  0.3162 -2.1490
 6324TIP3    H240464   0.497   6.287   3.900 -1.0627  0.5234  1.0719
 6325TIP3   OH240465   4.619   2.842   1.839  0.6395 -0.1670 -0.2989
 6325TIP3    H140466   4.546   2.890   1.799  1.8929  0.0803 -2.3602
 6325TIP3    H240467   4.681   2.910   1.866  1.0509 -0.4751 -0.4572
 6326TIP3   OH240468   1.922   6.790  14.331 -0.2256  0.2950 -0.0779
 6326TIP3    H140469   1.953   6.719  14.275 -0.2250  0.0270  0.2610
 6326TIP3    H240470   1.849   6.829  14.283 -0.7477 -0.4547  0.0970
 6327TIP3   OH240471   2.313   2.556  10.675  0.5875 -0.0548  0.5713
 6327TIP3    H140472   2.368   2.602  10.611 -1.0616  0.7425 -0.2904
 6327TIP3    H240473   2.372   2.492  10.714  2.1777  0.8707 -0.2434
 6328TIP3   OH240474   2.919   0.283   0.896  0.0100  0.0225  0.5593
 6328TIP3    H140475   3.002   0.241   0.916  0.0358 -0.0987  0.1993
 6328TIP3    H240476   2.896   0.331   0.976  0.1811 -0.3446  0.8283
 6329TIP3   OH240477   3.923   1.327   3.686  0.5408  0.1078 -0.3329
 6329TIP3    H140478   3.929   1.422   3.697 -0.7495  0.0759  0.7268
 6329TIP3    H240479   3.854   1.300   3.747  0.9233 -1.5140 -0.5996
 6330TIP3   OH240480   0.732   0.660  14.434  0.1265  0.8144  0.4621
 6330TIP3    H140481   0.690   0.746  14.440 -0.9312  0.2583  1.3083
 6330TIP3    H240482   0.661   0.601  14.407  0.8006  0.1792  0.0637
 6331TIP3   OH240483   5.677   2.738  12.511 -0.3297 -0.0776  0.5713
 6331TIP3    H140484   5.705   2.694  12.431  0.0396  0.3765  0.4530
 6331TIP3    H240485   5.597   2.692  12.537 -1.7351  1.2491 -1.2944
 6332TIP3   OH240486   1.233   4.501   2.322  0.5532 -0.3524 -0.2860
 6332TIP3    H140487   1.313   4.543   2.292  1.0905 -0.4452  1.0007
 6332TIP3    H240488   1.258   4.454   2.402 -0.4847 -1.4527 -0.5886
 6333TIP3   OH240489   0.038   1.857   5.717 -0.1829  0.1459  0.0592
 6333TIP3    H140490   0.015   1.923   5.651 -4.8856 -1.6176 -0.2164
 6333TIP3    H240491   0.084   1.789   5.669  1.5125  1.5061 -0.2929
 6334TIP3   OH240492   2.820   3.548   5.507  0.4416 -0.4308 -0.0464
 6334TIP3    H140493   2.868   3.586   5.581 -0.4158  0.9602 -0.2015
 6334TIP3    H240494   2.823   3.614   5.439  0.7199 -1.4824 -1.0682
 6335TIP3   OH240495   5.477   3.115  17.013  0.0030  0.0928 -0.3406
 6335TIP3    H140496   5.437   3.103  16.927  0.3922  0.0782 -0.5206
 6335TIP3    H240497   5.405   3.102  17.075  0.0802 -1.7163 -0.5869
 6336TIP3   OH240498   4.426   0.639   0.648  0.5525  0.2301 -0.3201
 6336TIP3    H140499   4.383   0.671   0.570  1.5959  0.2146 -0.9146
 6336TIP3    H240500   4.397   0.698   0.718 -2.2098 -1.1626 -0.2544
 6337TIP3   OH240501   2.528   2.864   5.343  0.5117  0.0172  0.0807
 6337TIP3    H140502   2.485   2.945   5.370 -0.9121 -0.1541 -1.5777
 6337TIP3    H240503   2.615   2.868   5.382  0.7082  2.6647 -0.5951
 6338TIP3   OH240504   1.865   5.865   0.275  0.1983 -0.7285 -0.6683
 6338TIP3    H140505   1.817   5.930   0.223  1.0605 -0.0857 -0.6688
 6338TIP3    H240506   1.837   5.780   0.239 -2.2810 -0.4523  0.4940
 6339TIP3   OH240507   6.714   4.988   1.285  0.6852  0.7493  0.0941
 6339TIP3    H140508   6.784   4.951   1.339  0.1328  0.4224  0.6015
 6339TIP3    H240509   6.672   4.912   1.245  1.3096  1.0132 -1.0821
 6340TIP3   OH240510   0.622   0.017  11.162 -0.0713  0.1185  0.3648
 6340TIP3    H140511   0.686  -0.021  11.223  1.3742  0.6153 -0.7959
 6340TIP3    H240512   0.667   0.093  11.126 -2.1463  1.7380  1.1114
 6341TIP3   OH240513   3.782   0.602   1.127  0.2657 -0.9789 -0.2964
 6341TIP3    H140514   3.798   0.667   1.059  1.3311  0.2909  1.1528
 6341TIP3    H240515   3.860   0.547   1.126  0.6363 -0.4718  0.4329
 6342TIP3   OH240516   0.560   0.098   3.931 -0.5905 -0.4619  0.3253
 6342TIP3    H140517   0.492   0.157   3.898 -0.3429 -0.8454 -0.9063
 6342TIP3    H240518   0.517   0.049   4.002 -1.7138 -0.9598 -0.6759
 6343TIP3   OH240519   2.396   5.697   2.084 -0.0147 -0.1278  0.1087
 6343TIP3    H140520   2.432   5.768   2.137 -1.2447 -0.0243  0.8166
 6343TIP3    H240521   2.402   5.619   2.140  0.3434 -0.3773 -0.2703
 6344TIP3   OH240522   1.914   1.736  14.483  0.6815 -0.5647 -0.1680
 6344TIP3    H140523   1.828   1.760  14.447  1.2546  0.0800 -1.1382
 6344TIP3    H240524   1.958   1.820  14.496  1.7543 -0.9472 -1.1809
 6345TIP3   OH240525   2.972   0.079  15.238  0.5190 -0.1304 -0.3540
 6345TIP3    H140526   2.993  -0.007  15.202  0.6158 -0.0620 -0.4624
 6345TIP3    H240527   2.980   0.139  15.163  0.2794 -0.0535 -0.3181
 6346TIP3   OH240528   5.854   4.826   2.549 -0.5603 -0.3352  0.3323
 6346TIP3    H140529   5.945   4.805   2.529 -0.9951 -1.3272 -0.6417
 6346TIP3    H240530   5.827   4.888   2.481 -0.9071 -0.8149  0.0281
 6347TIP3   OH240531   3.276   3.429  12.139 -0.3102  0.1524  0.3748
 6347TIP3    H140532   3.359   3.474  12.122 -0.1980 -0.4567 -0.7959
 6347TIP3    H240533   3.277   3.354  12.079 -0.2024 -1.7870  2.7073
 6348TIP3   OH240534   6.536   6.121   0.756 -0.1288 -0.6183 -0.3964
 6348TIP3    H140535   6.610   6.133   0.696 -0.9952 -0.0369 -1.3519
 6348TIP3    H240536   6.524   6.026   0.760  0.5068 -0.7037 -0.4365
 6349TIP3   OH240537   1.840   1.914   0.515 -0.1456 -0.6186  0.0078
 6349TIP3    H140538   1.924   1.915   0.560 -0.0048 -0.9710 -0.2404
 6349TIP3    H240539   1.849   1.977   0.444 -1.0756  1.4989  1.7150
 6350TIP3   OH240540   5.923   1.197   0.044 -0.5137  0.3417  0.1428
 6350TIP3    H140541   5.931   1.217   0.138 -0.1731  1.6989 -0.1592
 6350TIP3    H240542   5.829   1.206   0.026 -0.8250 -1.6016  0.7007
 6351TIP3   OH240543   0.535   1.306  14.120  0.4857 -0.4466 -0.1229
 6351TIP3    H140544   0.544   1.240  14.189 -1.4638 -1.5288 -0.8873
 6351TIP3    H240545   0.443   1.331  14.122  1.0628  1.8560 -0.2559
 6352TIP3   OH240546   1.826   6.768  15.257 -0.0141  0.7306  0.0690
 6352TIP3    H140547   1.813   6.862  15.244 -0.4528  0.9571  1.8959
 6352TIP3    H240548   1.737   6.734  15.270  0.1009 -0.0197 -1.1075
 6353TIP3   OH240549   0.942   2.624  15.003 -0.2089  0.5257  0.0244
 6353TIP3    H140550   0.945   2.541  14.955  2.4198 -0.0609  1.1101
 6353TIP3    H240551   0.950   2.600  15.095 -0.2629  1.9383  0.4158
 6354TIP3   OH240552   6.042   4.193  17.050 -0.4510 -0.6992  0.0644
 6354TIP3    H140553   6.123   4.242  17.035  0.3613 -1.4799  1.8269
 6354TIP3    H240554   6.046   4.122  16.985  0.3292 -0.7896  0.2005
 6355TIP3   OH240555   3.055   3.348  12.769 -0.0163  0.4521  0.2851
 6355TIP3    H140556   3.114   3.306  12.707 -0.5983  2.0234 -1.3885
 6355TIP3    H240557   2.971   3.353  12.722 -0.4016  1.8924  1.0951
 6356TIP3   OH240558   0.032   6.229  16.867  0.1591  0.1419 -1.0928
 6356TIP3    H140559  -0.043   6.256  16.814 -0.1453  0.8370 -0.3211
 6356TIP3    H240560   0.075   6.311  16.890  0.3995 -0.1700 -0.4296
 6357TIP3   OH240561   1.832   2.217   1.915 -0.5201  0.9561  0.1345
 6357TIP3    H140562   1.824   2.249   2.005 -1.7206 -1.5494  0.9498
 6357TIP3    H240563   1.876   2.288   1.868 -0.0455  2.3647  2.6505
 6358TIP3   OH240564   6.029   1.446  10.706 -0.1804 -0.4122 -0.0438
 6358TIP3    H140565   6.030   1.512  10.637  0.6878  0.8412  1.1216
 6358TIP3    H240566   5.960   1.474  10.766  0.5604 -0.2421  0.7442
 6359TIP3   OH240567   6.679   2.340   1.462 -0.3047  0.1158  0.0848
 6359TIP3    H140568   6.741   2.284   1.415 -0.3517  1.4827 -1.6364
 6359TIP3    H240569   6.594   2.302   1.442 -0.3342  0.7655 -1.0601
 6360TIP3   OH240570   1.397   0.584  16.505 -0.1150  0.0123 -0.2722
 6360TIP3    H140571   1.309   0.613  16.483 -0.0655  1.4229  1.2679
 6360TIP3    H240572   1.453   0.660  16.488  0.7208 -0.6996 -0.7362
 6361TIP3   OH240573   3.405   1.037  16.723 -0.1271 -0.2696  0.6285
 6361TIP3    H140574   3.346   0.993  16.662  0.3432  0.0159 -0.0328
 6361TIP3    H240575   3.475   1.073  16.668 -0.0526  0.5673  1.2650
 6362TIP3   OH240576   1.320   6.772  13.284 -0.7595 -0.0377  0.6601
 6362TIP3    H140577   1.282   6.859  13.294  2.0182  1.2810  0.3466
 6362TIP3    H240578   1.389   6.768  13.351 -0.2812 -1.6630  0.1014
 6363TIP3   OH240579   0.415   3.543  11.471 -0.5785  0.0003 -0.1937
 6363TIP3    H140580   0.321   3.556  11.488 -0.5748  1.1532 -1.0348
 6363TIP3    H240581   0.425   3.560  11.378  0.8664  2.2907  0.3368
 6364TIP3   OH240582   1.591   5.463  15.980 -0.4163  0.1579 -0.5313
 6364TIP3    H140583   1.629   5.384  15.941 -1.1082 -0.7560  0.6472
 6364TIP3    H240584   1.667   5.519  15.999  0.0796 -0.2521 -1.2869
 6365TIP3   OH240585   0.610   3.505  13.286 -0.3045 -0.0416  0.4111
 6365TIP3    H140586   0.643   3.439  13.348 -0.7687 -0.5001  0.1784
 6365TIP3    H240587   0.609   3.587  13.336  1.8142  0.1222  0.2265
 6366TIP3   OH240588   4.479   3.041  12.504 -0.4504 -0.0746  0.0227
 6366TIP3    H140589   4.499   3.056  12.597  0.1356  0.9546 -0.2553
 6366TIP3    H240590   4.452   2.949  12.500  1.5520 -0.7396  0.8852
 6367TIP3   OH240591   6.603   6.644   4.823  0.0260 -0.8980 -0.0157
 6367TIP3    H140592   6.510   6.623   4.815  0.0573 -0.7891 -0.7461
 6367TIP3    H240593   6.640   6.620   4.737  0.8264 -1.7602  0.5609
 6368TIP3   OH240594   3.905   5.352  11.027 -0.0523  0.1268 -0.2165
 6368TIP3    H140595   3.874   5.433  11.069 -1.3405  0.4655 -1.7443
 6368TIP3    H240596   3.834   5.328  10.967  0.4448 -1.9955  0.0068
 6369TIP3   OH240597   0.768   3.936   4.410 -0.0136  0.0212  0.4167
 6369TIP3    H140598   0.840   3.983   4.451 -0.4310  1.4827 -0.5124
 6369TIP3    H240599   0.805   3.902   4.329 -0.0010 -0.3931  0.5933
 6370TIP3   OH240600   5.406   5.631   0.365  0.1172 -0.4890 -0.0716
 6370TIP3    H140601   5.403   5.726   0.355 -0.0356 -0.5305 -0.4157
 6370TIP3    H240602   5.486   5.615   0.416 -0.7700 -0.0603  1.5011
 6371TIP3   OH240603   5.912   4.610  13.322 -0.0469  0.4990 -0.0515
 6371TIP3    H140604   5.843   4.620  13.387  0.0742  1.6097 -0.0941
 6371TIP3    H240605   5.915   4.694  13.276  0.0782 -0.1626 -1.2873
 6372TIP3   OH240606   6.384   1.453   1.932 -0.3775 -0.1171  0.4811
 6372TIP3    H140607   6.355   1.435   2.022  0.3463  1.3233  1.0245
 6372TIP3    H240608   6.370   1.547   1.921  0.3269 -0.1329 -0.6250
 6373TIP3   OH240609   4.908   5.614  12.448  0.5461  0.0835 -1.0415
 6373TIP3    H140610   4.872   5.601  12.361 -0.5921 -0.0791 -0.5453
 6373TIP3    H240611   4.913   5.709  12.457 -1.3332  0.1317 -0.4639
 6374TIP3   OH240612   2.908   4.967  15.592  0.4542  0.2871  0.1144
 6374TIP3    H140613   2.876   5.032  15.655  0.7742  1.3946 -0.8394
 6374TIP3    H240614   2.870   4.884  15.621 -0.1970  0.9486  1.1857
 6375TIP3   OH240615   0.367   4.388  13.692  0.0490 -0.1187 -0.0927
 6375TIP3    H140616   0.436   4.323  13.705  1.5074  1.2029 -1.1060
 6375TIP3    H240617   0.329   4.366  13.607 -1.1548 -1.1672  0.7011
 6376TIP3   OH240618   3.356   5.733   6.227 -0.4881 -0.4300  0.0334
 6376TIP3    H140619   3.295   5.786   6.278  1.2223  2.1845 -0.5493
 6376TIP3    H240620   3.334   5.643   6.250 -2.8604  0.5266  1.7660
 6377TIP3   OH240621   4.365   2.758   2.222 -0.0897  0.0466 -0.4870
 6377TIP3    H140622   4.395   2.845   2.250  2.1731  0.2081 -3.1374
 6377TIP3    H240623   4.277   2.751   2.257 -0.0248  3.0953  0.4777
 6378TIP3   OH240624   2.255   6.799   3.646 -0.2816 -0.9230  0.2062
 6378TIP3    H140625   2.286   6.887   3.668 -0.0567 -1.4768  2.1226
 6378TIP3    H240626   2.267   6.793   3.551 -2.5735  2.0250 -0.3526
 6379TIP3   OH240627   1.094   2.742  12.738 -0.3379  0.4331 -0.1217
 6379TIP3    H140628   1.085   2.663  12.685 -1.8079 -0.5001  1.4847
 6379TIP3    H240629   1.159   2.720  12.804 -0.6266  0.6132  0.2266
 6380TIP3   OH240630   4.951   0.329  16.761 -0.1984 -0.2407 -0.2346
 6380TIP3    H140631   4.899   0.323  16.841 -0.1653  0.7047 -0.1243
 6380TIP3    H240632   5.041   0.312  16.789 -0.0637  0.9572  0.0990
 6381TIP3   OH240633   0.263   3.534  14.535  0.0389  0.3037  0.3481
 6381TIP3    H140634   0.203   3.491  14.597  0.0943  1.0080  0.9074
 6381TIP3    H240635   0.350   3.507  14.564  0.0166 -0.2988 -0.1400
 6382TIP3   OH240636   4.590   1.151  11.377  0.0831 -0.6583  0.4099
 6382TIP3    H140637   4.559   1.236  11.345 -1.1672 -2.1668 -2.6045
 6382TIP3    H240638   4.511   1.099  11.386  0.6556 -1.0402  3.9590
 6383TIP3   OH240639   0.706   3.956  13.941 -0.4363  0.3316 -0.7321
 6383TIP3    H140640   0.745   3.956  14.028 -1.1316  0.5846 -0.4096
 6383TIP3    H240641   0.663   3.871  13.934 -0.7044  0.4614 -0.6750
 6384TIP3   OH240642   0.655   3.884   3.618 -0.3631  0.0245  0.1364
 6384TIP3    H140643   0.718   3.896   3.547 -0.8910 -0.6828 -0.4516
 6384TIP3    H240644   0.662   3.964   3.670  0.7422  0.1259 -0.1426
 6385TIP3   OH240645   2.946   5.768   0.330  0.1709 -0.2060 -0.3412
 6385TIP3    H140646   2.851   5.765   0.321  0.2356 -0.1574 -1.0449
 6385TIP3    H240647   2.963   5.738   0.420 -0.2409 -4.1469 -1.5226
 6386TIP3   OH240648   2.900   1.147   3.791  0.6516 -0.2021  0.4615
 6386TIP3    H140649   2.980   1.153   3.844  0.7323  0.2535  0.2931
 6386TIP3    H240650   2.920   1.195   3.711  0.1804 -0.0104  0.4532
 6387TIP3   OH240651   6.399   6.197  15.986  0.1106  0.0938 -0.1683
 6387TIP3    H140652   6.481   6.197  15.936  0.8139  0.1302  0.9657
 6387TIP3    H240653   6.421   6.153  16.068 -0.8157  0.7632  0.4448
 6388TIP3   OH240654   5.429   5.896  11.243  1.0248 -0.1600 -0.2386
 6388TIP3    H140655   5.470   5.953  11.177 -1.9238  1.0701 -1.0616
 6388TIP3    H240656   5.437   5.944  11.325  2.1837 -0.4230 -0.1890
 6389TIP3   OH240657   5.267   5.281  11.071 -0.0713 -0.0761 -0.3325
 6389TIP3    H140658   5.185   5.317  11.036 -1.6975 -2.1708  1.1951
 6389TIP3    H240659   5.289   5.340  11.144 -0.4946  0.1858 -0.4120
 6390TIP3   OH240660   5.745   0.971   0.863  0.3965 -0.3451  0.0340
 6390TIP3    H140661   5.838   0.975   0.841  0.5625  0.0912  0.7985
 6390TIP3    H240662   5.713   1.059   0.844 -0.0274 -0.7013 -0.9357
 6391TIP3   OH240663   5.477   1.072  16.916  0.1276 -0.2904  0.0905
 6391TIP3    H140664   5.557   1.116  16.946  0.4499  0.0310 -1.2098
 6391TIP3    H240665   5.433   1.044  16.996  0.8119  0.8362  0.8672
 6392TIP3   OH240666   4.131   4.270   5.210  0.5378 -0.6304  0.3875
 6392TIP3    H140667   4.130   4.257   5.305 -0.6733 -3.1570  0.0347
 6392TIP3    H240668   4.043   4.250   5.181  1.5193 -2.2545 -1.5904
 6393TIP3   OH240669   4.086   2.788  10.198 -0.3242  0.2903 -0.0547
 6393TIP3    H140670   4.121   2.711  10.152 -0.3112 -0.5128  1.2909
 6393TIP3    H240671   4.012   2.755  10.248  0.8684  0.7589  2.0677
 6394TIP3   OH240672   1.966   4.229  16.806 -0.0670 -0.0150 -0.6076
 6394TIP3    H140673   1.953   4.226  16.901 -1.7642 -3.1269 -0.8770
 6394TIP3    H240674   2.055   4.197  16.792  0.8038  2.0456 -0.0111
 6395TIP3   OH240675   2.208   6.100   2.876 -0.3713 -0.1897  0.5676
 6395TIP3    H140676   2.194   6.169   2.940  0.4961  0.3663  0.1663
 6395TIP3    H240677   2.280   6.048   2.912 -1.4646 -1.2962  1.1989
 6396TIP3   OH240678   5.542   6.607   5.355 -0.0183 -1.0332 -0.7599
 6396TIP3    H140679   5.543   6.523   5.400 -1.7703  0.6660  2.7311
 6396TIP3    H240680   5.456   6.613   5.315  0.3642 -1.2141 -1.6034
 6397TIP3   OH240681   2.805   5.012   1.616  0.3971  0.1736 -0.0197
 6397TIP3    H140682   2.900   5.001   1.610  0.1749 -2.0230  0.1314
 6397TIP3    H240683   2.786   5.089   1.562  2.1694  0.1744 -0.6731
 6398TIP3   OH240684   4.605   6.293  13.400 -0.2433  0.0570 -0.4670
 6398TIP3    H140685   4.695   6.271  13.425 -0.9280 -1.0145  1.1803
 6398TIP3    H240686   4.578   6.361  13.463 -0.8958 -0.3095 -0.3400
 6399TIP3   OH240687   3.527   6.099  11.690 -0.0968 -0.4015  0.0105
 6399TIP3    H140688   3.506   6.184  11.651  0.2551  0.4244  1.5822
 6399TIP3    H240689   3.491   6.104  11.779  1.8256 -1.0725  0.8479
 6400TIP3   OH240690   3.354   5.371  14.611  0.6412  0.8406  0.3576
 6400TIP3    H140691   3.313   5.326  14.685 -0.4405  2.4586  0.7682
 6400TIP3    H240692   3.447   5.355  14.622  0.2422 -1.9432  0.0550
 6401TIP3   OH240693   2.314   3.394   4.596 -0.3356 -0.1182 -0.2937
 6401TIP3    H140694   2.280   3.471   4.642 -0.0738 -0.4752  0.4998
 6401TIP3    H240695   2.381   3.428   4.537  0.4104  0.1665  0.6997
 6402TIP3   OH240696   6.761   3.937   1.953  0.4024 -0.2286 -0.1929
 6402TIP3    H140697   6.799   3.986   1.881  1.5917 -0.1552  0.4742
 6402TIP3    H240698   6.786   3.846   1.936  0.3934 -0.2562 -0.0573
 6403TIP3   OH240699   3.697   3.123  14.337 -0.2426 -0.4245 -0.2808
 6403TIP3    H140700   3.687   3.084  14.424  0.4212  0.8593  0.3896
 6403TIP3    H240701   3.631   3.080  14.283 -1.3668 -0.4796  1.1200
 6404TIP3   OH240702   1.846   2.902   4.286 -0.1036  0.3886  0.2174
 6404TIP3    H140703   1.884   2.819   4.313  0.4812  0.6356  0.1487
 6404TIP3    H240704   1.832   2.892   4.191  2.9324  1.5283 -0.3959
 6405TIP3   OH240705   6.745   5.143  14.513  0.2206  0.0110  0.5417
 6405TIP3    H140706   6.723   5.125  14.421 -2.5986 -2.2695  1.5901
 6405TIP3    H240707   6.819   5.086  14.532 -0.5344 -1.0861  0.2409
 6406TIP3   OH240708   5.972   3.214  13.244 -0.3548  0.3955 -0.1859
 6406TIP3    H140709   6.053   3.259  13.269 -0.0030 -1.0469  1.3988
 6406TIP3    H240710   5.913   3.284  13.216  1.1318  1.5473 -0.4686
 6407TIP3   OH240711   3.982   6.795   2.395 -0.2873 -0.4099  0.0275
 6407TIP3    H140712   3.893   6.830   2.400  0.2808  1.4665 -2.0654
 6407TIP3    H240713   3.971   6.700   2.396 -2.2084 -0.2049  0.9630
 6408TIP3   OH240714   2.502   2.925   5.811 -0.7366  0.6670  0.2234
 6408TIP3    H140715   2.440   2.999   5.814 -1.3379  0.1725  0.0924
 6408TIP3    H240716   2.497   2.887   5.899 -1.6690 -0.2252 -0.2103
 6409TIP3   OH240717   1.292   2.023  10.850  1.1634  0.1918  0.3512
 6409TIP3    H140718   1.220   2.039  10.789 -0.2013 -0.1166  1.8328
 6409TIP3    H240719   1.303   2.106  10.896  2.0776  0.3758 -0.1932
 6410TIP3   OH240720   2.238   1.989   2.854  0.1949 -0.3451 -0.0803
 6410TIP3    H140721   2.247   1.907   2.903 -2.3943  0.6051  2.0817
 6410TIP3    H240722   2.309   2.045   2.887 -1.0453  0.0017  2.0024
 6411TIP3   OH240723   3.830   2.005  12.627  0.1628  0.4612 -0.1203
 6411TIP3    H140724   3.801   1.916  12.650  0.0182  0.8076  1.0533
 6411TIP3    H240725   3.767   2.062  12.669  0.7870  1.1494 -0.1184
 6412TIP3   OH240726   0.407   1.410  13.054  0.1041 -0.5042 -0.1788
 6412TIP3    H140727   0.396   1.391  12.961 -0.1693  1.2560 -0.5043
 6412TIP3    H240728   0.331   1.464  13.077 -0.2455 -1.5647  1.2592
 6413TIP3   OH240729   5.883   0.940  13.686 -0.1288  0.9546  0.0383
 6413TIP3    H140730   5.919   0.895  13.763 -3.5390 -0.0965  1.1079
 6413TIP3    H240731   5.810   0.884  13.658 -1.3687  3.3138 -1.5944
 6414TIP3   OH240732   1.895   2.980  13.335  0.3428 -0.2798  0.8823
 6414TIP3    H140733   1.930   3.050  13.389  0.2784 -0.8468  1.6691
 6414TIP3    H240734   1.942   2.988  13.252  0.0804  0.8978  0.8489
 6415TIP3   OH240735   6.060   3.898   2.857 -0.0995 -0.1762  0.2548
 6415TIP3    H140736   6.087   3.979   2.899 -2.1751 -0.4111  2.0912
 6415TIP3    H240737   5.980   3.921   2.809  0.2761 -0.7326 -0.6500
 6416TIP3   OH240738   4.999   2.089   3.623 -0.1924 -0.3851  0.0165
 6416TIP3    H140739   4.944   2.144   3.679 -0.3265 -2.0468  1.5572
 6416TIP3    H240740   4.936   2.037   3.572 -0.0532 -0.5116 -0.0242
 6417TIP3   OH240741   5.593   6.292  11.447  0.3785 -0.3878  0.6438
 6417TIP3    H140742   5.584   6.351  11.372 -2.1025  0.4366  1.5575
 6417TIP3    H240743   5.538   6.331  11.515 -0.3060 -3.0832  1.6801
 6418TIP3   OH240744   5.329   4.384  12.403  0.4626  0.5291  0.2528
 6418TIP3    H140745   5.316   4.462  12.455 -2.7297 -0.3597  0.9208
 6418TIP3    H240746   5.291   4.405  12.317 -0.7666 -0.3642  0.5518
 6419TIP3   OH240747   5.592   5.845   0.123  0.3048  0.2908  0.3086
 6419TIP3    H140748   5.561   5.932   0.150  1.9616  0.2907  2.2640
 6419TIP3    H240749   5.684   5.859   0.099  0.3031 -0.7443 -0.3007
 6420TIP3   OH240750   1.113   2.138   2.131 -0.2585  0.2759 -0.8581
 6420TIP3    H140751   1.182   2.148   2.064  0.2033 -1.4581 -0.6735
 6420TIP3    H240752   1.161   2.129   2.213 -0.6245 -1.9474 -0.8443
 6421TIP3   OH240753   3.920   3.596  14.185  0.2034  0.1154  0.0988
 6421TIP3    H140754   4.011   3.568  14.181 -0.1156 -0.9861  0.3875
 6421TIP3    H240755   3.870   3.516  14.168 -0.7079  0.7488 -0.2377
 6422TIP3   OH240756   2.744   6.520   4.781 -0.6686 -0.3230 -0.1343
 6422TIP3    H140757   2.776   6.583   4.845 -1.5683 -0.5678  0.5789
 6422TIP3    H240758   2.768   6.557   4.696  3.5754 -1.6397  0.3821
 6423TIP3   OH240759   1.865   0.519  10.689  0.6407 -0.3801  0.6317
 6423TIP3    H140760   1.942   0.528  10.634 -0.5467 -1.7401 -1.2916
 6423TIP3    H240761   1.832   0.609  10.698  1.7631  0.0555  0.4959
 6424TIP3   OH240762   5.908   4.873   4.453 -0.4439 -0.0394  0.6640
 6424TIP3    H140763   5.839   4.833   4.506  0.0210 -1.1781  0.4196
 6424TIP3    H240764   5.914   4.818   4.376  0.9479 -0.1242  0.8220
 6425TIP3   OH240765   5.180   0.637   4.463 -0.1358  0.2959  0.4623
 6425TIP3    H140766   5.097   0.604   4.429 -1.4048  1.4634  2.3437
 6425TIP3    H240767   5.231   0.659   4.385  0.0849 -4.3444 -0.8356
 6426TIP3   OH240768   2.300   1.434   3.644 -0.1777  0.0175  0.0707
 6426TIP3    H140769   2.294   1.527   3.623  0.0009  0.5695  2.2698
 6426TIP3    H240770   2.273   1.429   3.736 -0.4376 -2.1432 -0.0942
 6427TIP3   OH240771   0.715   4.223   2.950  0.3053  0.3215  0.2315
 6427TIP3    H140772   0.726   4.303   2.899  0.7081 -0.2382 -0.5728
 6427TIP3    H240773   0.662   4.249   3.025  1.7868  1.6967  0.8220
 6428TIP3   OH240774   6.202   2.012  14.250  0.2312 -0.4433  0.0474
 6428TIP3    H140775   6.227   1.987  14.339  0.7687  0.3104  0.1141
 6428TIP3    H240776   6.187   1.929  14.205  1.4089 -0.8716  0.4261
 6429TIP3   OH240777   2.498   0.690   4.874 -0.1234  0.1768 -0.2579
 6429TIP3    H140778   2.405   0.671   4.858 -0.4993  0.8359  1.0731
 6429TIP3    H240779   2.526   0.620   4.933 -0.5737  1.6820  1.7735
 6430TIP3   OH240780   0.580   1.625   2.111  0.1034 -0.1549  0.2904
 6430TIP3    H140781   0.495   1.665   2.129 -0.8345 -1.7758 -0.4343
 6430TIP3    H240782   0.630   1.695   2.069 -0.8659  0.8252  0.7316
 6431TIP3   OH240783   2.099   1.898  15.879 -0.3982  0.4314 -0.2334
 6431TIP3    H140784   2.195   1.895  15.870 -0.4748  0.4663 -1.1469
 6431TIP3    H240785   2.073   1.807  15.884 -0.1361  0.4645  2.2413
 6432TIP3   OH240786   5.229   1.646  15.776  0.0779  0.9122  0.1450
 6432TIP3    H140787   5.266   1.687  15.698 -4.2113  2.2063 -1.3810
 6432TIP3    H240788   5.212   1.555  15.749  0.9051  0.6761  0.4121
 6433TIP3   OH240789   1.948   2.648  16.187  0.1755 -0.1054  0.4445
 6433TIP3    H140790   1.940   2.741  16.167 -0.5811  0.1284  1.7750
 6433TIP3    H240791   2.034   2.624  16.153  2.2930  2.1109  3.9088
 6434TIP3   OH240792   0.425   3.771  11.663 -0.4315 -0.2912 -0.7108
 6434TIP3    H140793   0.444   3.684  11.628 -0.0310 -0.2819 -0.5174
 6434TIP3    H240794   0.398   3.754  11.754 -0.0749 -0.1846 -0.5876
 6435TIP3   OH240795   1.148   2.485   4.606 -0.0738  0.5176 -0.0045
 6435TIP3    H140796   1.143   2.395   4.571 -0.2720  1.0500 -1.3716
 6435TIP3    H240797   1.239   2.509   4.595 -0.2308  0.8547 -0.6103
 6436TIP3   OH240798   6.300   5.908  13.601  0.6671  0.0205  0.4036
 6436TIP3    H140799   6.320   5.818  13.627  0.4428 -0.2140 -0.2109
 6436TIP3    H240800   6.267   5.900  13.511 -0.0793  0.6345  0.6154
 6437TIP3   OH240801   6.724   5.084  16.633  0.3307  0.1471 -0.2339
 6437TIP3    H140802   6.651   5.025  16.648  1.1200 -0.0103  3.2790
 6437TIP3    H240803   6.802   5.029  16.638  0.8154  0.5786 -2.4120
 6438TIP3   OH240804   4.731   0.836  12.113 -0.1066 -0.0487 -0.0654
 6438TIP3    H140805   4.748   0.880  12.196  0.6720 -0.8775  0.2206
 6438TIP3    H240806   4.746   0.904  12.047 -1.1320  0.7201  0.4861
 6439TIP3   OH240807   3.837   4.448   3.782 -0.2227  0.2201  0.6804
 6439TIP3    H140808   3.917   4.419   3.826 -0.2563 -0.3422  0.3762
 6439TIP3    H240809   3.866   4.508   3.714 -0.0021 -0.4655  0.1605
 6440TIP3   OH240810   3.197   4.419   4.994  0.4473 -0.3431  0.4475
 6440TIP3    H140811   3.224   4.438   4.904  0.0994  1.9895  0.8023
 6440TIP3    H240812   3.267   4.454   5.048 -0.2888  0.0422  1.1553
 6441TIP3   OH240813   6.524   2.761   0.202 -0.1732 -0.4021  0.2878
 6441TIP3    H140814   6.535   2.729   0.291 -2.1243  1.4591  1.2513
 6441TIP3    H240815   6.568   2.847   0.201 -0.5368 -0.2157 -0.4046
 6442TIP3   OH240816   4.299   6.160   2.531  0.3616 -0.4487  0.2765
 6442TIP3    H140817   4.343   6.078   2.509 -0.3804 -0.7300 -0.1504
 6442TIP3    H240818   4.332   6.224   2.468  1.1311 -0.3512  0.7669
 6443TIP3   OH240819   6.510   0.183  11.938 -0.2019 -0.1152  0.6458
 6443TIP3    H140820   6.426   0.136  11.934 -1.0025  1.4304 -2.2145
 6443TIP3    H240821   6.576   0.116  11.920 -0.8433 -1.2533  2.4331
 6444TIP3   OH240822   2.240   4.234   3.757  0.7890 -0.2036  0.1065
 6444TIP3    H140823   2.155   4.194   3.737 -0.1568  1.1653  1.2690
 6444TIP3    H240824   2.292   4.163   3.795  0.2138 -1.0806 -0.7094
 6445TIP3   OH240825   3.515   5.362  14.068  0.5722  0.0590 -0.0357
 6445TIP3    H140826   3.585   5.416  14.032  1.4465 -0.6381  0.6086
 6445TIP3    H240827   3.548   5.273  14.063  0.2676 -0.1440  1.5095
 6446TIP3   OH240828   4.135   6.080   2.928  0.1974  0.0107  0.2215
 6446TIP3    H140829   4.166   5.989   2.922 -0.2531 -0.2907  2.2550
 6446TIP3    H240830   4.197   6.123   2.986 -0.2346  0.7362  0.1534
 6447TIP3   OH240831   2.919   2.551   0.504 -0.2750 -0.5463  0.4199
 6447TIP3    H140832   2.879   2.511   0.427 -0.5645  1.7084 -0.6239
 6447TIP3    H240833   2.854   2.613   0.536  0.4159 -0.4325  1.6434
 6448TIP3   OH240834   4.569   4.343  12.409 -0.6826  0.3378  0.0594
 6448TIP3    H140835   4.638   4.409  12.404 -0.8077  0.4281 -0.5225
 6448TIP3    H240836   4.606   4.267  12.364 -0.9079  0.3361 -0.1185
 6449TIP3   OH240837   4.291   1.895   1.629 -0.2541  0.8434  0.4217
 6449TIP3    H140838   4.238   1.879   1.706 -1.8003  1.3188 -0.5273
 6449TIP3    H240839   4.300   1.990   1.624 -0.4116  0.8322 -0.1490
 6450TIP3   OH240840   5.484   2.771  15.070  0.2446 -0.1727  0.2727
 6450TIP3    H140841   5.579   2.760  15.074  0.0597 -1.7359  0.7221
 6450TIP3    H240842   5.459   2.732  14.986 -0.0157  0.1743  0.1858
 6451TIP3   OH240843   6.081   4.972   4.056  0.0475  0.5085  0.1069
 6451TIP3    H140844   6.102   5.062   4.029 -1.3931  1.2472  1.3543
 6451TIP3    H240845   6.086   4.974   4.152  1.9103 -1.2529  0.0877
 6452TIP3   OH240846   0.416   1.275   1.788 -0.1029  0.4577  0.4211
 6452TIP3    H140847   0.499   1.261   1.743  0.0921 -1.9056  1.4579
 6452TIP3    H240848   0.349   1.260   1.721  0.2497  2.3500 -0.4123
 6453TIP3   OH240849   5.673   3.902  10.712 -0.1774 -0.9554 -0.8967
 6453TIP3    H140850   5.715   3.816  10.716 -1.1790 -1.4725 -1.2369
 6453TIP3    H240851   5.743   3.961  10.683  0.5947 -1.5948 -0.3713
 6454TIP3   OH240852   1.129   3.392  15.633  0.3450  0.3428  0.3337
 6454TIP3    H140853   1.046   3.429  15.662 -0.5631 -1.2222 -0.1775
 6454TIP3    H240854   1.155   3.444  15.557  0.4771  1.6289  1.2515
 6455TIP3   OH240855   5.837   0.084   3.264 -0.0642  0.2392  0.0336
 6455TIP3    H140856   5.752   0.043   3.277 -0.1382  0.2322 -0.4974
 6455TIP3    H240857   5.850   0.137   3.343 -1.2153  1.3884 -0.5428
 6456TIP3   OH240858   2.368   2.532  11.984 -0.3023  0.4499 -0.7086
 6456TIP3    H140859   2.410   2.456  11.943  0.5072  0.6130 -0.1940
 6456TIP3    H240860   2.278   2.530  11.951 -0.1464 -0.4338 -1.1076
 6457TIP3   OH240861   1.242   6.242  17.247  0.3438 -0.2158  0.2623
 6457TIP3    H140862   1.290   6.325  17.248  0.9289 -0.5535  2.1630
 6457TIP3    H240863   1.153   6.266  17.222  0.8582  0.7876 -0.6120
 6458TIP3   OH240864   0.666   2.166  12.207 -0.0852  0.4382  0.0805
 6458TIP3    H140865   0.747   2.139  12.164  0.3592 -0.2891  1.3372
 6458TIP3    H240866   0.659   2.259  12.188 -0.2399  0.0066 -2.0824
 6459TIP3   OH240867   4.208   6.447  12.456 -0.5865 -0.3646  0.1337
 6459TIP3    H140868   4.222   6.503  12.380 -1.1005  0.2827  0.5108
 6459TIP3    H240869   4.154   6.499  12.516 -0.9264 -1.1861  0.5668
 6460TIP3   OH240870   5.823   3.475   5.160  0.2828  0.4778 -0.6119
 6460TIP3    H140871   5.826   3.571   5.159  1.5915  0.4953  1.3437
 6460TIP3    H240872   5.864   3.451   5.243  1.0377 -1.8214 -1.6115
 6461TIP3   OH240873   6.179   5.772   3.330 -0.1428 -0.0055  0.1852
 6461TIP3    H140874   6.144   5.851   3.372 -0.9725  0.3967 -1.2228
 6461TIP3    H240875   6.138   5.772   3.243  0.8190 -1.3231 -0.2673
 6462TIP3   OH240876   3.918   5.203  11.676  0.1627 -0.0672  0.8087
 6462TIP3    H140877   3.932   5.138  11.607  0.9736 -0.6312  1.4916
 6462TIP3    H240878   4.006   5.224  11.707 -0.1220  1.0427  0.8924
 6463TIP3   OH240879   3.777   2.623   4.793  0.1758 -0.2348  0.0261
 6463TIP3    H140880   3.773   2.528   4.780  1.4156 -0.0995 -1.3975
 6463TIP3    H240881   3.701   2.657   4.746  0.2687 -0.4521 -0.2852
 6464TIP3   OH240882   2.684   6.131   5.377  0.3210 -0.5184 -0.5043
 6464TIP3    H140883   2.667   6.209   5.326 -2.0779 -0.3242  0.5119
 6464TIP3    H240884   2.740   6.161   5.449 -0.1219  0.1690 -0.4382
 6465TIP3   OH240885   3.334   6.421   3.030  0.2898  0.0775 -0.2232
 6465TIP3    H140886   3.428   6.429   3.018  0.2088  3.1873  0.6178
 6465TIP3    H240887   3.301   6.510   3.015 -2.4920 -0.9337 -0.3832
 6466TIP3   OH240888   1.593   2.327   0.514 -0.2344  0.1509 -0.0911
 6466TIP3    H140889   1.662   2.324   0.448 -1.3154  0.2030 -1.2476
 6466TIP3    H240890   1.614   2.256   0.574  0.1523 -0.6429 -1.1404
 6467TIP3   OH240891   5.076   5.919   4.631 -0.0211  0.4380 -0.0809
 6467TIP3    H140892   5.156   5.921   4.684  0.1239 -1.2692 -0.2322
 6467TIP3    H240893   5.107   5.905   4.542 -0.5783 -1.9930  0.0825
 6468TIP3   OH240894   3.074   0.992   2.663 -0.0463 -0.4296  0.5054
 6468TIP3    H140895   3.162   0.960   2.681 -0.2894 -1.0815  0.5264
 6468TIP3    H240896   3.022   0.968   2.740 -0.6934 -1.7662 -0.3358
 6469TIP3   OH240897   3.403   6.332   6.466  0.4768 -0.0786  0.0433
 6469TIP3    H140898   3.391   6.427   6.456 -1.4259 -0.4657 -1.6955
 6469TIP3    H240899   3.317   6.299   6.491  0.8111 -1.4812 -0.5988
 6470TIP3   OH240900   1.467   3.815   3.869 -0.4569 -0.2534  0.2824
 6470TIP3    H140901   1.490   3.904   3.897 -2.9328  0.4396  0.2029
 6470TIP3    H240902   1.454   3.767   3.951  2.6637 -1.0923  0.3635
 6471TIP3   OH240903   2.285   4.906  11.349 -0.8316  0.4636 -0.2598
 6471TIP3    H140904   2.228   4.841  11.390  0.1902 -1.1505 -1.3534
 6471TIP3    H240905   2.318   4.863  11.270  0.5196  2.0079 -0.5645
 6472TIP3   OH240906   1.954   1.734  12.314  0.6685 -0.2732  0.6651
 6472TIP3    H140907   2.028   1.774  12.268  1.4694  0.8244  2.7995
 6472TIP3    H240908   1.959   1.641  12.292  1.2658  0.1568 -1.0937
 6473TIP3   OH240909   2.850   1.142   4.665  0.2546  0.5626 -0.0542
 6473TIP3    H140910   2.827   1.053   4.688 -0.0392  0.6384 -0.0605
 6473TIP3    H240911   2.940   1.153   4.697  0.4507  0.1231 -0.4479
 6474TIP3   OH240912   4.751   0.458  10.974 -0.6364 -0.0711 -0.5125
 6474TIP3    H140913   4.725   0.513  10.900  0.1150 -0.3771 -1.0070
 6474TIP3    H240914   4.703   0.376  10.961  0.7778 -0.7382 -1.5758
 6475TIP3   OH240915   0.887   2.007   2.258 -0.2617  0.0782  0.1920
 6475TIP3    H140916   0.862   2.058   2.335 -0.1885  0.5761 -0.1061
 6475TIP3    H240917   0.806   2.002   2.206 -0.3083 -0.2470  0.2940
 6476TIP3   OH240918   5.397   6.508   2.449  0.9674 -0.3583 -0.0506
 6476TIP3    H140919   5.426   6.456   2.375  2.7018  1.3820 -0.6418
 6476TIP3    H240920   5.328   6.456   2.490  0.4770 -1.6716 -2.4504
 6477TIP3   OH240921   5.378   5.110  15.974  0.0823 -0.3142 -0.0780
 6477TIP3    H140922   5.354   5.025  15.938 -0.0333 -0.4870  0.4028
 6477TIP3    H240923   5.303   5.135  16.028  0.0212  0.1940 -0.3853
 6478TIP3   OH240924   0.519   3.546  12.335  0.1801  0.2089  1.0136
 6478TIP3    H140925   0.517   3.625  12.281 -2.4364 -0.0600  0.6517
 6478TIP3    H240926   0.508   3.474  12.273  3.1140 -0.5265  1.2795
 6479TIP3   OH240927   4.696   1.947  16.054  0.6074 -0.3976 -0.2792
 6479TIP3    H140928   4.778   1.927  16.098  0.2829 -1.2455 -0.0562
 6479TIP3    H240929   4.722   1.990  15.972  1.2402  0.2322  0.2439
 6480TIP3   OH240930   5.929   1.426  13.167  0.0540 -0.6457  0.1594
 6480TIP3    H140931   5.930   1.347  13.222 -1.2232 -1.4804 -1.0035
 6480TIP3    H240932   5.837   1.437  13.142  0.3759  0.6762 -0.4738
 6481TIP3   OH240933   1.390   0.793   4.956 -0.5978 -0.1767  0.4833
 6481TIP3    H140934   1.374   0.701   4.978  0.5826 -0.2680  1.0289
 6481TIP3    H240935   1.425   0.790   4.867  0.1904 -0.3390  0.7903
 6482TIP3   OH240936   2.452   2.098  12.238 -0.1275 -0.5803  0.1749
 6482TIP3    H140937   2.453   2.178  12.291 -0.6680 -0.4786  0.0431
 6482TIP3    H240938   2.544   2.079  12.221  0.0254 -0.2700  0.6335
 6483TIP3   OH240939   5.752   3.258   2.978  0.3468 -0.0282  0.3572
 6483TIP3    H140940   5.835   3.251   2.930 -0.3155 -2.7088 -0.4595
 6483TIP3    H240941   5.705   3.329   2.933  0.7031 -0.9542 -1.5289
 6484TIP3   OH240942   2.575   1.540   1.061  0.0610  0.4618  0.4949
 6484TIP3    H140943   2.636   1.583   1.121  0.2786  0.0451  0.5740
 6484TIP3    H240944   2.489   1.574   1.085  0.1744  0.4621  0.8953
 6485TIP3   OH240945   4.210   1.375   5.644 -0.2273  0.1444 -0.3134
 6485TIP3    H140946   4.149   1.317   5.691 -0.9030  1.2999  0.2470
 6485TIP3    H240947   4.246   1.320   5.575  1.1916 -1.7827  1.8784
 6486TIP3   OH240948   4.693   1.612  16.040 -0.1637 -0.3133 -0.4443
 6486TIP3    H140949   4.740   1.533  16.067  0.4470  0.6740  1.4799
 6486TIP3    H240950   4.604   1.582  16.022  0.3023 -1.5951 -0.6444
 6487TIP3   OH240951   4.202   1.470   2.587 -0.2774  0.2856 -0.3989
 6487TIP3    H140952   4.107   1.458   2.584 -0.0834 -1.4804  0.1814
 6487TIP3    H240953   4.225   1.462   2.680  0.2601  2.3702 -0.3140
 6488TIP3   OH240954   4.722   0.734  13.523  0.6387  0.1619 -0.3543
 6488TIP3    H140955   4.630   0.760  13.532  0.1566 -2.2519  2.9299
 6488TIP3    H240956   4.718   0.645  13.487  1.6643  0.0277 -0.1561
 6489TIP3   OH240957   3.466   1.823  11.475 -0.1221 -0.0428 -0.1183
 6489TIP3    H140958   3.546   1.810  11.527 -0.9220 -2.5460  0.5685
 6489TIP3    H240959   3.487   1.786  11.389  0.3002  1.6462 -0.7532
 6490TIP3   OH240960   3.728   0.764  17.265 -0.3056  0.3051 -0.3494
 6490TIP3    H140961   3.781   0.843  17.276 -0.7032  0.5643 -0.2677
 6490TIP3    H240962   3.734   0.745  17.171  0.5942 -0.1387 -0.2033
 6491TIP3   OH240963   4.915   5.209   3.206 -0.2087  0.5749 -0.1974
 6491TIP3    H140964   4.937   5.145   3.138  0.5582  0.4391  0.1756
 6491TIP3    H240965   4.999   5.237   3.240 -0.5202  2.2138 -0.7500
 6492TIP3   OH240966   4.593   2.688   3.570  0.5114 -1.0742 -0.1160
 6492TIP3    H140967   4.643   2.640   3.505  0.7307 -1.0538  0.0374
 6492TIP3    H240968   4.536   2.622   3.611  0.1818 -1.0351 -0.5123
 6493TIP3   OH240969   6.476   0.747   4.457 -0.0253  0.1764  0.2199
 6493TIP3    H140970   6.526   0.674   4.494  0.5285  1.3784  1.9068
 6493TIP3    H240971   6.529   0.778   4.384  1.0992  0.6599  1.2369
 6494TIP3   OH240972   4.831   1.000  12.341  0.4537  0.4511  0.2819
 6494TIP3    H140973   4.899   1.066  12.331  1.7066 -0.6964  1.1210
 6494TIP3    H240974   4.840   0.968  12.430  0.7332 -1.7954 -0.5215
 6495TIP3   OH240975   6.653   1.414   1.877 -0.1829 -0.7483  0.0553
 6495TIP3    H140976   6.653   1.340   1.816  0.6310 -0.6561 -0.0671
 6495TIP3    H240977   6.561   1.434   1.891 -0.3806  0.0949 -2.2056
 6496TIP3   OH240978   3.288   3.023  12.722 -0.1665 -0.2113  0.0180
 6496TIP3    H140979   3.354   3.048  12.787 -2.4055  0.1914  2.2198
 6496TIP3    H240980   3.266   3.105  12.678 -0.9135  0.0920  0.9417
 6497TIP3   OH240981   5.105   5.008  14.329 -0.0464 -0.3463  0.1668
 6497TIP3    H140982   5.012   5.012  14.351  0.0674 -0.7484  0.7460
 6497TIP3    H240983   5.109   5.022  14.235 -0.6385  0.3371  0.2452
 6498TIP3   OH240984   4.898   0.872  13.359 -0.1685  0.3984  0.2828
 6498TIP3    H140985   4.915   0.947  13.416  1.6998 -1.4597  2.3086
 6498TIP3    H240986   4.832   0.820  13.406 -0.8555  0.3645 -0.7058
 6499TIP3   OH240987   6.308   3.738   2.226  0.0846  0.1582 -0.2116
 6499TIP3    H140988   6.387   3.723   2.279  1.2704 -0.7697 -2.1962
 6499TIP3    H240989   6.341   3.751   2.137 -1.9883 -0.0414 -1.0277
 6500TIP3   OH240990   6.309   2.496   3.908 -0.0246 -0.1243 -0.4563
 6500TIP3    H140991   6.240   2.500   3.975 -1.5867 -1.7751 -1.9194
 6500TIP3    H240992   6.346   2.408   3.917 -0.0882 -0.2723 -1.6035
 6501TIP3   OH240993   0.270   4.269   0.559  0.1844 -0.7297  0.3852
 6501TIP3    H140994   0.354   4.255   0.515  0.2553  0.4892  0.1064
 6501TIP3    H240995   0.293   4.314   0.640 -0.3413  1.1563 -0.4998
 6502TIP3   OH240996   0.705   4.466  13.952  0.4138 -0.1513  0.3203
 6502TIP3    H140997   0.753   4.385  13.935 -0.4302 -0.7126  0.6246
 6502TIP3    H240998   0.743   4.500  14.033 -0.1231 -0.9123  0.8950
 6503TIP3   OH240999   6.188   3.520  16.597 -0.3143 -0.1412  0.0441
 6503TIP3    H141000   6.278   3.513  16.627  0.0541 -0.8420 -1.1889
 6503TIP3    H241001   6.167   3.613  16.603  0.2813 -0.0636  0.9141
 6504TIP3   OH241002   5.260   6.580   5.371  0.6610  0.2076  0.5916
 6504TIP3    H141003   5.210   6.541   5.443 -3.1045  0.4599 -1.7496
 6504TIP3    H241004   5.287   6.666   5.404  0.4602 -0.3534  2.2685
 6505TIP3   OH241005   3.229   1.774   3.471  0.1409 -0.7017  0.6962
 6505TIP3    H141006   3.292   1.751   3.402 -0.6474 -1.3350  0.1730
 6505TIP3    H241007   3.221   1.694   3.524  0.0177 -0.5226  0.9480
 6506TIP3   OH241008   5.988   0.978  14.956  0.1671 -0.1674 -0.3859
 6506TIP3    H141009   5.947   0.897  14.928 -2.5753  0.9147  0.3766
 6506TIP3    H241010   5.959   1.044  14.892  2.2787  0.2602 -0.9504
 6507TIP3   OH241011   6.398   1.920   0.841  0.5737  0.2480  0.2036
 6507TIP3    H141012   6.318   1.888   0.799  0.0189  0.9700  0.6838
 6507TIP3    H241013   6.367   1.977   0.911  1.5105  1.6051 -0.4502
 6508TIP3   OH241014   0.767   4.954   4.669  0.2532  0.2400  0.1721
 6508TIP3    H141015   0.806   5.016   4.608  2.1110 -0.1382  0.9121
 6508TIP3    H241016   0.785   4.868   4.631 -0.7474  0.0894  0.0309
 6509TIP3   OH241017   1.322   1.668   4.309 -0.1630  0.4860  0.0797
 6509TIP3    H141018   1.255   1.678   4.377 -0.7411  1.4269 -0.6248
 6509TIP3    H241019   1.274   1.640   4.231  0.5889 -1.2684  0.2196
 6510TIP3   OH241020   4.177   5.997   1.148  0.3365 -0.1519 -0.3315
 6510TIP3    H141021   4.172   6.055   1.225  0.9638 -0.0358 -0.3771
 6510TIP3    H241022   4.263   6.015   1.110  0.2541 -0.6171 -0.7401
 6511TIP3   OH241023   0.093   1.761  17.248 -0.6504  0.0455 -0.2662
 6511TIP3    H141024   0.031   1.711  17.195 -1.1626  1.8471 -1.3880
 6511TIP3    H241025   0.037   1.819  17.301  0.0113  0.5839 -0.1597
 6512TIP3   OH241026   0.875   4.001   3.001 -0.6121 -0.1728 -0.2717
 6512TIP3    H141027   0.828   4.079   2.972 -0.2384 -0.0998 -0.6840
 6512TIP3    H241028   0.838   3.930   2.948 -0.9368 -0.2707  0.0872
 6513TIP3   OH241029   2.338   0.285  12.938  0.0033 -0.3008  0.3985
 6513TIP3    H141030   2.335   0.310  12.846 -0.2113  0.0109  0.4872
 6513TIP3    H241031   2.324   0.190  12.938  0.4385 -0.3649  0.0852
 6514TIP3   OH241032   4.665   0.602  11.196  0.4884 -0.3030 -0.0316
 6514TIP3    H141033   4.691   0.536  11.131 -0.3752  0.7061 -1.4176
 6514TIP3    H241034   4.577   0.627  11.171  0.8235  1.4093  0.4676
 6515TIP3   OH241035   6.525   0.819  13.685 -0.0552  0.4108 -0.0449
 6515TIP3    H141036   6.492   0.861  13.606  0.2065 -0.5051 -0.6561
 6515TIP3    H241037   6.560   0.891  13.738 -0.3367  1.0417 -0.7060
 6516TIP3   OH241038   6.143   5.387   1.261  0.1883 -0.3460 -0.5736
 6516TIP3    H141039   6.122   5.481   1.260 -0.9286 -0.5428  1.1471
 6516TIP3    H241040   6.227   5.381   1.307  1.6990  0.0313 -3.2053
 6517TIP3   OH241041   4.740   2.521   0.558 -0.2353  0.3689  0.3575
 6517TIP3    H141042   4.689   2.598   0.581 -1.7585 -0.3746 -0.4389
 6517TIP3    H241043   4.689   2.447   0.590 -1.6783 -0.6144 -3.8734
 6518TIP3   OH241044   6.589   4.400  15.353 -0.2125  0.1509  0.1428
 6518TIP3    H141045   6.499   4.395  15.319 -0.3452  1.4690  0.2690
 6518TIP3    H241046   6.643   4.411  15.275 -0.5222  3.2374  0.2943
 6519TIP3   OH241047   0.280   1.974   5.583  0.0047  0.2034 -0.4360
 6519TIP3    H141048   0.262   1.883   5.606  1.0281 -0.3293 -1.6765
 6519TIP3    H241049   0.349   1.969   5.517 -0.9618  1.8004 -1.6033
 6520TIP3   OH241050   1.397   5.874  15.514  0.2145  0.1194 -0.3221
 6520TIP3    H141051   1.352   5.848  15.434  0.1457 -1.5205  0.2238
 6520TIP3    H241052   1.343   5.945  15.550 -1.5414 -1.3151 -0.0594
 6521TIP3   OH241053   2.800   3.889   2.257  0.2580  0.1171  0.4229
 6521TIP3    H141054   2.827   3.831   2.328  0.0357  0.8037  1.0714
 6521TIP3    H241055   2.831   3.845   2.177  0.6684 -0.5625  0.9513
 6522TIP3   OH241056   3.837   0.025   1.221 -0.1794 -0.6887  0.1427
 6522TIP3    H141057   3.750   0.050   1.254 -0.3363  0.7011 -1.2499
 6522TIP3    H241058   3.887   0.107   1.224  0.7509 -1.2488 -0.1003
 6523TIP3   OH241059   1.935   0.999  14.503  0.3985 -0.4639  0.3403
 6523TIP3    H141060   1.929   1.087  14.465  0.6591 -1.6544 -2.6431
 6523TIP3    H241061   1.864   0.996  14.567 -4.7882 -0.4934 -4.9234
 6524TIP3   OH241062   4.615   4.185  10.637  0.1886  0.3111 -0.0636
 6524TIP3    H141063   4.678   4.134  10.587  0.0379  0.5433 -0.4903
 6524TIP3    H241064   4.595   4.130  10.713  1.9388  0.8148  0.7995
 6525TIP3   OH241065   5.361   0.204  13.684 -0.3278 -0.9699  0.0973
 6525TIP3    H141066   5.288   0.150  13.714 -0.4973 -1.8430 -1.8117
 6525TIP3    H241067   5.438   0.165  13.725 -1.0148  0.8286  3.2928
 6526TIP3   OH241068   5.937   4.037   5.541  0.4245  0.3393  0.4548
 6526TIP3    H141069   5.993   4.002   5.611  0.8609  1.7455  0.8131
 6526TIP3    H241070   5.880   4.100   5.585  0.2293  0.7218 -0.3392
 6527TIP3   OH241071   6.385   0.188   4.755 -0.0419  0.3418 -0.3691
 6527TIP3    H141072   6.407   0.249   4.826 -0.1644 -1.0788  0.9173
 6527TIP3    H241073   6.342   0.243   4.689  1.4928  1.9631 -0.0480
 6528TIP3   OH241074   0.269   0.095  15.370 -0.2175 -0.3415  0.9681
 6528TIP3    H141075   0.191   0.105  15.425 -1.3869  1.4062 -0.9271
 6528TIP3    H241076   0.319   0.176  15.384 -1.3982  0.9272 -1.7896
 6529TIP3   OH241077   1.227   5.457   0.504  0.2720  0.5235 -0.2293
 6529TIP3    H141078   1.169   5.477   0.578  0.2349 -2.1296  0.5435
 6529TIP3    H241079   1.302   5.514   0.516  0.3805 -0.0424  2.0586
 6530TIP3   OH241080   1.431   4.845   2.626  0.1830 -0.6520  0.1328
 6530TIP3    H141081   1.467   4.915   2.573 -0.6468  0.0491  0.4870
 6530TIP3    H241082   1.438   4.876   2.716  0.4929 -1.3354  0.3505
 6531TIP3   OH241083   6.025   4.675  12.571 -0.3401 -0.1197  0.1613
 6531TIP3    H141084   5.991   4.645  12.487  0.7240 -0.8230 -0.0340
 6531TIP3    H241085   6.008   4.769  12.572  0.4337  0.0549 -1.2403
 6532TIP3   OH241086   0.831   6.563   3.480  0.1831  0.4151  0.0136
 6532TIP3    H141087   0.770   6.635   3.468  0.1687  0.3432 -0.3453
 6532TIP3    H241088   0.803   6.521   3.562 -1.9704 -1.3281 -1.5700
 6533TIP3   OH241089   4.519   1.495   3.565 -0.3259  1.1999  0.5354
 6533TIP3    H141090   4.532   1.529   3.654 -0.1429  1.0058  0.5868
 6533TIP3    H241091   4.425   1.495   3.552 -0.2849  2.5816  0.1861
 6534TIP3   OH241092   2.370   3.654  16.024  0.1842 -0.2314 -0.5011
 6534TIP3    H141093   2.454   3.694  16.001 -0.0702 -0.6185 -2.1773
 6534TIP3    H241094   2.359   3.583  15.961 -0.8750 -0.9122  0.4243
 6535TIP3   OH241095   4.316   6.696  12.169  0.3287  0.2608 -0.2397
 6535TIP3    H141096   4.287   6.784  12.144 -0.7002 -0.1981 -0.6824
 6535TIP3    H241097   4.262   6.637  12.116 -0.6933 -0.6956  1.8225
 6536TIP3   OH241098   5.221   1.622   0.834  0.3789 -0.0907 -0.2181
 6536TIP3    H141099   5.184   1.710   0.843 -1.0381 -0.7450  0.6113
 6536TIP3    H241100   5.173   1.584   0.761  0.6709 -0.3331 -0.2841
 6537TIP3   OH241101   5.038   5.114  15.036 -0.0190  0.6230 -0.4251
 6537TIP3    H141102   5.060   5.157  15.118 -0.7944 -1.8629  1.1478
 6537TIP3    H241103   5.118   5.068  15.011  0.4889  2.0754 -1.5588
 6538TIP3   OH241104   1.493   2.091   4.176 -0.7141 -0.0773 -0.5502
 6538TIP3    H141105   1.410   2.111   4.219 -0.7804  1.2679 -1.2947
 6538TIP3    H241106   1.559   2.140   4.226 -0.6266  0.4381 -1.1625
 6539TIP3   OH241107   4.822   0.932  16.773 -0.0154  0.1495  0.0027
 6539TIP3    H141108   4.791   0.971  16.691 -1.8265 -0.9392  0.1215
 6539TIP3    H241109   4.820   0.837  16.756 -0.0738 -0.0712  1.1936
 6540TIP3   OH241110   1.583   5.693   3.699  0.4575  0.2636  0.0023
 6540TIP3    H141111   1.629   5.754   3.641  0.0971  1.5244  1.0225
 6540TIP3    H241112   1.573   5.613   3.647 -0.0443  1.4488 -1.7701
 6541TIP3   OH241113   0.804   0.300  14.522 -0.5053  0.3093  0.5483
 6541TIP3    H141114   0.874   0.252  14.479 -0.5006  0.4341  0.4182
 6541TIP3    H241115   0.827   0.393  14.511 -0.4809  0.3394  0.8557
 6542TIP3   OH241116   2.617   5.987  15.354  0.0315  0.3166  0.1603
 6542TIP3    H141117   2.607   6.046  15.279 -2.5294  0.4177  0.5520
 6542TIP3    H241118   2.548   6.013  15.415  2.1098  0.2811  2.6351
 6543TIP3   OH241119   3.663   4.709   5.325 -0.5556  0.3968  0.1837
 6543TIP3    H141120   3.738   4.711   5.383  1.3918  1.8000 -2.2784
 6543TIP3    H241121   3.688   4.648   5.255 -2.3951 -0.4173  0.2057
 6544TIP3   OH241122   2.820   2.539  11.200 -0.1272  0.2272  0.7620
 6544TIP3    H141123   2.754   2.566  11.265  0.4513  0.6958  1.1603
 6544TIP3    H241124   2.827   2.444  11.212 -0.2447  0.2671  1.1822
 6545TIP3   OH241125   0.209   2.076  17.171 -0.3054  0.2655 -0.0694
 6545TIP3    H141126   0.230   2.081  17.078  0.0687  0.9112  0.0434
 6545TIP3    H241127   0.168   1.990  17.182  1.3978 -0.6108 -0.4663
 6546TIP3   OH241128   3.033   3.735   4.513  0.0628  0.1545 -0.5323
 6546TIP3    H141129   2.975   3.670   4.552  1.5637 -0.7600  0.2291
 6546TIP3    H241130   3.053   3.698   4.426 -1.4855  1.0959 -1.3143
 6547TIP3   OH241131   6.501   0.446  12.054 -0.4449  0.0357 -0.3962
 6547TIP3    H141132   6.529   0.420  12.142 -0.5872  0.2537 -0.2834
 6547TIP3    H241133   6.482   0.364  12.009  2.1566 -0.2269 -1.0876
 6548TIP3   OH241134   5.185   4.050  14.230 -0.5065 -0.5563 -0.4327
 6548TIP3    H141135   5.110   4.060  14.172 -2.1991 -2.0562  1.4215
 6548TIP3    H241136   5.172   4.116  14.298  0.6957  0.2104 -0.9242
 6549TIP3   OH241137   3.700   6.203  12.700  0.5735  0.0642  0.4643
 6549TIP3    H141138   3.775   6.259  12.683  0.7972  0.3619  2.3558
 6549TIP3    H241139   3.663   6.236  12.782 -0.8106 -0.9397  0.2666
 6550TIP3   OH241140   5.701   3.814   4.338 -0.6856  0.3051  1.3571
 6550TIP3    H141141   5.635   3.826   4.270 -0.4363 -1.7450  0.7139
 6550TIP3    H241142   5.682   3.727   4.374  0.5605  0.4529  2.3992
 6551TIP3   OH241143   4.097   3.322   4.737 -0.4123  0.4488  0.6786
 6551TIP3    H141144   4.006   3.319   4.706 -0.3310  1.0083  0.3720
 6551TIP3    H241145   4.109   3.413   4.767 -0.3930  0.0032  2.0669
 6552TIP3   OH241146   4.441   5.247   5.293 -0.5464  0.1199  0.1357
 6552TIP3    H141147   4.404   5.321   5.244 -0.7827  0.7542  1.2449
 6552TIP3    H241148   4.459   5.283   5.380  0.7161 -0.7467  0.2397
 6553TIP3   OH241149   3.158   2.767  11.691  0.0969 -0.1069  0.0861
 6553TIP3    H141150   3.188   2.768  11.782 -0.6509  1.1661  0.3336
 6553TIP3    H241151   3.168   2.858  11.661 -0.5126 -0.3223 -0.8120
 6554TIP3   OH241152   2.021   5.501  15.705 -0.1612  0.1743 -0.0983
 6554TIP3    H141153   2.024   5.413  15.744 -1.7724  0.0952 -0.1161
 6554TIP3    H241154   2.111   5.519  15.681  0.4914 -0.7202  1.5882
 6555TIP3   OH241155   0.173   3.019   3.726 -0.2444  0.0227  0.3166
 6555TIP3    H141156   0.114   2.945   3.738  0.6479 -0.6821  0.4257
 6555TIP3    H241157   0.132   3.073   3.658 -1.3063 -0.1398  0.8214
 6556TIP3   OH241158   4.568   1.047   3.023 -0.0700 -0.2959  0.4455
 6556TIP3    H141159   4.589   0.953   3.027 -0.3803 -0.3259  1.4486
 6556TIP3    H241160   4.490   1.051   2.968 -0.4681 -0.7049  0.9661
 6557TIP3   OH241161   2.040   1.094  11.856  0.1420  0.3829 -0.5430
 6557TIP3    H141162   2.111   1.036  11.828  0.0492 -0.5521  1.1410
 6557TIP3    H241163   2.074   1.137  11.934 -0.4061  1.4362 -0.8699
 6558TIP3   OH241164   5.011   0.353  13.032 -0.0929 -0.4274 -0.2682
 6558TIP3    H141165   5.027   0.316  13.119 -0.1386  0.8789  0.3073
 6558TIP3    H241166   5.024   0.447  13.043  0.0375 -0.2605 -1.7108
 6559TIP3   OH241167   0.436   4.405   1.709  0.0399  0.1551  0.0945
 6559TIP3    H141168   0.427   4.384   1.802 -0.6911  2.6372  0.6035
 6559TIP3    H241169   0.521   4.449   1.703  0.2391 -0.2986 -0.4787
 6560TIP3   OH241170   5.092   5.561  11.260 -0.6181  0.5110 -0.0600
 6560TIP3    H141171   5.135   5.572  11.345 -0.6387 -0.8328  0.1310
 6560TIP3    H241172   5.159   5.584  11.196  0.0174 -0.3709  0.2739
 6561TIP3   OH241173   1.915   1.934   1.003 -0.1469  0.0852 -0.4277
 6561TIP3    H141174   1.889   2.016   1.046 -1.0501 -0.8312  0.7804
 6561TIP3    H241175   2.006   1.922   1.029  0.8465  2.0512 -2.7419
 6562TIP3   OH241176   3.649   2.071   1.186 -0.3712  0.0738  0.1723
 6562TIP3    H141177   3.599   2.147   1.158 -1.4056 -0.9626 -0.8653
 6562TIP3    H241178   3.738   2.089   1.157 -0.6045  0.9080 -0.0314
 6563TIP3   OH241179   3.767   4.339   3.305  0.5748 -0.1861 -0.0385
 6563TIP3    H141180   3.719   4.387   3.372 -1.6224  0.2255 -1.8279
 6563TIP3    H241181   3.705   4.273   3.274  1.7644 -0.7761 -1.2062
 6564TIP3   OH241182   5.932   1.351   4.768  0.0865  0.1179  0.1541
 6564TIP3    H141183   5.917   1.363   4.861  1.5058 -1.2104  0.5706
 6564TIP3    H241184   5.859   1.397   4.726 -0.9550  0.1251  1.9131
 6565TIP3   OH241185   3.391   1.536   3.386 -0.4393  0.0371 -0.1839
 6565TIP3    H141186   3.486   1.535   3.398 -0.0978  2.6699 -2.2402
 6565TIP3    H241187   3.375   1.471   3.317 -0.3659 -1.6949  1.3981
 6566TIP3   OH241188   2.603   5.087  14.935  0.2417  0.6046  0.4517
 6566TIP3    H141189   2.653   5.011  14.965  1.2119  0.9993 -0.1245
 6566TIP3    H241190   2.598   5.144  15.012 -0.8240 -0.1955  0.9983
 6567TIP3   OH241191   0.709   4.392   1.152 -0.0468  0.4943 -0.1949
 6567TIP3    H141192   0.770   4.354   1.216 -0.8651 -0.4148  0.0587
 6567TIP3    H241193   0.622   4.379   1.192 -0.7541 -1.8701 -2.3554
 6568TIP3   OH241194   5.913   1.029   5.692  0.4388  0.0398  0.2890
 6568TIP3    H141195   5.832   1.075   5.713  0.6344 -0.3677  1.9948
 6568TIP3    H241196   5.907   1.012   5.598 -1.9290 -0.8686  0.5694
 6569TIP3   OH241197   5.410   0.722  14.471 -0.0015 -0.4303 -0.3817
 6569TIP3    H141198   5.504   0.728  14.457 -0.0480  1.1808 -0.1528
 6569TIP3    H241199   5.401   0.681  14.558  0.5072  0.2845  0.0093
 6570TIP3   OH241200   6.647   6.589  13.130 -0.4457  0.1250  0.5625
 6570TIP3    H141201   6.659   6.620  13.040  1.1402 -2.2051 -0.1050
 6570TIP3    H241202   6.553   6.575  13.139 -1.0053  3.4967  0.3874
 6571TIP3   OH241203   1.466   6.360   5.240 -0.3570 -0.0520 -0.0746
 6571TIP3    H141204   1.561   6.358   5.226 -0.4337 -1.3766 -0.4649
 6571TIP3    H241205   1.454   6.322   5.326 -0.6147 -0.9874 -0.5181
 6572TIP3   OH241206   5.550   0.516  15.206  0.0443 -0.1215  0.5639
 6572TIP3    H141207   5.550   0.612  15.198  0.4748 -0.2267 -0.7956
 6572TIP3    H241208   5.493   0.498  15.281 -1.0783  1.1241  0.0186
 6573TIP3   OH241209   1.626   4.077  12.271 -0.3913 -0.0983  0.5460
 6573TIP3    H141210   1.684   4.132  12.324  0.4363  1.0356 -1.4807
 6573TIP3    H241211   1.656   3.987  12.288  0.6497  0.3390  1.0716
 6574TIP3   OH241212   5.329   5.275  16.897 -0.2747  0.2032 -0.3015
 6574TIP3    H141213   5.409   5.316  16.930  0.8164  0.2170 -2.7936
 6574TIP3    H241214   5.291   5.341  16.839 -1.0911 -0.4939 -0.5651
 6575TIP3   OH241215   4.617   0.954   4.771  0.3487 -0.3840 -0.0050
 6575TIP3    H141216   4.620   0.995   4.858 -1.4787  0.0025 -0.0974
 6575TIP3    H241217   4.660   0.870   4.783 -1.3082 -1.0397  1.7076
 6576TIP3   OH241218   1.281   1.120  15.278  0.2631  0.1909 -0.2500
 6576TIP3    H141219   1.257   1.197  15.330 -1.0083  0.7619 -1.6563
 6576TIP3    H241220   1.217   1.117  15.207  0.4610 -2.0106 -0.3918
 6577TIP3   OH241221   6.361   1.829  11.186 -0.3991  0.5776  0.1306
 6577TIP3    H141222   6.403   1.841  11.101 -0.2638 -2.9586 -0.3943
 6577TIP3    H241223   6.419   1.771  11.234 -0.7511  2.0983  2.4679
 6578TIP3   OH241224   4.136   4.485   3.632  0.7281  0.1861 -0.0487
 6578TIP3    H141225   4.154   4.472   3.726  2.3067  1.7543 -0.1182
 6578TIP3    H241226   4.092   4.570   3.628 -2.7525 -1.5345 -0.3838
 6579TIP3   OH241227   3.095   3.241   4.096  0.5002  0.1747  0.1699
 6579TIP3    H141228   3.137   3.185   4.031  0.8751  0.4530  0.1732
 6579TIP3    H241229   3.166   3.290   4.137  0.0306  1.9987 -1.1098
 6580TIP3   OH241230   3.927   1.546  15.237  0.0727  0.7229 -0.1362
 6580TIP3    H141231   3.968   1.629  15.214 -1.5588  1.7534  0.6869
 6580TIP3    H241232   3.837   1.554  15.207 -0.3072 -0.4633  0.6524
 6581TIP3   OH241233   2.918   0.588  12.995  0.7186  0.0380 -0.1453
 6581TIP3    H141234   2.957   0.604  13.081  1.5164 -0.8383 -0.3362
 6581TIP3    H241235   2.993   0.570  12.937  0.0496 -1.7836 -0.4887
 6582TIP3   OH241236   4.060   1.192   2.570  1.1690 -0.3400  0.0753
 6582TIP3    H141237   4.098   1.145   2.495  2.0417 -1.4049  1.1577
 6582TIP3    H241238   3.968   1.167   2.570  0.8767  0.6489 -1.3688
 6583TIP3   OH241239   5.911   1.537  10.953 -0.5088 -0.2083  0.6686
 6583TIP3    H141240   5.979   1.551  11.019 -1.0368 -0.2926  1.2422
 6583TIP3    H241241   5.829   1.538  11.003 -0.8814 -0.7237  0.0759
 6584TIP3   OH241242   3.162   0.851  11.251  0.1101 -0.4778 -0.0431
 6584TIP3    H141243   3.249   0.890  11.256 -0.0925 -0.0364 -0.0211
 6584TIP3    H241244   3.122   0.869  11.336  0.3050 -1.4141  0.2598
 6585TIP3   OH241245   5.726   4.705   2.762 -0.4535  0.3358 -0.6067
 6585TIP3    H141246   5.637   4.733   2.744 -0.5417 -0.0651 -0.7841
 6585TIP3    H241247   5.780   4.759   2.703 -0.7170 -0.7488 -1.8587
 6586TIP3   OH241248   0.068   3.670  10.624  0.1274  0.0177  0.3186
 6586TIP3    H141249   0.147   3.637  10.581  0.9973 -0.0044  1.8872
 6586TIP3    H241250   0.039   3.743  10.569  0.3781 -0.9265 -1.0840
 6587TIP3   OH241251   2.427   5.193  16.510  0.4100 -0.5205 -0.1215
 6587TIP3    H141252   2.413   5.214  16.418 -0.6819 -0.4165  0.0523
 6587TIP3    H241253   2.433   5.279  16.553 -1.9198 -0.5369  0.2891
 6588TIP3   OH241254   5.858   6.440  12.507  0.1033 -0.2866 -0.0711
 6588TIP3    H141255   5.871   6.534  12.503 -1.9070  0.0652  0.9816
 6588TIP3    H241256   5.942   6.406  12.539 -0.2404  1.5033  2.9390
 6589TIP3   OH241257   1.100   5.648  15.588 -0.2743 -0.0786  0.2902
 6589TIP3    H141258   1.024   5.699  15.561 -0.4497 -0.3990  0.1672
 6589TIP3    H241259   1.070   5.557  15.587  0.3508 -0.2901 -0.6073
 6590TIP3   OH241260   1.912   0.127  15.661  0.2728  0.3066  0.1195
 6590TIP3    H141261   1.925   0.034  15.676  2.7748  0.5971 -0.0208
 6590TIP3    H241262   1.829   0.133  15.613 -0.5590 -1.7230  1.2809
 6591TIP3   OH241263   5.988   6.668  10.531  0.5113 -0.1586 -0.0761
 6591TIP3    H141264   5.934   6.736  10.573 -1.3025 -0.7480 -1.3722
 6591TIP3    H241265   6.000   6.602  10.600  2.5069  1.5380  1.2740
 6592TIP3   OH241266   0.190   6.395  14.623 -0.1333  0.3185  0.2524
 6592TIP3    H141267   0.253   6.380  14.693  0.4583 -0.2197 -0.3854
 6592TIP3    H241268   0.104   6.381  14.664  0.2399 -0.6883  0.6966
 6593TIP3   OH241269   0.500   3.740   3.445  0.0262 -0.2132 -0.2835
 6593TIP3    H141270   0.530   3.801   3.513  0.8764  0.1249 -0.9500
 6593TIP3    H241271   0.472   3.797   3.373  0.6867 -0.6154 -0.8554
 6594TIP3   OH241272   6.328   2.648  16.784 -0.1229 -0.7247  0.1435
 6594TIP3    H141273   6.344   2.729  16.734 -0.9963 -2.0630 -2.3881
 6594TIP3    H241274   6.415   2.612  16.799  0.3239  0.9708  1.8330
 6595TIP3   OH241275   3.799   5.672  10.869 -0.3808 -0.3556  0.2611
 6595TIP3    H141276   3.845   5.746  10.909 -1.6997  0.7860 -0.2906
 6595TIP3    H241277   3.747   5.635  10.941  0.8052 -1.1887  0.7035
 6596TIP3   OH241278   1.864   3.421   0.232  0.2970  0.1680  0.5161
 6596TIP3    H141279   1.923   3.440   0.305  1.1858  0.7438 -0.3434
 6596TIP3    H241280   1.800   3.492   0.234  2.0292  1.8043 -1.0390
 6597TIP3   OH241281   1.647   6.769   5.906  0.2123 -0.2727  0.4673
 6597TIP3    H141282   1.635   6.766   5.811  0.4281 -2.5910  0.4812
 6597TIP3    H241283   1.589   6.839   5.936  0.0637  0.3987 -1.3553
 6598TIP3   OH241284   4.140   0.508  17.047  0.1068  0.2735 -0.5062
 6598TIP3    H141285   4.097   0.555  16.976  1.6451  1.4553 -0.6681
 6598TIP3    H241286   4.080   0.436  17.068 -1.7153  1.6278 -1.0208
 6599TIP3   OH241287   1.933   4.135   1.516  0.0824  0.4450  0.0585
 6599TIP3    H141288   1.941   4.159   1.608  2.1393  0.0436 -0.0000
 6599TIP3    H241289   1.975   4.049   1.510 -1.7648 -0.4225 -0.8947
 6600TIP3   OH241290   0.649   1.363   4.974  0.2187 -0.6248  0.5356
 6600TIP3    H141291   0.624   1.299   5.041  2.1510 -1.2101  0.7283
 6600TIP3    H241292   0.693   1.311   4.907  0.6946  0.3488  0.0822
 6601TIP3   OH241293   0.487   0.882   5.122 -0.0905 -0.1161  0.3637
 6601TIP3    H141294   0.471   0.951   5.187  0.1256 -0.1575  0.4597
 6601TIP3    H241295   0.535   0.815   5.170 -2.1938 -1.3176  0.8527
 6602TIP3   OH241296   2.146   0.918   4.001  0.3276 -0.3514 -0.1508
 6602TIP3    H141297   2.233   0.879   4.007  0.9392  0.8823 -0.7849
 6602TIP3    H241298   2.086   0.849   4.029  1.5648 -0.9790  0.9700
 6603TIP3   OH241299   3.035   0.559  10.893  0.2670 -0.0868 -0.3981
 6603TIP3    H141300   3.036   0.471  10.856  1.3739  0.2196 -1.1436
 6603TIP3    H241301   3.125   0.590  10.882  0.6013  0.0743  2.4427
 6604TIP3   OH241302   5.639   5.176  15.562  0.1589  0.0071  0.2854
 6604TIP3    H141303   5.697   5.212  15.495 -0.8865 -1.9567 -1.7455
 6604TIP3    H241304   5.568   5.239  15.570 -0.5290 -0.5168 -1.6320
 6605TIP3   OH241305   2.806   1.119   0.770  0.1162  0.0149  0.0486
 6605TIP3    H141306   2.876   1.111   0.835 -1.1159 -0.5775  1.3279
 6605TIP3    H241307   2.729   1.079   0.812 -0.9896  0.6409 -1.3307
 6606TIP3   OH241308   6.468   3.465  12.065  0.7339 -0.2024  0.4198
 6606TIP3    H141309   6.545   3.433  12.111  2.1622  1.7645 -0.5140
 6606TIP3    H241310   6.436   3.538  12.119  0.3639 -0.1020  0.0679
 6607TIP3   OH241311   1.992   1.738   1.407  0.3247 -0.2468  0.2590
 6607TIP3    H141312   1.929   1.805   1.433  0.8784 -0.3378  1.9128
 6607TIP3    H241313   1.954   1.656   1.437 -0.2303 -0.6723 -1.5352
 6608TIP3   OH241314   4.673   4.548  11.031  0.4746 -0.3356  0.0887
 6608TIP3    H141315   4.715   4.631  11.009 -0.6562  0.4164  0.6815
 6608TIP3    H241316   4.579   4.568  11.030  0.2692 -1.0361  2.4153
 6609TIP3   OH241317   3.110   5.797   6.636  0.1320 -0.0293 -0.4857
 6609TIP3    H141318   3.174   5.809   6.706  0.0123 -0.7991 -0.2374
 6609TIP3    H241319   3.025   5.800   6.680 -0.0097  1.0223 -0.8201
 6610TIP3   OH241320   2.130   6.427   0.170 -0.0964 -0.7445  0.0628
 6610TIP3    H141321   2.212   6.397   0.132 -0.4444 -1.5637 -0.0653
 6610TIP3    H241322   2.155   6.463   0.255  0.3613 -1.3071  0.1775
 6611TIP3   OH241323   0.608   5.677  11.740 -0.4265 -0.3200 -0.9122
 6611TIP3    H141324   0.557   5.628  11.804 -2.0632  0.3158 -1.7164
 6611TIP3    H241325   0.671   5.613  11.706  0.1405 -0.7952  0.9345
 6612TIP3   OH241326   5.727   0.891   0.374 -0.5591 -0.4736  0.1754
 6612TIP3    H141327   5.806   0.842   0.397  0.9937  2.6600  1.7806
 6612TIP3    H241328   5.756   0.954   0.308 -2.0229 -0.1689 -0.1936
 6613TIP3   OH241329   5.593   1.054   4.663 -0.0857  0.1322 -0.5037
 6613TIP3    H141330   5.557   0.975   4.703 -0.3699  0.7122  0.4060
 6613TIP3    H241331   5.516   1.103   4.633  0.0940  0.0112 -1.1701
 6614TIP3   OH241332   4.297   3.799  14.724  0.2332  0.1021 -0.2992
 6614TIP3    H141333   4.247   3.826  14.801  1.4366 -0.0041  0.5212
 6614TIP3    H241334   4.300   3.878  14.669  4.2017  1.9581  2.3433
 6615TIP3   OH241335   5.479   5.290   3.653  0.1776 -0.7644 -0.0797
 6615TIP3    H141336   5.407   5.334   3.608  0.8260  0.6915  0.2412
 6615TIP3    H241337   5.479   5.201   3.620 -2.1081 -0.9237  0.3249
 6616TIP3   OH241338   2.021   5.132   0.897 -0.1260  0.1133 -0.0516
 6616TIP3    H141339   2.069   5.060   0.856  0.2432 -0.3259  1.1171
 6616TIP3    H241340   1.942   5.141   0.845  0.5805 -0.0802 -1.1676
 6617TIP3   OH241341   4.479   2.766  11.365 -0.0075  0.4100  0.0707
 6617TIP3    H141342   4.495   2.676  11.340 -0.0681  0.4143  0.0163
 6617TIP3    H241343   4.565   2.809  11.359  0.1088  0.2465  0.5544
 6618TIP3   OH241344   3.955   2.708  13.473 -0.2656  0.6074  0.6550
 6618TIP3    H141345   3.890   2.761  13.519  0.4675  0.8353  1.4360
 6618TIP3    H241346   3.956   2.625  13.521 -0.9727  0.0943 -0.1959
 6619TIP3   OH241347   2.562   2.814  13.108 -0.1855  0.0746  0.6540
 6619TIP3    H141348   2.499   2.859  13.052 -0.1127 -0.0454  0.4749
 6619TIP3    H241349   2.645   2.860  13.092  0.2183 -1.0752 -0.6700
 6620TIP3   OH241350   1.458   3.109  10.821 -0.2113  0.0942 -0.1648
 6620TIP3    H141351   1.460   3.196  10.862  0.1803 -1.6586  3.6578
 6620TIP3    H241352   1.367   3.098  10.792 -0.7346  0.9591  1.1218
 6621TIP3   OH241353   5.061   5.374  10.936  0.2739 -0.5697 -0.4068
 6621TIP3    H141354   5.076   5.453  10.886  1.4072  0.9115  2.1548
 6621TIP3    H241355   4.966   5.369  10.945  0.1913  0.4792 -0.6384
 6622TIP3   OH241356   1.837   2.097   2.495  0.3142  0.1062 -0.1198
 6622TIP3    H141357   1.760   2.135   2.453 -0.5598 -0.8380  0.5877
 6622TIP3    H241358   1.830   2.003   2.477  1.2710  0.0032  0.0129
 6623TIP3   OH241359   6.425   3.217   3.564  0.2992  0.3531  0.3080
 6623TIP3    H141360   6.511   3.252   3.589  0.7828 -0.5092 -0.1322
 6623TIP3    H241361   6.364   3.289   3.583  1.1440  1.0665  0.3902
 6624TIP3   OH241362   1.465   5.968   2.102  0.0548 -0.8791  0.6783
 6624TIP3    H141363   1.482   5.907   2.174 -0.4843 -2.1189 -0.2172
 6624TIP3    H241364   1.405   6.033   2.139 -0.9373 -2.0210  1.1155
 6625TIP3   OH241365   4.143   0.212   6.078  0.2604  0.1686  0.1355
 6625TIP3    H141366   4.192   0.267   6.138 -0.2150  0.8492 -0.0983
 6625TIP3    H241367   4.171   0.240   5.991 -0.5687  0.5818  0.0018
 6626TIP3   OH241368   3.326   1.632  15.980 -0.4996 -0.2511 -0.0620
 6626TIP3    H141369   3.349   1.544  15.951 -0.7605 -0.5942  0.7540
 6626TIP3    H241370   3.386   1.690  15.933  0.5746 -0.9628  0.4215
 6627TIP3   OH241371   3.085   5.555  14.780 -0.0314 -0.2345  0.2464
 6627TIP3    H141372   3.071   5.594  14.866 -2.0954  0.5084 -0.3848
 6627TIP3    H241373   3.180   5.547  14.772  0.1913 -0.2519  2.5500
 6628TIP3   OH241374   1.078   5.777  12.664  0.0708  0.8713 -0.4723
 6628TIP3    H141375   0.996   5.782  12.712 -0.4856  0.5127 -1.3570
 6628TIP3    H241376   1.083   5.686  12.634  1.1069  0.7235  0.1131
 6629TIP3   OH241377   5.310   2.950   0.678  0.0986 -0.3758  0.2141
 6629TIP3    H141378   5.383   2.888   0.675 -0.0124 -0.6886  2.3992
 6629TIP3    H241379   5.242   2.910   0.624  1.6192  0.0539 -2.0597
 6630TIP3   OH241380   1.102   0.951   3.833 -0.0605  0.5316 -0.4819
 6630TIP3    H141381   1.184   0.974   3.789 -0.5791  1.3149 -1.0446
 6630TIP3    H241382   1.042   0.929   3.762  0.2113 -1.9360  0.0088
 6631TIP3   OH241383   2.392   0.549  11.996 -0.4320 -0.6875  0.0153
 6631TIP3    H141384   2.443   0.589  12.067 -1.5926  1.8379 -0.5309
 6631TIP3    H241385   2.443   0.566  11.917 -0.3158 -1.4162 -0.0736
 6632TIP3   OH241386   3.416   3.394  15.086  0.0057 -0.1737  0.0810
 6632TIP3    H141387   3.419   3.456  15.013  1.8410  0.1112  0.3737
 6632TIP3    H241388   3.361   3.437  15.152 -0.3953  0.2379 -0.5133
 6633TIP3   OH241389   0.666   2.852   2.745  0.6793 -0.2359 -0.1739
 6633TIP3    H141390   0.714   2.922   2.701  0.8010 -1.6947 -2.4190
 6633TIP3    H241391   0.704   2.772   2.710 -1.7035 -1.4143 -0.1286
 6634TIP3   OH241392   2.453   6.543  14.703 -0.2909 -0.1299  0.2969
 6634TIP3    H141393   2.372   6.560  14.751  0.4879 -0.0651  1.6244
 6634TIP3    H241394   2.485   6.629  14.676 -0.0928 -0.0569  0.7522
 6635TIP3   OH241395   4.884   0.384  16.298  0.1250 -0.1857 -0.0619
 6635TIP3    H141396   4.960   0.379  16.357 -0.1243 -0.3882  0.2487
 6635TIP3    H241397   4.818   0.432  16.348  0.6258  1.4694 -0.9754
 6636TIP3   OH241398   2.907   6.356  15.229  0.7210  0.4560  0.3625
 6636TIP3    H141399   2.989   6.395  15.258  0.4672  0.6096  0.8749
 6636TIP3    H241400   2.842   6.426  15.239  0.4020  0.1290  0.5815
 6637TIP3   OH241401   5.284   0.854  16.275  0.0837 -0.7148 -0.3581
 6637TIP3    H141402   5.341   0.922  16.238 -0.2879 -0.5079 -0.5571
 6637TIP3    H241403   5.327   0.772  16.251  0.8088 -0.5463  0.3223
 6638TIP3   OH241404   5.615   5.082  12.614  0.0399 -0.3701  0.0724
 6638TIP3    H141405   5.628   5.004  12.560 -0.1562 -1.1176  1.1127
 6638TIP3    H241406   5.684   5.078  12.679  0.4446  0.6889 -0.2787
 6639TIP3   OH241407   5.103   4.858   5.188 -0.4602 -0.2914 -0.2035
 6639TIP3    H141408   5.066   4.943   5.164 -1.4403 -0.8247 -0.6159
 6639TIP3    H241409   5.109   4.860   5.283 -1.0817 -0.0137 -0.1715
 6640TIP3   OH241410   2.030   1.448   2.776 -0.4773 -0.6088 -0.0636
 6640TIP3    H141411   2.024   1.374   2.715 -1.1889 -0.6999  0.1158
 6640TIP3    H241412   1.954   1.439   2.833  0.2703 -0.6067  0.9472
 6641TIP3   OH241413   4.095   5.076   0.191  0.1570  0.0268  0.7701
 6641TIP3    H141414   4.045   5.153   0.164  2.7399  1.4756 -0.1344
 6641TIP3    H241415   4.111   5.027   0.111  1.3091  0.3092  0.8066
 6642TIP3   OH241416   2.612   4.457   1.469  0.4274 -0.2647 -0.5257
 6642TIP3    H141417   2.536   4.513   1.453  0.3355  0.0482  0.9076
 6642TIP3    H241418   2.687   4.514   1.455  0.4255 -0.8105 -2.8163
 6643TIP3   OH241419   0.055   5.484  12.675 -0.2722  0.5690  0.0781
 6643TIP3    H141420  -0.018   5.547  12.675 -2.5558 -2.0071 -0.1887
 6643TIP3    H241421   0.073   5.468  12.582  1.5156  2.1432  0.1290
 6644TIP3   OH241422   2.869   1.198  17.023  0.0670 -0.3039  0.0035
 6644TIP3    H141423   2.887   1.268  16.959  0.1640 -0.3516 -0.0211
 6644TIP3    H241424   2.792   1.229  17.070  1.4150  0.8792  1.5099
 6645TIP3   OH241425   2.177   0.284   5.180  0.4829  0.5008 -0.0440
 6645TIP3    H141426   2.228   0.336   5.241  1.5875 -1.0124  0.3615
 6645TIP3    H241427   2.147   0.209   5.232 -1.9263  1.2104 -0.3512
 6646TIP3   OH241428   5.617   3.914  11.153 -0.0731  0.0253 -0.0380
 6646TIP3    H141429   5.635   3.851  11.082  0.3207  0.0709  0.0178
 6646TIP3    H241430   5.571   3.986  11.110 -0.4280 -0.2499 -0.1238
 6647TIP3   OH241431   3.794   0.367  12.683 -0.0088 -1.0328  0.0577
 6647TIP3    H141432   3.781   0.429  12.755  0.2726  0.6444 -1.2914
 6647TIP3    H241433   3.875   0.322  12.705  1.8016  1.7021 -0.7241
 6648TIP3   OH241434   6.103   5.237  12.430 -0.8430 -0.5625 -0.0355
 6648TIP3    H141435   6.099   5.319  12.478 -0.0903 -0.2089 -0.5692
 6648TIP3    H241436   6.174   5.188  12.472  1.0981  0.5151 -1.9452
 6649TIP3   OH241437   5.164   3.889   3.663  0.4965 -0.1315  0.0050
 6649TIP3    H141438   5.070   3.881   3.645  0.3762  0.5082  0.3310
 6649TIP3    H241439   5.190   3.803   3.695 -0.1168 -0.1169  0.5372
 6650TIP3   OH241440   3.238   4.941  13.032 -0.7755  0.0054  0.3036
 6650TIP3    H141441   3.180   4.865  13.031 -0.9011  0.0401  2.1845
 6650TIP3    H241442   3.191   5.007  13.082  0.7814  0.0960  1.7052
 6651TIP3   OH241443   5.591   0.122  15.753 -0.2368  0.1387 -0.1264
 6651TIP3    H141444   5.609   0.161  15.668 -1.2568 -0.1765 -0.4843
 6651TIP3    H241445   5.640   0.039  15.752  0.8745  0.7745  0.1395
 6652TIP3   OH241446   5.266   5.832  15.518 -0.4753  0.1183 -0.6887
 6652TIP3    H141447   5.177   5.854  15.488 -1.3995 -2.5061  0.0300
 6652TIP3    H241448   5.270   5.737  15.512  1.8959  0.1337  0.4669
 6653TIP3   OH241449   4.061   1.646   0.449 -0.4599  0.0864 -0.4848
 6653TIP3    H141450   3.972   1.614   0.468 -0.8023  0.6244 -1.1547
 6653TIP3    H241451   4.098   1.580   0.390 -0.4979 -0.0254 -0.3830
 6654TIP3   OH241452   2.665   6.164  13.978 -0.1231 -0.3870 -0.1016
 6654TIP3    H141453   2.648   6.079  14.017 -0.5945  0.3472  1.3316
 6654TIP3    H241454   2.580   6.193  13.945 -0.0451 -0.2909 -0.2215
 6655TIP3   OH241455   0.771   5.492  11.995 -0.9277  0.1840  0.0680
 6655TIP3    H141456   0.694   5.505  12.051 -0.4327  0.5986  0.6519
 6655TIP3    H241457   0.754   5.409  11.950 -1.2122 -0.2813  1.0228
 6656TIP3   OH241458   5.372   0.390   0.338  0.2075 -0.2010 -0.0602
 6656TIP3    H141459   5.310   0.438   0.282  0.5088 -0.1439 -0.3521
 6656TIP3    H241460   5.373   0.301   0.302  1.5129  0.2039 -1.0968
 6657TIP3   OH241461   5.051   3.927  12.881  0.4002 -0.3223 -0.4375
 6657TIP3    H141462   5.014   3.949  12.796  0.2270 -1.7210 -0.7431
 6657TIP3    H241463   5.096   3.843  12.866  1.1002 -0.1507  0.6419
 6658TIP3   OH241464   4.272   3.887  16.709  0.2762 -0.4114 -0.6798
 6658TIP3    H141465   4.342   3.858  16.768  0.0752  0.8983  0.2441
 6658TIP3    H241466   4.258   3.979  16.732 -1.4864 -0.5454 -1.1073
 6659TIP3   OH241467   2.549   2.741   4.646  1.2407  0.2436  0.2752
 6659TIP3    H141468   2.567   2.647   4.646 -1.5116 -0.3223  0.6029
 6659TIP3    H241469   2.584   2.772   4.562 -0.1315 -1.5747 -1.0074
 6660TIP3   OH241470   1.092   6.592   3.889 -0.2273 -0.0035  0.2360
 6660TIP3    H141471   1.128   6.681   3.885 -0.0686 -0.0286  0.9796
 6660TIP3    H241472   1.169   6.536   3.906 -0.0332 -0.4996 -2.0597
 6661TIP3   OH241473   1.763   3.139   2.746  0.0002  0.2136  0.1645
 6661TIP3    H141474   1.773   3.062   2.802  0.2612 -0.0982 -0.3109
 6661TIP3    H241475   1.826   3.202   2.780 -1.0184  0.6611  1.2986
 6662TIP3   OH241476   1.325   1.221  16.924  0.2651  0.4639 -0.1546
 6662TIP3    H141477   1.374   1.249  16.846 -0.8147  0.4282 -0.8589
 6662TIP3    H241478   1.245   1.273  16.922 -0.0569  0.0095  0.5916
 6663TIP3   OH241479   1.533   3.307   2.352 -0.3212  0.0770  0.0824
 6663TIP3    H141480   1.571   3.389   2.383  1.8923 -1.7360  2.3583
 6663TIP3    H241481   1.468   3.283   2.418 -1.2262  0.1487 -0.7600
 6664TIP3   OH241482   0.318   0.259  12.585  0.1209 -0.0427 -0.2727
 6664TIP3    H141483   0.323   0.171  12.622 -0.0290 -0.8416 -2.1070
 6664TIP3    H241484   0.381   0.309  12.636 -1.2997 -0.6700  2.1850
 6665TIP3   OH241485   0.354   2.817  16.198  0.1453  0.0297 -0.4021
 6665TIP3    H141486   0.265   2.827  16.231 -0.2227  0.0161 -1.3833
 6665TIP3    H241487   0.390   2.743  16.247 -0.6586 -0.4807 -0.5881
 6666TIP3   OH241488   0.235   0.827  11.403 -0.4532 -0.8689  0.1438
 6666TIP3    H141489   0.304   0.870  11.453  0.1474 -0.0052 -1.3694
 6666TIP3    H241490   0.154   0.854  11.445 -0.0209  0.8456 -0.0712
 6667TIP3   OH241491   2.321   3.140  14.358  0.3195 -0.2865  0.1090
 6667TIP3    H141492   2.358   3.222  14.391  0.5537 -0.3586  0.0295
 6667TIP3    H241493   2.356   3.073  14.416  1.7125 -0.5552 -1.0089
 6668TIP3   OH241494   1.432   0.407   5.296  0.1672  0.0272  0.1988
 6668TIP3    H141495   1.468   0.493   5.317 -2.8666  0.8307  2.4540
 6668TIP3    H241496   1.499   0.345   5.325  1.7453  1.5570 -0.0890
 6669TIP3   OH241497   5.091   5.867  13.055 -0.4825 -0.4755  0.3174
 6669TIP3    H141498   5.184   5.847  13.067 -0.5165 -2.1156 -1.7920
 6669TIP3    H241499   5.048   5.782  13.055 -1.8538  0.2095  0.1984
 6670TIP3   OH241500   3.781   5.223   2.803 -0.3276 -0.2205  0.1594
 6670TIP3    H141501   3.726   5.145   2.813 -2.1188  1.0790  0.8043
 6670TIP3    H241502   3.865   5.199   2.841 -0.6385 -2.0570 -0.2936
 6671TIP3   OH241503   1.861   3.455  12.638  0.4081 -0.4253 -0.0230
 6671TIP3    H141504   1.804   3.378  12.643  0.5698 -0.5099  0.5174
 6671TIP3    H241505   1.896   3.465  12.726 -1.8240  1.9560  0.6523
 6672TIP3   OH241506   4.711   5.408   3.485  0.5795 -0.0366 -0.4077
 6672TIP3    H141507   4.791   5.369   3.452  1.8333 -0.1931  2.6076
 6672TIP3    H241508   4.646   5.338   3.480  1.0799 -0.4415 -1.2803
 6673TIP3   OH241509   1.027   2.661   2.817  0.7532 -0.3366 -0.0726
 6673TIP3    H141510   1.045   2.593   2.882  1.8834  1.1494  1.2120
 6673TIP3    H241511   1.055   2.742   2.859 -1.2200  1.0224 -1.3127
 6674TIP3   OH241512   5.222   1.562   4.810  0.1106 -0.3290  0.5532
 6674TIP3    H141513   5.317   1.571   4.815  0.1351 -0.9922  1.3684
 6674TIP3    H241514   5.187   1.643   4.846  0.3680  0.0200  0.0194
 6675TIP3   OH241515   5.196   2.412   1.650  0.2275  0.3224 -0.2225
 6675TIP3    H141516   5.106   2.427   1.680  0.5344  1.4634  0.1535
 6675TIP3    H241517   5.251   2.444   1.721  0.9449 -0.7380 -0.2786
 6676TIP3   OH241518   1.640   0.041   2.849  0.4940  0.3448  0.0129
 6676TIP3    H141519   1.733   0.045   2.873  0.1947 -0.3262  1.3092
 6676TIP3    H241520   1.602   0.120   2.889  0.8064  1.5368 -1.9540
 6677TIP3   OH241521   2.467   5.501   1.443  0.2660 -0.0444  0.0564
 6677TIP3    H141522   2.406   5.550   1.498 -1.3279 -2.7923  0.8568
 6677TIP3    H241523   2.538   5.477   1.502  0.5391  0.4174 -0.0826
 6678TIP3   OH241524   4.926   1.350   2.002  0.0676 -0.5765 -0.1690
 6678TIP3    H141525   4.923   1.434   1.956  0.5319 -0.1240  0.6225
 6678TIP3    H241526   4.848   1.351   2.058  1.0562  0.1216  1.2087
 6679TIP3   OH241527   4.351   3.354   1.804 -0.0193 -0.0278  0.4951
 6679TIP3    H141528   4.273   3.305   1.832  0.3812 -0.7402  0.3784
 6679TIP3    H241529   4.346   3.354   1.708 -2.0309  3.4498  0.5084
 6680TIP3   OH241530   5.108   3.444  17.120 -0.3435  0.5161  0.1435
 6680TIP3    H141531   5.078   3.533  17.139  0.9931  1.3307 -1.3653
 6680TIP3    H241532   5.148   3.451  17.033  1.3509 -1.1725  0.7437
 6681TIP3   OH241533   5.401   6.738   1.189  0.0871 -0.6814 -0.2916
 6681TIP3    H141534   5.480   6.688   1.207  0.2035 -0.0866  0.9217
 6681TIP3    H241535   5.432   6.827   1.174 -0.3742 -0.3709  0.5603
 6682TIP3   OH241536   0.126   6.733   1.071  0.5621 -0.3014 -0.3632
 6682TIP3    H141537   0.212   6.710   1.105  0.8309  1.1472  0.0020
 6682TIP3    H241538   0.079   6.767   1.148 -0.3287 -1.0671 -0.5616
 6683TIP3   OH241539   0.738   4.161   3.678 -0.4035  0.4457 -0.0127
 6683TIP3    H141540   0.759   4.242   3.725 -0.4483  0.9447 -0.8570
 6683TIP3    H241541   0.726   4.188   3.587  0.9151 -0.6969 -0.5441
 6684TIP3   OH241542   3.143   0.832   0.768  0.3246  0.1551 -0.8173
 6684TIP3    H141543   3.125   0.846   0.675 -1.4599 -1.5059 -0.7532
 6684TIP3    H241544   3.069   0.779   0.799  0.4512  1.4269  1.7512
 6685TIP3   OH241545   0.580   2.858  14.878  0.1461 -0.7916  0.4378
 6685TIP3    H141546   0.650   2.914  14.845 -0.9592  0.4744  0.1680
 6685TIP3    H241547   0.518   2.851  14.806 -1.6421  0.9195  1.7398
 6686TIP3   OH241548   3.941   0.303  12.365  0.0281 -0.4072 -0.3010
 6686TIP3    H141549   3.943   0.243  12.439 -0.4659  0.0766  0.1131
 6686TIP3    H241550   3.865   0.275  12.313 -1.4738  1.1542  1.0095
 6687TIP3   OH241551   6.495   4.337   4.107 -0.2623  0.0931 -0.4152
 6687TIP3    H141552   6.541   4.407   4.154 -0.1037  0.4713 -1.1340
 6687TIP3    H241553   6.565   4.284   4.069 -0.3002 -1.7532  1.9543
 6688TIP3   OH241554   2.285   0.565  11.536  0.6192  0.1013 -0.2762
 6688TIP3    H141555   2.349   0.562  11.464  1.3745  0.3555  0.3716
 6688TIP3    H241556   2.205   0.599  11.495  1.1918  0.7364 -0.8929
 6689TIP3   OH241557   5.504   6.036  11.455  0.5906 -0.0937 -0.0037
 6689TIP3    H141558   5.575   5.988  11.499  0.4636 -0.1660  0.1220
 6689TIP3    H241559   5.538   6.126  11.448  0.9943 -0.2978 -0.6236
 6690TIP3   OH241560   0.104   6.010  14.321 -0.0678 -0.0835  0.2814
 6690TIP3    H141561   0.072   6.044  14.237 -1.2888  0.1771  0.8556
 6690TIP3    H241562   0.140   5.924  14.300 -0.4768 -0.0682 -0.4818
 6691TIP3   OH241563   3.525   4.253   1.535 -0.7012  0.1022  0.1648
 6691TIP3    H141564   3.555   4.325   1.590 -0.8393  1.7654 -1.8485
 6691TIP3    H241565   3.531   4.288   1.445 -2.4274 -1.7807 -0.7184
 6692TIP3   OH241566   4.211   4.162  16.767 -0.0906  1.0886  0.0444
 6692TIP3    H141567   4.189   4.190  16.678 -1.8999  1.8405  0.7006
 6692TIP3    H241568   4.186   4.236  16.822  0.2221  0.2958  1.2746
 6693TIP3   OH241569   3.520   5.689  11.363 -0.1978  0.0846 -0.3096
 6693TIP3    H141570   3.552   5.768  11.407  0.7588 -0.2216 -0.4373
 6693TIP3    H241571   3.501   5.717  11.273 -2.1104  0.6996  0.2690
 6694TIP3   OH241572   0.662   6.250   5.056  0.5742  0.0198  0.1960
 6694TIP3    H141573   0.616   6.208   5.129  1.2141 -1.1119 -0.0393
 6694TIP3    H241574   0.692   6.177   5.001  1.5619  0.7919 -0.3103
 6695TIP3   OH241575   2.673   0.156   2.611 -0.4272  0.2338 -0.0790
 6695TIP3    H141576   2.646   0.066   2.624 -0.0436  0.1550  0.1769
 6695TIP3    H241577   2.757   0.150   2.565 -0.3595  0.4591  0.0131
 6696TIP3   OH241578   5.092   0.341  15.448  0.0698 -0.7127 -0.5875
 6696TIP3    H141579   5.182   0.316  15.468  0.1394 -1.8783 -2.2517
 6696TIP3    H241580   5.094   0.366  15.356 -0.7737  1.8930  0.0565
 6697TIP3   OH241581   4.602   3.166  14.221  0.4332  0.0108 -0.1973
 6697TIP3    H141582   4.657   3.244  14.224 -0.2099  0.4921 -0.6338
 6697TIP3    H241583   4.583   3.154  14.128  1.2650 -1.1943 -0.2218
 6698TIP3   OH241584   3.239   1.261  14.100 -0.1174  0.0534  0.4128
 6698TIP3    H141585   3.148   1.257  14.129  0.5221 -1.4360  2.2749
 6698TIP3    H241586   3.236   1.233  14.008 -1.4913 -0.2813  0.5508
 6699TIP3   OH241587   2.338   4.268  14.057 -0.2734  0.4276 -0.3967
 6699TIP3    H141588   2.249   4.288  14.086 -0.3917  0.9091 -1.0905
 6699TIP3    H241589   2.328   4.246  13.964  0.2944  0.2035 -0.4044
 6700TIP3   OH241590   5.112   3.584  15.995  0.2417 -0.1408  0.5205
 6700TIP3    H141591   5.084   3.524  15.925 -3.1466 -1.6331  2.9849
 6700TIP3    H241592   5.082   3.670  15.966 -1.9554 -0.8809  0.4604
 6701TIP3   OH241593   2.907   5.357   4.100 -0.2551  0.3105 -0.7651
 6701TIP3    H141594   2.857   5.304   4.162  0.6743 -0.0931 -0.3498
 6701TIP3    H241595   2.941   5.295   4.036  2.0125  0.1791  0.5206
 6702TIP3   OH241596   2.970   1.305  13.764 -0.4075  0.6226 -0.2729
 6702TIP3    H141597   3.032   1.360  13.716 -0.2705  0.8682  0.1785
 6702TIP3    H241598   2.919   1.366  13.817  0.1654  0.2730  0.7024
 6703TIP3   OH241599   5.228   0.596   4.001  0.0035  0.1614 -0.5639
 6703TIP3    H141600   5.221   0.508   4.037 -0.7362 -0.0369 -1.1695
 6703TIP3    H241601   5.147   0.640   4.029  0.9351  1.0539  0.7994
 6704TIP3   OH241602   5.163   2.545   4.242 -0.7584  0.2104 -0.6733
 6704TIP3    H141603   5.221   2.487   4.192 -1.3497 -0.4702 -0.5781
 6704TIP3    H241604   5.220   2.614   4.275 -0.3128  0.5185 -2.0691
 6705TIP3   OH241605   2.201   5.925   4.592  0.6660  0.2852 -0.3447
 6705TIP3    H141606   2.127   5.964   4.640  2.8891 -0.4211  3.9373
 6705TIP3    H241607   2.236   5.997   4.540  0.1521  2.0727  1.6903
 6706TIP3   OH241608   2.601   3.727  12.242  0.0141  0.6603 -0.2571
 6706TIP3    H141609   2.651   3.801  12.276  0.7985  0.7963 -1.6796
 6706TIP3    H241610   2.664   3.677  12.190 -0.6876 -0.6109  0.0980
 6707TIP3   OH241611   6.552   1.947  15.819  0.2837 -0.0023  0.1210
 6707TIP3    H141612   6.645   1.932  15.832  0.3358 -0.2503 -0.5212
 6707TIP3    H241613   6.508   1.880  15.871  0.4771 -0.6763 -0.5910
 6708TIP3   OH241614   1.182   1.173  13.120  0.2998 -0.0100 -0.5164
 6708TIP3    H141615   1.179   1.090  13.166 -1.2239  1.4223  2.0951
 6708TIP3    H241616   1.157   1.152  13.031 -0.5924 -2.2573  0.2277
 6709TIP3   OH241617   1.339   5.137   2.619  0.4938 -0.0777 -0.7463
 6709TIP3    H141618   1.307   5.147   2.529 -0.4812  0.4292 -0.3459
 6709TIP3    H241619   1.293   5.060   2.652  1.2087 -0.5458 -0.8331
 6710TIP3   OH241620   6.028   3.954  13.874  0.0706  0.3285  0.3990
 6710TIP3    H141621   5.935   3.979  13.878 -0.1479 -0.5500  0.9141
 6710TIP3    H241622   6.027   3.863  13.843  0.6360 -0.4634  2.6531
 6711TIP3   OH241623   2.006   6.562  11.425  0.0042  0.5479 -0.2341
 6711TIP3    H141624   2.018   6.523  11.339  1.5633  0.7131 -0.1093
 6711TIP3    H241625   1.945   6.635  11.410 -1.2299 -0.6041 -0.8361
 6712TIP3   OH241626   5.775   2.246   0.870 -0.0787  0.0987 -0.2740
 6712TIP3    H141627   5.815   2.314   0.816  1.1815 -1.2284 -1.0688
 6712TIP3    H241628   5.682   2.247   0.847  0.3761 -0.1965 -2.2265
 6713TIP3   OH241629   1.895   4.930  11.412 -0.0892 -0.5025  0.5442
 6713TIP3    H141630   1.895   4.979  11.330  1.3063  0.5004  1.1330
 6713TIP3    H241631   1.898   4.838  11.384  1.3538 -0.1608 -0.5376
 6714TIP3   OH241632   2.736   3.012   4.704 -0.1951  0.1600 -0.2595
 6714TIP3    H141633   2.722   3.105   4.688 -2.2225 -0.1731 -0.6302
 6714TIP3    H241634   2.670   2.968   4.651  2.2837 -1.6361 -1.9683
 6715TIP3   OH241635   1.414   2.169   0.280 -0.1194  0.4264  0.4800
 6715TIP3    H141636   1.377   2.258   0.287  4.0899  2.1364  2.5754
 6715TIP3    H241637   1.387   2.125   0.361 -1.7944 -0.0873 -0.3361
 6716TIP3   OH241638   5.726   6.068  15.526 -0.1559  1.3036 -0.2421
 6716TIP3    H141639   5.752   6.096  15.439  1.5911  0.4460 -0.0082
 6716TIP3    H241640   5.635   6.038  15.515  0.3921  0.1818 -2.0015
 6717TIP3   OH241641   1.317   3.400   2.174 -0.2956  0.0670  0.1312
 6717TIP3    H141642   1.391   3.372   2.227  1.2705  0.7712 -1.5896
 6717TIP3    H241643   1.342   3.487   2.142 -1.8006  0.2615 -0.5758
 6718TIP3   OH241644   5.269   0.442  14.097 -0.1206  0.0388  0.1889
 6718TIP3    H141645   5.352   0.394  14.092  0.1416  0.5489 -0.4897
 6718TIP3    H241646   5.295   0.532  14.116 -0.5307  0.1638  0.1508
 6719TIP3   OH241647   4.464   5.291   3.556 -0.2485  0.3450  0.5972
 6719TIP3    H141648   4.396   5.256   3.614  0.4478 -0.0298  1.1987
 6719TIP3    H241649   4.419   5.307   3.473 -1.1926  0.6094  1.1508
 6720TIP3   OH241650   4.056   6.527   2.939 -0.1981  0.2528 -0.1130
 6720TIP3    H141651   4.015   6.452   2.982  1.1607 -0.4779 -0.0629
 6720TIP3    H241652   4.012   6.603   2.976  0.6234 -0.3866  2.2751
 6721TIP3   OH241653   3.753   1.682  14.930 -0.0015  0.2729  0.3273
 6721TIP3    H141654   3.778   1.605  14.878  0.9302 -0.5544  1.9746
 6721TIP3    H241655   3.689   1.727  14.875  0.3598 -1.0066 -1.2045
 6722TIP3   OH241656   5.302   6.266   1.013  0.1946 -0.2016  0.1650
 6722TIP3    H141657   5.274   6.342   1.065  1.4837 -0.0941  0.7234
 6722TIP3    H241658   5.320   6.198   1.078 -2.5006 -1.5400 -0.4152
 6723TIP3   OH241659   6.009   0.029   0.550 -0.1638 -0.2682  0.4823
 6723TIP3    H141660   6.090   0.057   0.508  0.7397 -2.4628  0.7085
 6723TIP3    H241661   5.946   0.020   0.479 -0.7720  3.1439  0.4902
 6724TIP3   OH241662   2.825   3.651  13.377  0.3133  0.1951  0.4828
 6724TIP3    H141663   2.812   3.746  13.378 -1.5531 -0.0163 -1.6963
 6724TIP3    H241664   2.738   3.614  13.394  0.6898 -1.1389 -0.4194
 6725TIP3   OH241665   4.199   0.496  14.451 -0.2015 -0.3311  0.2189
 6725TIP3    H141666   4.225   0.575  14.498 -0.7167  0.3215 -0.5847
 6725TIP3    H241667   4.272   0.435  14.464  0.6421  0.6201  0.0261
 6726TIP3   OH241668   2.513   0.652  12.219  0.2142  0.4011 -0.6153
 6726TIP3    H141669   2.589   0.699  12.184 -0.6722  1.7458 -0.7853
 6726TIP3    H241670   2.499   0.690  12.306 -0.6511  0.6282 -0.8450
 6727TIP3   OH241671   1.948   0.290  11.431 -0.0648 -0.4131 -0.0206
 6727TIP3    H141672   1.861   0.271  11.464  0.6435  0.1058  2.2179
 6727TIP3    H241673   1.953   0.245  11.347 -2.3851 -0.6487 -0.0469
 6728TIP3   OH241674   0.281   6.647  14.577  0.7278 -0.3542  0.7640
 6728TIP3    H141675   0.285   6.674  14.669  1.2026  0.1409  0.5956
 6728TIP3    H241676   0.244   6.559  14.580  0.4693 -0.2235  1.4110
 6729TIP3   OH241677   2.642   1.779  14.055  0.1084 -0.2832 -0.3765
 6729TIP3    H141678   2.643   1.779  13.960 -0.3742 -0.9054 -0.3866
 6729TIP3    H241679   2.732   1.798  14.080  0.2546 -0.2099 -0.9606
 6730TIP3   OH241680   4.879   6.611  14.974  0.2985 -0.2208  0.1457
 6730TIP3    H141681   4.860   6.675  14.906  1.2894 -0.4091 -0.3232
 6730TIP3    H241682   4.964   6.575  14.949  0.3010 -0.8552  1.0577
 6731TIP3   OH241683   1.453   6.454  14.656 -0.1055 -0.3630  0.2020
 6731TIP3    H141684   1.536   6.493  14.682 -0.8176  0.3210  1.4638
 6731TIP3    H241685   1.386   6.509  14.697 -1.1804 -1.0317 -0.6271
 6732TIP3   OH241686   4.692   0.796  12.703 -0.6321 -0.1879 -0.2467
 6732TIP3    H141687   4.771   0.788  12.651  0.0421 -1.2771  0.9239
 6732TIP3    H241688   4.626   0.830  12.642  0.8275  1.1009 -1.1150
 6733TIP3   OH241689   3.843   3.747   0.672 -0.1651 -0.3493 -0.0556
 6733TIP3    H141690   3.836   3.654   0.691  0.8529 -0.6819 -1.2344
 6733TIP3    H241691   3.753   3.778   0.665 -0.4942 -1.5209 -1.0018
 6734TIP3   OH241692   6.381   2.585   4.260 -0.0439 -0.5549 -0.8005
 6734TIP3    H141693   6.330   2.659   4.292  0.3553 -0.5119 -0.2648
 6734TIP3    H241694   6.327   2.547   4.191 -0.8330 -0.5484 -0.1957
 6735TIP3   OH241695   0.296   6.545   1.751  0.6901  0.0702  0.3869
 6735TIP3    H141696   0.381   6.570   1.715  0.9910 -0.1342  0.9459
 6735TIP3    H241697   0.235   6.553   1.677  1.3598 -0.6892 -0.2596
 6736TIP3   OH241698   1.168   4.350  15.205 -0.0903  0.7391  0.3341
 6736TIP3    H141699   1.260   4.339  15.181 -0.2265  0.9495 -0.2957
 6736TIP3    H241700   1.162   4.314  15.294 -0.2918 -3.1746 -1.1720
 6737TIP3   OH241701   3.732   3.915  13.817 -0.0056 -0.1951 -0.1187
 6737TIP3    H141702   3.660   3.970  13.788  0.3116 -0.8836 -2.2464
 6737TIP3    H241703   3.778   3.968  13.882 -0.3011  1.6558 -1.3966
 6738TIP3   OH241704   2.723   0.303   1.378 -0.3176  0.1543 -0.4828
 6738TIP3    H141705   2.642   0.295   1.328 -0.8116 -0.2973  0.3782
 6738TIP3    H241706   2.695   0.299   1.469  0.6191  0.5579 -0.1781
 6739TIP3   OH241707   1.793   2.143   3.189  0.1764 -0.1254  0.7250
 6739TIP3    H141708   1.866   2.108   3.137 -1.0141  0.6974 -1.5753
 6739TIP3    H241709   1.831   2.162   3.274  1.9980 -2.3364  0.4582
 6740TIP3   OH241710   0.765   0.977   2.295  0.5322 -0.1259  0.3128
 6740TIP3    H141711   0.746   0.984   2.202 -1.1700 -2.7022  0.4118
 6740TIP3    H241712   0.826   0.903   2.301  0.1916 -0.3385  1.2879
 6741TIP3   OH241713   4.182   2.508  13.254 -0.4509  0.1391 -0.1171
 6741TIP3    H141714   4.189   2.602  13.272  0.6259  0.2300 -0.9093
 6741TIP3    H241715   4.128   2.473  13.325  0.5444  1.0751  1.1183
 6742TIP3   OH241716   0.143   1.945  14.928 -0.0763 -0.2700 -0.0058
 6742TIP3    H141717   0.117   1.882  14.995 -0.5864 -0.8995 -0.7905
 6742TIP3    H241718   0.063   1.963  14.879  0.1813  0.5755 -0.1345
 6743TIP3   OH241719   2.173   6.095  14.430  0.3796  0.5574 -0.4720
 6743TIP3    H141720   2.087   6.053  14.442  0.0179  1.3120 -0.4198
 6743TIP3    H241721   2.222   6.070  14.508  0.2429  0.0371 -0.5503
 6744TIP3   OH241722   3.834   2.556   5.727 -0.5559 -0.4956  0.4626
 6744TIP3    H141723   3.814   2.556   5.820 -2.1454 -0.8642  0.1471
 6744TIP3    H241724   3.782   2.629   5.692  1.5219  0.8717  0.1529
 6745TIP3   OH241725   3.436   4.401   1.320 -0.2658 -0.0741  0.3516
 6745TIP3    H141726   3.367   4.377   1.259 -0.1454 -0.5624  0.4047
 6745TIP3    H241727   3.391   4.449   1.390 -0.2310  1.4852 -0.6886
 6746TIP3   OH241728   3.360   2.193  11.182 -0.3360 -0.0488  0.2592
 6746TIP3    H141729   3.271   2.227  11.170 -0.6393 -0.9609 -0.0803
 6746TIP3    H241730   3.390   2.236  11.262 -0.8632  0.7139  0.0603
 6747TIP3   OH241731   4.954   2.176   4.218 -0.2305  0.2337  0.3017
 6747TIP3    H141732   5.043   2.201   4.242  0.0522  0.4220 -0.8735
 6747TIP3    H241733   4.933   2.101   4.272  0.4897  0.4506  0.8773
 6748TIP3   OH241734   5.811   5.327   3.402 -0.7777 -0.1919 -0.0817
 6748TIP3    H141735   5.731   5.299   3.358  0.1232 -0.8754 -1.3224
 6748TIP3    H241736   5.842   5.402   3.352  0.2772 -0.9983 -0.6528
 6749TIP3   OH241737   4.107   6.618  12.878  0.8594  0.2574 -0.4680
 6749TIP3    H141738   4.116   6.550  12.944  1.5312 -0.4376 -1.2695
 6749TIP3    H241739   4.125   6.574  12.795  0.5089  1.2284 -1.0722
 6750TIP3   OH241740   0.005   0.487  13.222 -0.3484  0.7270 -0.1899
 6750TIP3    H141741  -0.078   0.503  13.177 -1.3428  0.1527  1.3827
 6750TIP3    H241742   0.046   0.417  13.172 -1.3972  0.1517 -0.2778
 6751TIP3   OH241743   0.981   2.020  11.320 -0.3459  0.0828  0.4737
 6751TIP3    H141744   0.885   2.023  11.319 -0.4714 -2.6024 -0.5513
 6751TIP3    H241745   1.002   1.927  11.306  2.4032  0.5494  1.1776
 6752TIP3   OH241746   2.360   2.883  14.164 -0.4238 -0.3682 -0.2269
 6752TIP3    H141747   2.319   2.908  14.247  0.7638  2.6108 -0.4801
 6752TIP3    H241748   2.406   2.801  14.184 -1.8508 -0.8043  1.4885
 6753TIP3   OH241749   0.307   5.373   3.470  0.5491  0.3199  0.2525
 6753TIP3    H141750   0.330   5.370   3.563  0.9732 -0.1680  0.1357
 6753TIP3    H241751   0.387   5.401   3.426  0.6069 -0.2873 -0.0439
 6754TIP3   OH241752   6.552   6.216  14.216  0.5180 -0.2195 -0.5681
 6754TIP3    H141753   6.513   6.209  14.303  0.6231  0.2302 -0.4806
 6754TIP3    H241754   6.481   6.244  14.159  0.1258 -1.8335 -0.8896
 6755TIP3   OH241755   0.702   2.343   2.680 -0.5758 -0.2982  0.3590
 6755TIP3    H141756   0.660   2.271   2.728 -1.9025  0.7819  0.8382
 6755TIP3    H241757   0.635   2.372   2.618  0.1761  0.1317 -0.2494
 6756TIP3   OH241758   6.318   4.085  13.428  0.1132 -0.3920  0.3017
 6756TIP3    H141759   6.397   4.031  13.433  0.0112 -0.5493  0.2083
 6756TIP3    H241760   6.294   4.084  13.335 -2.0719 -3.3208  0.8205
 6757TIP3   OH241761   3.274   3.273  11.673 -0.0347  0.4696  0.0841
 6757TIP3    H141762   3.339   3.299  11.607  0.4612  1.4592  0.9587
 6757TIP3    H241763   3.195   3.319  11.648  0.4711  1.7629  0.8448
 6758TIP3   OH241764   2.289   1.108   4.245 -0.5874 -0.1585 -0.0537
 6758TIP3    H141765   2.278   1.174   4.313 -0.1191  1.6368 -1.6811
 6758TIP3    H241766   2.269   1.153   4.163  3.8115 -0.7954 -1.6377
 6759TIP3   OH241767   3.444   3.799   5.379 -0.1540  0.0083 -0.1884
 6759TIP3    H141768   3.413   3.883   5.412 -0.7552  0.3521 -1.6127
 6759TIP3    H241769   3.507   3.822   5.310  0.9338 -0.7037  0.5514
 6760TIP3   OH241770   3.957   3.895   1.306  0.0102  0.4553 -0.2030
 6760TIP3    H141771   3.983   3.909   1.215 -1.8661 -1.0036 -0.9850
 6760TIP3    H241772   3.985   3.806   1.325 -3.2492 -0.7319 -0.6934
 6761TIP3   OH241773   4.361   5.748  16.576 -0.3962  0.1726  0.1222
 6761TIP3    H141774   4.314   5.763  16.658  0.2093  0.5833  0.3963
 6761TIP3    H241775   4.452   5.770  16.596 -0.7368  3.3809 -1.5320
 6762TIP3   OH241776   0.116   0.705  12.657  0.2654 -0.8488  0.0516
 6762TIP3    H141777   0.177   0.642  12.619  0.2617 -0.6932 -0.2187
 6762TIP3    H241778   0.100   0.673  12.745  1.9073 -0.0775  0.6519
 6763TIP3   OH241779   2.850   2.725   5.833  0.3056 -0.0225 -0.0226
 6763TIP3    H141780   2.859   2.633   5.855 -1.5751 -0.1228  0.3684
 6763TIP3    H241781   2.773   2.729   5.776  1.5426  1.0497 -1.6670
 6764TIP3   OH241782   5.230   3.952   5.880 -0.4361 -1.1462  0.1102
 6764TIP3    H141783   5.164   3.968   5.948 -1.0340  0.3343 -0.7867
 6764TIP3    H241784   5.179   3.925   5.804  0.0664 -0.8546 -0.3284
 6765TIP3   OH241785   2.996   1.689  12.895  0.0758 -0.2321  0.3531
 6765TIP3    H141786   2.944   1.763  12.924  0.8782 -0.2092  1.7478
 6765TIP3    H241787   3.085   1.723  12.889  0.4504 -1.0945  1.0163
 6766TIP3   OH241788   2.807   4.628  16.504  0.9713 -0.3896  0.2574
 6766TIP3    H141789   2.754   4.580  16.568 -1.7782  1.5219 -0.4749
 6766TIP3    H241790   2.760   4.619  16.422  3.1196 -0.6531 -0.9854
 6767TIP3   OH241791   2.770   5.732  13.386  0.5724 -0.1601 -0.2011
 6767TIP3    H141792   2.817   5.813  13.408  1.6881 -0.7850 -0.2441
 6767TIP3    H241793   2.804   5.708  13.300  0.8826 -1.1498  0.2016
 6768TIP3   OH241794   1.866   0.100  11.795  0.1710  0.0507 -0.0345
 6768TIP3    H141795   1.838   0.115  11.886  0.6105 -1.4415  0.3612
 6768TIP3    H241796   1.962   0.091  11.801  0.1095 -0.9661 -0.5148
 6769TIP3   OH241797   5.501   5.789   5.010 -0.1009  0.0951 -0.0438
 6769TIP3    H141798   5.596   5.803   5.009 -0.1478  0.4753  0.3474
 6769TIP3    H241799   5.490   5.701   5.046  0.1433 -0.3488 -1.0410
 6770TIP3   OH241800   5.275   3.967  13.752 -0.1765 -0.0184  0.1767
 6770TIP3    H141801   5.343   3.948  13.688  0.0841 -2.6182  1.1537
 6770TIP3    H241802   5.322   4.009  13.825  0.0345  0.1371 -0.0493
 6771TIP3   OH241803   2.604   1.395   1.373  0.0686  0.1003 -0.1051
 6771TIP3    H141804   2.653   1.451   1.313  0.9869 -0.0570  0.4814
 6771TIP3    H241805   2.672   1.342   1.416 -0.8490 -2.2933 -1.4854
 6772TIP3   OH241806   1.541   6.094   5.690  0.1479 -0.4946  0.2846
 6772TIP3    H141807   1.583   6.012   5.717  1.5093  0.0481 -0.1413
 6772TIP3    H241808   1.530   6.143   5.771  1.3601 -0.1798  0.2695
 6773TIP3   OH241809   2.707   4.633  11.346  0.4126 -0.1334 -0.4762
 6773TIP3    H141810   2.784   4.669  11.388 -0.6528 -0.1522  1.5339
 6773TIP3    H241811   2.671   4.705  11.294  1.0658  0.2397 -0.4066
 6774TIP3   OH241812   6.807   2.676  17.051  0.3570 -0.0170  0.1289
 6774TIP3    H141813   6.789   2.633  17.134  0.9757  0.2273  0.3915
 6774TIP3    H241814   6.779   2.767  17.064  2.6601  0.6184  0.8714
 6775TIP3   OH241815   6.513   1.785   5.113 -0.0946  0.1367 -0.1633
 6775TIP3    H141816   6.584   1.804   5.175  0.1777  0.9183 -0.7074
 6775TIP3    H241817   6.456   1.861   5.118 -0.8236 -0.4220  0.1570
 6776TIP3   OH241818   5.070   3.916   2.784  0.0409  0.8028 -0.0459
 6776TIP3    H141819   5.123   3.995   2.795 -1.2747  1.5291  1.2812
 6776TIP3    H241820   5.044   3.892   2.874 -0.0715 -0.7861 -0.4883
 6777TIP3   OH241821   4.228   1.352  17.018  0.1060  0.7905  0.7658
 6777TIP3    H141822   4.254   1.400  17.097  1.9143  2.7364 -0.9638
 6777TIP3    H241823   4.300   1.364  16.958 -1.8249  0.4506 -1.6895
 6778TIP3   OH241824   5.478   1.570   3.891 -0.2837  0.4372  0.1472
 6778TIP3    H141825   5.442   1.499   3.838  0.4247  1.8823 -2.3392
 6778TIP3    H241826   5.446   1.552   3.980 -1.6838 -1.9066 -0.7852
 6779TIP3   OH241827   5.852   6.803   1.034 -0.1806 -0.3536  0.4506
 6779TIP3    H141828   5.888   6.808   1.123  0.4617  0.4253  0.1535
 6779TIP3    H241829   5.882   6.718   1.002 -1.3686 -1.1340  1.3816
 6780TIP3   OH241830   3.237   5.647  12.755 -0.5831 -0.6523  0.2160
 6780TIP3    H141831   3.150   5.680  12.779 -0.1744 -0.6041  1.6806
 6780TIP3    H241832   3.244   5.664  12.661 -0.7900  2.5175  0.7208
 6781TIP3   OH241833   1.021   4.359  13.429  0.5600 -0.2290 -0.4954
 6781TIP3    H141834   1.065   4.349  13.344 -0.1326 -0.5424 -0.8186
 6781TIP3    H241835   1.047   4.281  13.478  1.2531  0.1308 -0.2866
 6782TIP3   OH241836   1.439   3.623   5.756 -0.2755  0.6013  0.2945
 6782TIP3    H141837   1.438   3.602   5.662  0.2111 -0.2755  0.4756
 6782TIP3    H241838   1.523   3.668   5.769 -0.9031  1.8519  0.0808
 6783TIP3   OH241839   3.305   1.325   3.208 -0.1431  0.2154 -0.0334
 6783TIP3    H141840   3.347   1.262   3.149  0.7143  0.7613 -0.0234
 6783TIP3    H241841   3.237   1.366   3.154 -0.0790 -0.0593 -0.3250
 6784TIP3   OH241842   0.442   3.222   5.896  0.1567 -0.2675 -0.1732
 6784TIP3    H141843   0.482   3.137   5.879  0.0885 -0.1476 -0.9534
 6784TIP3    H241844   0.428   3.223   5.991 -1.2627 -1.7601 -0.3396
 6785TIP3   OH241845   5.164   4.501  12.197 -0.0097  0.4582  0.0564
 6785TIP3    H141846   5.156   4.578  12.140  0.8359 -1.2684 -2.4645
 6785TIP3    H241847   5.078   4.459  12.193 -0.3836  1.0850  1.2094
 6786TIP3   OH241848   3.740   4.348  17.103  0.0554  0.3207 -0.3945
 6786TIP3    H141849   3.800   4.397  17.046  0.8823  1.9730  1.8305
 6786TIP3    H241850   3.798   4.294  17.157 -0.6534 -0.1841 -0.1329
 6787TIP3   OH241851   2.276   2.367  12.233 -0.0210 -0.3570 -0.0645
 6787TIP3    H141852   2.278   2.343  12.140 -2.2046 -0.9627  0.0151
 6787TIP3    H241853   2.226   2.448  12.236 -0.4162 -0.6270  0.6426
 6788TIP3   OH241854   1.481   2.137   2.600  0.4970  0.6255 -0.5377
 6788TIP3    H141855   1.565   2.150   2.643  0.3355 -1.4213  0.4619
 6788TIP3    H241856   1.501   2.085   2.522 -0.1297 -2.2503  1.1495
 6789TIP3   OH241857   1.038   5.689  13.123 -0.0518  0.4309  0.1295
 6789TIP3    H141858   1.101   5.753  13.090  0.4257 -0.6754 -1.1383
 6789TIP3    H241859   1.078   5.604  13.105 -0.4166 -0.2429  2.3104
 6790TIP3   OH241860   6.361   5.074   2.113  0.1654  0.3573 -0.2354
 6790TIP3    H141861   6.397   5.017   2.044 -0.7658 -0.1894 -0.2782
 6790TIP3    H241862   6.395   5.037   2.194  2.3041  1.7474 -0.4347
 6791TIP3   OH241863   2.180   6.726   0.802 -0.0317  0.0491 -0.2969
 6791TIP3    H141864   2.092   6.763   0.808  0.6394  1.5534  0.3809
 6791TIP3    H241865   2.197   6.692   0.890  0.0336 -0.3168 -0.4502
 6792TIP3   OH241866   3.253   3.180   6.355  0.2953  0.0524  0.1432
 6792TIP3    H141867   3.310   3.245   6.395  1.2313  0.8697 -2.4391
 6792TIP3    H241868   3.303   3.099   6.355 -0.4499 -0.4341  2.3488
 6793TIP3   OH241869   1.230   5.259   3.364  0.1976 -0.3326  0.1739
 6793TIP3    H141870   1.136   5.239   3.355 -0.1356  1.7198 -1.3429
 6793TIP3    H241871   1.237   5.307   3.446  0.1728 -1.8585  1.0794
 6794TIP3   OH241872   4.190   0.409   2.520 -0.0397  0.7698  0.4222
 6794TIP3    H141873   4.182   0.467   2.444  1.0723  1.0945  0.5387
 6794TIP3    H241874   4.178   0.321   2.484  0.8960  0.8884 -0.2168
 6795TIP3   OH241875   4.590   4.118  10.899 -0.2187 -0.2681  0.1339
 6795TIP3    H141876   4.624   4.029  10.909 -0.5059 -0.5026 -0.9743
 6795TIP3    H241877   4.627   4.166  10.973  2.4109 -0.5612 -0.9477
 6796TIP3   OH241878   4.368   3.549  15.698 -0.2003  0.9046  0.6245
 6796TIP3    H141879   4.273   3.555  15.706 -0.2377  1.5793 -0.3243
 6796TIP3    H241880   4.383   3.516  15.609  0.4497  0.6740  0.8130
 6797TIP3   OH241881   3.949   3.543  15.937 -0.2907  0.3368 -0.3995
 6797TIP3    H141882   4.013   3.475  15.916 -1.4535 -0.2662 -2.1189
 6797TIP3    H241883   3.919   3.521  16.026  1.3184  0.2026  0.1278
 6798TIP3   OH241884   0.793   2.209  16.725 -0.3047 -0.2305  0.7572
 6798TIP3    H141885   0.853   2.136  16.710  0.6147  0.2287  2.1233
 6798TIP3    H241886   0.785   2.214  16.820 -0.1893  1.5958  0.6801
 6799TIP3   OH241887   4.717   3.321   2.927  0.0354 -0.1641  0.1370
 6799TIP3    H141888   4.799   3.346   2.970 -0.7504  0.9191  1.0072
 6799TIP3    H241889   4.742   3.310   2.835  1.5729 -1.8213  0.7125
 6800TIP3   OH241890   1.452   4.615  12.119 -0.3451  0.2665 -0.3651
 6800TIP3    H141891   1.398   4.577  12.050 -0.5701 -1.2499  0.6397
 6800TIP3    H241892   1.540   4.618  12.081 -0.8413  1.4263 -1.4833
 6801TIP3   OH241893   4.573   1.866  16.930  0.8458  0.1807 -0.0129
 6801TIP3    H141894   4.494   1.824  16.965  1.5015 -1.2952 -0.2546
 6801TIP3    H241895   4.557   1.873  16.836  0.5474  0.9327  0.0853
 6802TIP3   OH241896   4.685   6.077   3.367  0.2558 -0.0625  0.2984
 6802TIP3    H141897   4.623   6.028   3.421  0.1552 -1.0666 -0.7144
 6802TIP3    H241898   4.766   6.078   3.418 -0.1203 -0.1278  0.9095
 6803TIP3   OH241899   1.591   1.480  13.422  0.1875 -0.0003 -0.4472
 6803TIP3    H141900   1.571   1.414  13.356  0.1432 -1.5717  1.1006
 6803TIP3    H241901   1.519   1.476  13.484  0.0632  1.6930 -0.4448
 6804TIP3   OH241902   6.069   1.197  16.775 -0.0673 -0.1155 -0.0168
 6804TIP3    H141903   6.045   1.285  16.746 -0.2883  0.0868  0.7587
 6804TIP3    H241904   6.114   1.211  16.859 -0.7286 -0.7902  0.4572
 6805TIP3   OH241905   6.120   0.154  16.418  0.2157 -0.0908 -0.1391
 6805TIP3    H141906   6.138   0.063  16.443  0.7602 -0.5778 -2.2056
 6805TIP3    H241907   6.108   0.151  16.324  0.1647  1.9899 -0.2210
 6806TIP3   OH241908   1.122   6.571  16.267 -0.1008  0.0249  0.1800
 6806TIP3    H141909   1.172   6.517  16.206  1.8193 -0.4427  2.1033
 6806TIP3    H241910   1.050   6.515  16.297 -0.1492 -0.2624 -0.4841
 6807TIP3   OH241911   2.894   1.614   0.078 -0.1591  0.1631  0.4848
 6807TIP3    H141912   2.836   1.630   0.152 -1.8821  0.6102 -0.9324
 6807TIP3    H241913   2.837   1.581   0.009  1.3908 -0.1075 -0.7046
 6808TIP3   OH241914   5.897   6.445   5.546  0.1220 -0.7225  0.4879
 6808TIP3    H141915   5.894   6.491   5.629 -0.8175  1.3511 -0.6500
 6808TIP3    H241916   5.980   6.471   5.507 -0.8946  0.9457 -0.6390
 6809TIP3   OH241917   3.402   4.620  10.860 -0.3050 -0.3170  0.6344
 6809TIP3    H141918   3.310   4.603  10.845 -0.8322  0.8030  2.4652
 6809TIP3    H241919   3.407   4.714  10.874  1.2521 -0.2335 -0.3034
 6810TIP3   OH241920   2.738   6.816   3.239 -0.0986  0.4715 -0.2278
 6810TIP3    H141921   2.692   6.803   3.322  0.3472  1.0154  0.1025
 6810TIP3    H241922   2.735   6.730   3.197 -1.0489  0.3965 -0.0199
 6811TIP3   OH241923   3.014   4.790  15.238 -0.0302  0.5024 -0.4133
 6811TIP3    H141924   3.100   4.749  15.245  0.1061  1.0269  1.1970
 6811TIP3    H241925   3.031   4.883  15.253 -0.7808  0.6915 -0.7432
 6812TIP3   OH241926   6.726   4.941   4.203 -0.1841  0.0264 -0.6236
 6812TIP3    H141927   6.810   4.947   4.248  0.2521  2.4424 -1.6916
 6812TIP3    H241928   6.661   4.953   4.272  0.4268  0.9428 -0.1952
 6813TIP3   OH241929   5.758   0.958  12.635  0.4149  0.1537 -0.2054
 6813TIP3    H141930   5.797   0.975  12.549 -0.5255 -1.8731 -1.0531
 6813TIP3    H241931   5.812   0.890  12.673  1.3537  1.6617  1.2099
 6814TIP3   OH241932   2.629   5.374   2.595  0.2190  0.5461  0.0383
 6814TIP3    H141933   2.639   5.279   2.595 -0.7743  0.4279 -0.7229
 6814TIP3    H241934   2.717   5.408   2.612  0.2538 -0.5268  2.1036
 6815TIP3   OH241935   1.162   6.679  11.004 -0.4115 -0.1849 -0.5175
 6815TIP3    H141936   1.200   6.683  11.092 -1.0196 -2.9298 -0.0957
 6815TIP3    H241937   1.088   6.739  11.008 -0.2762 -0.0841  0.7730
 6816TIP3   OH241938   2.129   1.081  15.795  0.4909 -0.4107 -0.0683
 6816TIP3    H141939   2.152   1.174  15.801 -2.8202  0.5579 -1.4538
 6816TIP3    H241940   2.096   1.059  15.882 -1.4659  0.5422 -0.5360
 6817TIP3   OH241941   5.119   4.123  17.026  0.0582  0.2524  0.1617
 6817TIP3    H141942   5.156   4.172  17.099  1.3159  1.6777 -1.3821
 6817TIP3    H241943   5.025   4.135  17.034  0.1518 -0.0379  1.8333
 6818TIP3   OH241944   3.804   6.523   0.321  0.1542 -0.3334  0.1910
 6818TIP3    H141945   3.819   6.525   0.415  0.9801 -0.3077  0.0562
 6818TIP3    H241946   3.819   6.613   0.291 -2.2438  0.1671  0.3568
 6819TIP3   OH241947   4.833   2.056  13.974  0.6572  0.7318  0.2336
 6819TIP3    H141948   4.895   1.999  13.928 -0.2270 -1.5444  1.7677
 6819TIP3    H241949   4.777   1.996  14.022 -0.8889  2.8972  1.2192
 6820TIP3   OH241950   6.748   4.353  17.127 -0.5471 -0.0797  0.0191
 6820TIP3    H141951   6.791   4.280  17.083  2.4353  0.3972  2.0000
 6820TIP3    H241952   6.664   4.318  17.156  0.7191 -2.6816  0.7276
 6821TIP3   OH241953   2.877   3.712  12.042 -0.3181 -0.7478 -0.9172
 6821TIP3    H141954   2.915   3.799  12.032  0.7023 -0.4245  4.4354
 6821TIP3    H241955   2.946   3.652  12.014  1.5023  0.0415  1.7753
 6822TIP3   OH241956   4.114   6.466   3.775  0.1529  0.6113  0.5915
 6822TIP3    H141957   4.073   6.508   3.851  1.1150  1.6362  0.5394
 6822TIP3    H241958   4.192   6.423   3.811  0.6309  1.1334  0.1808
 6823TIP3   OH241959   4.253   4.330  14.551 -0.3334  0.3067  0.2199
 6823TIP3    H141960   4.310   4.341  14.475 -1.1461 -1.3894 -0.6607
 6823TIP3    H241961   4.229   4.419  14.575  1.4232  0.9749 -0.3469
 6824TIP3   OH241962   3.979   4.851  16.517 -0.4881 -0.1632  0.1073
 6824TIP3    H141963   3.967   4.945  16.508  3.0522  0.3037 -0.2901
 6824TIP3    H241964   4.033   4.841  16.595 -0.7306 -1.8652  0.0749
 6825TIP3   OH241965   5.805   5.949   5.895 -0.2606  0.1358  0.4857
 6825TIP3    H141966   5.739   6.015   5.870 -0.2980  0.0077  0.2381
 6825TIP3    H241967   5.759   5.891   5.956 -0.5311 -0.2486 -0.0766
 6826TIP3   OH241968   5.211   0.212  16.873  0.3599  1.2680 -0.1804
 6826TIP3    H141969   5.136   0.162  16.904 -0.1610  1.4937 -1.0484
 6826TIP3    H241970   5.260   0.151  16.818 -0.1947  1.6452 -1.1180
 6827TIP3   OH241971   5.016   2.821   3.733  0.3074  0.2696  0.0807
 6827TIP3    H141972   4.921   2.831   3.721  0.2456 -1.2125 -0.8641
 6827TIP3    H241973   5.024   2.770   3.815  0.1515 -1.9754 -1.2557
 6828TIP3   OH241974   6.111   4.853  14.901 -0.4576  0.5578 -0.2016
 6828TIP3    H141975   6.189   4.803  14.924 -1.6741 -1.3151 -0.0092
 6828TIP3    H241976   6.144   4.940  14.877  1.5004  0.3746  1.6620
 6829TIP3   OH241977   2.003   5.116   1.220  0.3868 -0.4056 -0.3040
 6829TIP3    H141978   1.921   5.158   1.247 -0.3135 -2.8341  1.4408
 6829TIP3    H241979   2.018   5.150   1.131 -0.6760  2.6781  0.6136
 6830TIP3   OH241980   6.174   5.073  13.290  0.0350 -0.0589 -0.1070
 6830TIP3    H141981   6.150   5.106  13.376 -0.0318  2.6243 -1.1232
 6830TIP3    H241982   6.174   4.977  13.300 -1.1801  0.1843  2.5104
 6831TIP3   OH241983   2.893   1.946  15.251  0.3535 -0.1891 -0.5488
 6831TIP3    H141984   2.970   2.001  15.238 -0.7743  1.6464  0.3218
 6831TIP3    H241985   2.906   1.905  15.336  0.5565 -0.1988 -0.5839
 6832TIP3   OH241986   0.877   1.268  16.418 -0.1076 -0.0096  0.4250
 6832TIP3    H141987   0.877   1.175  16.398 -0.0947 -0.1120  0.8927
 6832TIP3    H241988   0.939   1.306  16.356 -0.5315 -0.2339 -0.1337
 6833TIP3   OH241989   2.188   5.279  10.868  0.4672  0.1486  0.1057
 6833TIP3    H141990   2.274   5.238  10.873  0.8824  0.5692 -2.4026
 6833TIP3    H241991   2.142   5.249  10.946  2.9190  0.0147  1.5707
 6834TIP3   OH241992   0.626   4.045   2.736  0.0593  0.2286  0.1426
 6834TIP3    H141993   0.696   4.110   2.746  1.1711 -0.6793 -1.4246
 6834TIP3    H241994   0.632   3.991   2.815  2.2119 -0.8215 -0.6848
 6835TIP3   OH241995   6.079   5.137  17.237  0.0562 -0.7809  0.6077
 6835TIP3    H141996   6.125   5.218  17.261  1.0882 -0.8890 -0.9430
 6835TIP3    H241997   6.010   5.129  17.302  0.7711  0.6509  1.5741
 6836TIP3   OH241998   0.690   1.184   2.458 -0.0506  0.3946 -0.2262
 6836TIP3    H141999   0.705   1.116   2.393 -1.4118 -0.2525  0.1300
 6836TIP3    H242000   0.740   1.259   2.425 -0.9218  0.1654 -2.1424
 6837TIP3   OH242001   5.926   3.744  17.193  0.5565  0.2546 -0.2467
 6837TIP3    H142002   5.964   3.667  17.235  0.9068  1.1568  1.1219
 6837TIP3    H242003   5.853   3.769  17.251  0.8773  1.3495 -0.3165
 6838TIP3   OH242004   1.478   1.683   0.431 -0.1944 -0.0569 -0.3675
 6838TIP3    H142005   1.389   1.717   0.416 -0.3789 -0.4492 -0.1615
 6838TIP3    H242006   1.473   1.590   0.409 -0.2041 -0.4094  1.0470
 6839TIP3   OH242007   5.244   4.648  15.694  0.2324 -0.0658 -0.1009
 6839TIP3    H142008   5.283   4.684  15.774  0.6405 -0.8187  0.0438
 6839TIP3    H242009   5.311   4.589  15.660  0.5043  1.0944 -1.6041
 6840TIP3   OH242010   0.298   4.410   5.183 -0.0805 -0.1515 -0.0059
 6840TIP3    H142011   0.323   4.479   5.122 -1.0860  1.0831  0.9537
 6840TIP3    H242012   0.355   4.336   5.161  2.4402  1.6415  0.3235
 6841TIP3   OH242013   0.347   3.718   4.284  0.4689 -0.4218  0.3525
 6841TIP3    H142014   0.337   3.785   4.351 -1.9705  2.2237 -2.5413
 6841TIP3    H242015   0.432   3.736   4.245 -0.2837  1.2085 -0.5856
 6842TIP3   OH242016   0.289   0.667   5.938  0.1593 -0.3927 -0.2660
 6842TIP3    H142017   0.232   0.598   5.972  1.1089 -0.8181  0.5156
 6842TIP3    H242018   0.285   0.736   6.004  3.1633 -1.8267  1.5524
 6843TIP3   OH242019   5.880   0.047   6.179  0.1582 -0.4869  0.5405
 6843TIP3    H142020   5.908  -0.004   6.255  0.6807 -0.9176  0.0701
 6843TIP3    H242021   5.808  -0.005   6.141 -0.6995  0.1795  1.2509
 6844TIP3   OH242022   3.087   3.533  11.957 -0.5429 -0.3364  0.0640
 6844TIP3    H142023   3.161   3.579  11.917 -0.4120 -0.6244 -0.0325
 6844TIP3    H242024   3.125   3.450  11.988 -0.4924  0.1777  1.3994
 6845TIP3   OH242025   0.608   0.373  10.896  0.5229 -0.1964 -0.0128
 6845TIP3    H142026   0.516   0.400  10.885  0.6308  1.1800  2.0778
 6845TIP3    H242027   0.645   0.378  10.808 -0.9949  0.8253 -0.6317
 6846TIP3   OH242028   3.800   5.819   0.907 -0.2348 -0.1070  0.1266
 6846TIP3    H142029   3.867   5.886   0.925 -0.0398 -0.4001  0.4993
 6846TIP3    H242030   3.718   5.868   0.907 -0.0490  0.2055 -0.0242
 6847TIP3   OH242031   3.603   3.436  14.492 -0.8829  0.7301 -0.4308
 6847TIP3    H142032   3.679   3.411  14.439 -0.9532  0.4767 -0.4121
 6847TIP3    H242033   3.593   3.365  14.555  0.0861  1.7216  0.8732
 6848TIP3   OH242034   5.984   4.521   3.681 -0.1846  0.0675 -0.0052
 6848TIP3    H142035   6.058   4.467   3.652  0.4152  0.3555  0.9554
 6848TIP3    H242036   5.923   4.518   3.608  1.1544  0.5260 -1.1693
 6849TIP3   OH242037   4.548   4.651   5.379 -0.8298 -0.0254 -0.1119
 6849TIP3    H142038   4.454   4.642   5.366 -0.9800 -2.4929  2.1996
 6849TIP3    H242039   4.559   4.737   5.419 -2.2219 -0.1599  0.5827
 6850TIP3   OH242040   4.747   1.248  16.357  0.5713  0.3358  0.0453
 6850TIP3    H142041   4.703   1.203  16.285  1.4351  1.0709 -0.9669
 6850TIP3    H242042   4.805   1.182  16.395  1.2323  0.3373 -0.9199
 6851TIP3   OH242043   5.054   3.577   3.705 -0.1793  0.5953  0.2159
 6851TIP3    H142044   5.133   3.576   3.650  1.0390 -0.5169  1.9440
 6851TIP3    H242045   4.992   3.520   3.659  1.1916 -1.1503  0.4804
 6852TIP3   OH242046   4.584   1.500  14.081 -0.7158  0.1303 -0.6701
 6852TIP3    H142047   4.668   1.514  14.037 -1.0584 -0.0582 -1.3942
 6852TIP3    H242048   4.594   1.543  14.165  0.8207 -1.5764  0.0739
 6853TIP3   OH242049   1.117   2.725  13.698 -0.2835  0.0796  0.2832
 6853TIP3    H142050   1.026   2.752  13.710 -0.1486  0.3198  0.8108
 6853TIP3    H242051   1.119   2.680  13.614 -1.0035 -0.4294  0.5411
 6854TIP3   OH242052   6.538   5.659   3.586 -0.2675  0.3206  0.1487
 6854TIP3    H142053   6.609   5.704   3.632  1.4164 -0.4879 -1.5585
 6854TIP3    H242054   6.503   5.724   3.526  0.4217  0.1519 -0.4531
 6855TIP3   OH242055   4.604   0.472   5.064  0.0689 -0.1891  0.0475
 6855TIP3    H142056   4.542   0.520   5.118 -0.1178 -0.7751  0.3672
 6855TIP3    H242057   4.590   0.504   4.975 -0.4738 -0.0992  0.1673
 6856TIP3   OH242058   3.515   6.314  11.972 -0.5057  0.0001  0.1450
 6856TIP3    H142059   3.450   6.272  11.916 -0.7611 -1.0981  1.2411
 6856TIP3    H242060   3.472   6.323  12.057 -0.2522  1.9984  0.0949
 6857TIP3   OH242061   3.300   5.150  11.836 -0.1237 -0.4081  0.4159
 6857TIP3    H142062   3.309   5.069  11.887  0.3413  0.1948  1.2916
 6857TIP3    H242063   3.220   5.136  11.784 -0.7962 -0.8941  1.5521
 6858TIP3   OH242064   0.895   5.056   1.931 -0.0069  0.1739  0.4434
 6858TIP3    H142065   0.844   4.989   1.886 -0.5843  0.3721  0.8018
 6858TIP3    H242066   0.830   5.110   1.976  0.2258  2.6428 -2.0653
 6859TIP3   OH242067   4.013   0.543   0.145  0.4326 -0.4835 -0.2111
 6859TIP3    H142068   4.016   0.606   0.217 -1.9790 -0.6231  0.0512
 6859TIP3    H242069   4.020   0.596   0.066 -2.0185  0.1905 -0.0016
 6860TIP3   OH242070   0.738   0.536  12.478  0.2323 -0.6549 -0.3104
 6860TIP3    H142071   0.667   0.473  12.494  1.1890 -2.0980 -1.5030
 6860TIP3    H242072   0.705   0.619  12.510 -2.8606 -0.8458 -2.7412
 6861TIP3   OH242073   1.481   2.566  14.557 -0.0115 -0.2163 -0.5671
 6861TIP3    H142074   1.393   2.543  14.587  0.1771 -0.3039 -0.0779
 6861TIP3    H242075   1.529   2.484  14.561  0.0611 -0.1920 -0.9464
 6862TIP3   OH242076   1.871   1.333  16.442  0.5050  0.1298 -0.3476
 6862TIP3    H142077   1.787   1.379  16.438  0.5052  0.0768 -0.9237
 6862TIP3    H242078   1.875   1.283  16.361  0.1038 -1.6035  0.6860
 6863TIP3   OH242079   2.255   3.106   5.724  0.2683  0.1009  0.3483
 6863TIP3    H142080   2.189   3.042   5.750  1.7711 -0.4804  2.8957
 6863TIP3    H242081   2.218   3.190   5.752  0.0773 -0.0945  0.6947
 6864TIP3   OH242082   5.845   0.298  13.420 -0.4433  0.4286  0.1170
 6864TIP3    H142083   5.811   0.281  13.332  0.1179  0.9822 -0.2095
 6864TIP3    H242084   5.795   0.373  13.451  1.7049  2.4180 -1.0841
 6865TIP3   OH242085   0.907   2.089  11.616 -0.7743  0.3373 -0.2553
 6865TIP3    H142086   0.941   2.000  11.627 -0.8076  0.5273  1.4324
 6865TIP3    H242087   0.840   2.080  11.548 -2.1990 -1.3079  1.3163
 6866TIP3   OH242088   2.417   6.355   4.880 -0.1459  0.2458  0.5416
 6866TIP3    H142089   2.329   6.317   4.883 -0.7549  1.6237  0.4089
 6866TIP3    H242090   2.449   6.334   4.792  0.1252 -1.2327  0.9671
 6867TIP3   OH242091   3.682   0.761  16.657  0.2506  0.5079 -0.4712
 6867TIP3    H142092   3.642   0.833  16.609 -0.7153 -0.9807 -1.9517
 6867TIP3    H242093   3.752   0.730  16.599  0.1667 -0.2295 -0.1833
 6868TIP3   OH242094   4.657   2.887  14.973 -0.6066  0.1162 -0.0040
 6868TIP3    H142095   4.563   2.892  14.959 -0.8338  0.6419  1.6299
 6868TIP3    H242096   4.669   2.903  15.067  1.1385  0.5457 -0.2704
 6869TIP3   OH242097   3.208   4.725  12.262 -0.6520 -0.3875 -0.1604
 6869TIP3    H142098   3.156   4.785  12.208  0.4330 -0.6679 -1.5544
 6869TIP3    H242099   3.263   4.782  12.316  0.6123 -0.0888 -1.7123
 6870TIP3   OH242100   4.955   4.976   4.632 -0.5193 -0.0396  0.2251
 6870TIP3    H142101   4.936   4.882   4.636 -0.4408  0.0197  2.6151
 6870TIP3    H242102   5.044   4.982   4.599 -0.7144 -0.7666 -0.4501
 6871TIP3   OH242103   4.540   0.117  14.751 -0.4333  0.4892 -0.2254
 6871TIP3    H142104   4.525   0.023  14.740 -3.1604  0.8452 -0.0101
 6871TIP3    H242105   4.467   0.147  14.805  1.2531  2.4792  1.0438
 6872TIP3   OH242106   1.911   3.876  13.540 -0.4890  0.3804 -0.0164
 6872TIP3    H142107   2.004   3.873  13.518 -0.1447 -0.2405  1.4659
 6872TIP3    H242108   1.881   3.960  13.507  0.2402 -0.0687 -1.8814
 6873TIP3   OH242109   6.251   6.194  17.185  0.2412  0.2235 -0.0185
 6873TIP3    H142110   6.283   6.116  17.230 -0.3889 -1.2068 -1.9782
 6873TIP3    H242111   6.306   6.202  17.108  0.3650  1.7996  0.2098
 6874TIP3   OH242112   3.088   1.284   3.996 -0.3598 -0.3934  0.1711
 6874TIP3    H142113   3.118   1.221   4.062 -0.7625 -2.1863 -1.3335
 6874TIP3    H242114   3.154   1.279   3.927 -0.5690  0.6107 -0.1073
 6875TIP3   OH242115   3.705   1.350   4.995  0.5634  0.3566  0.3997
 6875TIP3    H142116   3.794   1.375   5.020 -0.2882  1.4893  2.4617
 6875TIP3    H242117   3.685   1.274   5.050 -0.4162  1.2760  1.3336
 6876TIP3   OH242118   6.021   6.745  14.992  0.1940  0.0631  0.7730
 6876TIP3    H142119   5.940   6.795  14.991 -1.1386 -1.9064  4.1591
 6876TIP3    H242120   6.090   6.811  14.985 -1.5892  1.9598  0.5113
 6877TIP3   OH242121   1.347   0.827   5.239  0.1853  0.2632  0.0074
 6877TIP3    H142122   1.425   0.775   5.254  0.0504 -0.0947 -0.5140
 6877TIP3    H242123   1.341   0.834   5.143 -0.6943 -0.1339  0.0263
 6878TIP3   OH242124   0.330   0.704  15.342  0.3283 -0.1431 -0.7152
 6878TIP3    H142125   0.350   0.739  15.429 -0.2156  1.6853 -1.3088
 6878TIP3    H242126   0.356   0.773  15.282 -2.7066  0.1370 -1.8115
 6879TIP3   OH242127   2.998   4.011  12.181 -0.7778 -0.7112 -0.5754
 6879TIP3    H142128   3.086   4.009  12.144 -0.8703  0.3925 -0.8785
 6879TIP3    H242129   3.012   4.004  12.276 -0.2433  1.0692 -0.4958
 6880TIP3   OH242130   1.820   5.659  12.944  0.5267 -0.0396  0.3923
 6880TIP3    H142131   1.831   5.672  13.039 -2.3526  0.2810  0.7197
 6880TIP3    H242132   1.769   5.735  12.915 -1.0582 -1.5402 -0.8889
 6881TIP3   OH242133   3.518   6.179  12.431  0.2640  0.1269 -0.5445
 6881TIP3    H142134   3.566   6.199  12.511  2.7905 -0.3202 -1.9078
 6881TIP3    H242135   3.484   6.091  12.445  1.2088 -0.1910 -0.1942
 6882TIP3   OH242136   0.056   3.526  16.483 -0.0808 -0.6443  0.4200
 6882TIP3    H142137   0.092   3.594  16.426 -0.1377 -0.9011  0.0796
 6882TIP3    H242138   0.019   3.461  16.424  0.6971 -1.3765  0.7218
 6883TIP3   OH242139   1.014   2.748  16.046 -0.2482 -0.1556 -0.2623
 6883TIP3    H142140   0.981   2.715  15.962 -0.4180 -0.1256 -0.2073
 6883TIP3    H242141   1.080   2.813  16.021 -1.5037  1.0999 -0.3955
 6884TIP3   OH242142   4.566   4.886   4.473  0.6352 -0.0127  0.1365
 6884TIP3    H142143   4.610   4.802   4.486 -0.5910 -0.3491  2.3142
 6884TIP3    H242144   4.475   4.863   4.455  0.3395  0.8373  0.4932
 6885TIP3   OH242145   5.580   5.751  14.294  0.2651  0.0431  0.6757
 6885TIP3    H142146   5.608   5.663  14.319  0.1521  0.1762  1.2861
 6885TIP3    H242147   5.514   5.774  14.359 -1.7139 -0.5037 -1.0800
 6886TIP3   OH242148   0.906   4.977   2.848  0.0809 -0.4410  0.1493
 6886TIP3    H142149   0.976   4.959   2.911 -0.8059 -1.0565  0.9612
 6886TIP3    H242150   0.829   4.935   2.885 -0.7343  0.2701 -0.7269
 6887TIP3   OH242151   4.275   3.966   3.785 -0.2546  0.5149 -0.1479
 6887TIP3    H142152   4.267   3.880   3.744 -0.5714  0.5303 -0.1160
 6887TIP3    H242153   4.310   4.023   3.715 -0.1148  0.3792 -0.1891
 6888TIP3   OH242154   2.450   0.524   1.371 -0.3154  0.1498 -0.1229
 6888TIP3    H142155   2.502   0.562   1.300  1.3265 -0.2995  0.8147
 6888TIP3    H242156   2.514   0.506   1.440 -1.9550  1.1018  1.6980
 6889TIP3   OH242157   5.609   2.596   2.222  0.0280  0.0864 -0.7650
 6889TIP3    H142158   5.526   2.631   2.256 -0.6069 -0.7279 -1.4402
 6889TIP3    H242159   5.627   2.649   2.144 -0.8734 -0.9880 -1.7216
 6890TIP3   OH242160   4.381   5.080   0.947 -0.2456  0.4719  0.1577
 6890TIP3    H142161   4.447   5.149   0.935  0.3227  0.0109  0.6032
 6890TIP3    H242162   4.432   5.002   0.970 -0.9824  0.2145  0.9317
 6891TIP3   OH242163   0.754   0.738   4.944  0.1380  0.7401 -0.6302
 6891TIP3    H142164   0.698   0.699   4.877 -0.7466 -1.6568  1.3918
 6891TIP3    H242165   0.826   0.675   4.954 -0.2038  0.6294  1.2639
 6892TIP3   OH242166   4.094   5.693   0.481 -0.6415  0.2150 -0.1223
 6892TIP3    H142167   4.009   5.664   0.447 -0.2375 -1.4176  0.2221
 6892TIP3    H242168   4.143   5.612   0.496  0.5161  1.0849  0.8948
 6893TIP3   OH242169   1.604   2.115   5.194  0.4327  0.6263 -0.2002
 6893TIP3    H142170   1.642   2.155   5.116  1.8872 -0.0239  0.1379
 6893TIP3    H242171   1.680   2.086   5.244 -0.4800  1.1804  1.5336
 6894TIP3   OH242172   2.798   2.253   1.492 -0.5428 -0.0088  0.4429
 6894TIP3    H142173   2.887   2.281   1.516 -0.0554 -0.9734 -0.1835
 6894TIP3    H242174   2.751   2.334   1.475  1.0274  0.4779 -1.9615
 6895TIP3   OH242175   1.143   4.085   0.862 -0.4921  0.1180  0.1063
 6895TIP3    H142176   1.156   4.078   0.957  0.9813 -0.7241 -0.1413
 6895TIP3    H242177   1.055   4.120   0.852 -0.5915  0.3671  1.7974
 6896TIP3   OH242178   2.522   6.312  11.701 -0.0289 -0.0441 -0.3917
 6896TIP3    H142179   2.506   6.402  11.730  0.8977  0.2312 -0.7267
 6896TIP3    H242180   2.517   6.316  11.606  2.7723  0.2032 -0.5489
 6897TIP3   OH242181   5.672   1.678   3.086 -0.0927 -0.0562  0.1693
 6897TIP3    H142182   5.621   1.610   3.043 -0.6669  0.0808  0.6354
 6897TIP3    H242183   5.616   1.709   3.156  0.4520  0.4097  0.3982
 6898TIP3   OH242184   1.791   3.126   3.534 -0.0757  0.3762 -0.0412
 6898TIP3    H142185   1.881   3.148   3.555  0.8474  0.8827 -4.1016
 6898TIP3    H242186   1.791   3.031   3.520 -0.0693  0.4242 -0.3836
 6899TIP3   OH242187   2.795   3.241   5.450  0.2420 -0.2315  0.6030
 6899TIP3    H142188   2.723   3.202   5.499 -1.4384  0.8093 -0.9601
 6899TIP3    H242189   2.787   3.335   5.467  0.9218 -0.0722  0.0519
 6900TIP3   OH242190   1.101   5.405  11.578 -0.2223  0.4371 -0.3206
 6900TIP3    H142191   1.020   5.371  11.615 -0.5809 -0.6282 -2.0389
 6900TIP3    H242192   1.170   5.368  11.634 -0.8638  0.5236  0.5272
 6901TIP3   OH242193   2.674   6.425   3.655 -0.6699  0.5659 -0.5084
 6901TIP3    H142194   2.752   6.475   3.634 -1.9249  1.4678 -3.3667
 6901TIP3    H242195   2.684   6.344   3.605 -1.1699  0.3292 -0.2284
 6902TIP3   OH242196   3.052   2.160  16.998 -0.3495 -0.1825  0.0569
 6902TIP3    H142197   2.961   2.188  16.988 -0.2456 -0.0308 -0.4541
 6902TIP3    H242198   3.098   2.238  17.030  0.1401  0.5685 -2.3278
 6903TIP3   OH242199   2.337   3.048   2.565 -0.0107  0.8604  0.1554
 6903TIP3    H142200   2.380   3.020   2.484  0.4178 -0.2275  0.7344
 6903TIP3    H242201   2.385   3.126   2.592  1.8103 -0.4638  0.9084
 6904TIP3   OH242202   0.712   5.706  13.420 -0.1946 -0.4983  0.1838
 6904TIP3    H142203   0.692   5.772  13.486 -1.9127 -0.7126 -0.1067
 6904TIP3    H242204   0.765   5.641  13.466  0.5815  0.5276  0.7479
 6905TIP3   OH242205   4.348   5.880   3.350  0.1602  0.7288  0.4808
 6905TIP3    H142206   4.347   5.937   3.426 -0.4143  1.9323 -0.4045
 6905TIP3    H242207   4.441   5.864   3.333  0.3373  1.6383  0.5707
 6906TIP3   OH242208   4.849   4.136   3.767  0.8173 -0.1624  0.0891
 6906TIP3    H142209   4.832   4.214   3.714  1.1513  0.1072  0.3738
 6906TIP3    H242210   4.786   4.071   3.736  0.3808  0.2956  0.0122
 6907TIP3   OH242211   4.324   4.767  11.919 -0.0362 -0.9944 -0.3714
 6907TIP3    H142212   4.389   4.717  11.870 -0.1099 -0.0835 -1.4244
 6907TIP3    H242213   4.371   4.845  11.948 -0.2975 -0.9903  0.0371
 6908TIP3   OH242214   1.337   1.167  15.761 -0.6715 -0.0089 -0.7186
 6908TIP3    H142215   1.340   1.239  15.697 -1.5925 -0.2328 -1.0142
 6908TIP3    H242216   1.416   1.117  15.742 -0.8631  0.0045 -1.5999
 6909TIP3   OH242217   6.653   2.721  11.865 -1.0654 -0.6770  0.0865
 6909TIP3    H142218   6.712   2.665  11.915 -2.3180 -0.1144  2.2469
 6909TIP3    H242219   6.579   2.665  11.842 -0.7425 -0.7918 -0.6973
 6910TIP3   OH242220   5.008   5.198   0.768 -0.0430  0.3241  0.4414
 6910TIP3    H142221   5.004   5.257   0.692  0.7820  0.7427  0.7178
 6910TIP3    H242222   5.038   5.115   0.732 -0.7699  0.1961  0.1228
 6911TIP3   OH242223   1.392   5.779   3.362  0.1666  0.6255 -0.6606
 6911TIP3    H142224   1.356   5.743   3.281 -1.2213 -0.1912  0.2875
 6911TIP3    H242225   1.335   5.743   3.431  1.1369  1.5481  0.6388
 6912TIP3   OH242226   4.355   5.584  14.019  0.0886  0.4264 -0.0236
 6912TIP3    H142227   4.304   5.665  14.011 -0.1176  0.4185  1.1411
 6912TIP3    H242228   4.390   5.586  14.108  1.0247 -0.2211 -0.3687
 6913TIP3   OH242229   0.015   4.884   3.725  0.2480 -0.0868 -0.1326
 6913TIP3    H142230  -0.003   4.947   3.794 -0.6754 -1.2934  0.7370
 6913TIP3    H242231  -0.063   4.829   3.721  1.7577 -2.3266  0.3723
 6914TIP3   OH242232   1.885   0.911  12.923  0.0093  0.1845 -0.8517
 6914TIP3    H142233   1.844   0.995  12.942 -0.4955 -0.3354  0.4677
 6914TIP3    H242234   1.930   0.888  13.005  0.0040 -0.8972 -1.1467
 6915TIP3   OH242235   6.528   0.241  12.575  0.0314 -0.4540  0.8075
 6915TIP3    H142236   6.573   0.321  12.603  1.1652 -1.0054  0.5913
 6915TIP3    H242237   6.528   0.185  12.652 -2.3555  0.4160  1.5024
 6916TIP3   OH242238   5.288   1.862  16.672 -0.2109  0.9720 -0.2750
 6916TIP3    H142239   5.371   1.841  16.629 -0.3732 -0.0144 -0.1039
 6916TIP3    H242240   5.240   1.779  16.675 -0.5078  1.1908  1.1548
 6917TIP3   OH242241   0.074   0.744   3.404 -0.5549 -0.0635  0.0173
 6917TIP3    H142242   0.057   0.795   3.324 -1.4512 -0.8539 -0.3068
 6917TIP3    H242243  -0.004   0.758   3.458 -0.0225  0.3381  0.6923
 6918TIP3   OH242244   5.730   0.290  11.570 -0.7684  0.9399  0.0483
 6918TIP3    H142245   5.731   0.331  11.657 -0.0258  0.7361  0.1474
 6918TIP3    H242246   5.689   0.355  11.513  0.3550  1.8240  0.2130
 6919TIP3   OH242247   3.136   4.607   0.633  0.9237 -0.1342 -0.2471
 6919TIP3    H142248   3.051   4.650   0.646 -0.4555 -2.5515 -0.9417
 6919TIP3    H242249   3.148   4.605   0.538  0.7555 -1.6425 -0.2447
 6920TIP3   OH242250   3.596   2.786   2.805  0.1176 -0.1700  0.1295
 6920TIP3    H142251   3.505   2.765   2.825  0.6417 -1.8131  0.8859
 6920TIP3    H242252   3.638   2.794   2.891  1.2922 -2.2703 -0.2282
 6921TIP3   OH242253   4.635   0.487   4.180  0.7556 -0.0961 -0.0892
 6921TIP3    H142254   4.654   0.399   4.213 -0.6383 -0.8705 -1.2766
 6921TIP3    H242255   4.683   0.546   4.238  0.8852 -1.5928  1.3514
 6922TIP3   OH242256   3.171   2.686  15.191 -0.1729 -0.4760 -0.4958
 6922TIP3    H142257   3.220   2.610  15.222  1.1679  0.7738  0.4552
 6922TIP3    H242258   3.224   2.721  15.119 -0.3336  0.1103 -0.3278
 6923TIP3   OH242259   4.529   3.891  16.127 -0.3385  0.3307 -0.7571
 6923TIP3    H142260   4.438   3.903  16.153 -0.0525  1.1744 -0.0911
 6923TIP3    H242261   4.539   3.942  16.047 -0.2803  0.8578 -0.4230
 6924TIP3   OH242262   2.768   4.639   6.099 -0.0624  0.0669  0.1964
 6924TIP3    H142263   2.710   4.710   6.128  1.0084  0.8155  0.5413
 6924TIP3    H242264   2.794   4.665   6.010  0.3139  0.0996  0.3154
 6925TIP3   OH242265   5.818   4.513   5.588  0.1006 -0.1039 -0.3183
 6925TIP3    H142266   5.742   4.571   5.589 -0.6220 -0.9858 -2.0578
 6925TIP3    H242267   5.875   4.546   5.658 -1.2805  1.3610  0.1295
 6926TIP3   OH242268   3.616   0.716  14.763  0.0863 -0.2309 -0.2292
 6926TIP3    H142269   3.605   0.800  14.717  1.0412  1.0035  1.7264
 6926TIP3    H242270   3.703   0.687  14.737  0.2315 -0.0216  0.0204
 6927TIP3   OH242271   5.583   6.601  17.221 -0.4377  0.1695 -0.2331
 6927TIP3    H142272   5.624   6.516  17.204 -1.5366 -0.3821 -0.1775
 6927TIP3    H242273   5.547   6.627  17.136  0.2723  0.7837 -0.3414
 6928TIP3   OH242274   1.046   6.523   0.906 -0.1068  0.0362 -0.0332
 6928TIP3    H142275   1.097   6.483   0.835 -0.3952  0.6162 -0.5684
 6928TIP3    H242276   1.006   6.448   0.951  1.6499 -0.4677  0.7367
 6929TIP3   OH242277   6.714   5.940   3.491 -1.0858 -0.5093 -0.1544
 6929TIP3    H142278   6.673   5.875   3.434 -0.9677 -0.6107 -0.1239
 6929TIP3    H242279   6.733   5.892   3.572  1.2689 -1.1165 -1.0051
 6930TIP3   OH242280   5.930   2.941   4.936  0.1585 -0.1091 -0.0586
 6930TIP3    H142281   5.887   2.939   4.851  2.0874  0.5270 -1.0731
 6930TIP3    H242282   6.015   2.982   4.920  0.3798  0.4508  2.2544
 6931TIP3   OH242283   2.545   3.505  15.658 -0.4009 -0.3161 -0.2082
 6931TIP3    H142284   2.492   3.494  15.579 -0.3309 -0.3012 -0.2565
 6931TIP3    H242285   2.482   3.511  15.729 -0.5678  1.9557 -0.5038
 6932TIP3   OH242286   6.007   0.288  10.602 -0.1706 -0.2900  0.3160
 6932TIP3    H142287   5.955   0.208  10.612 -0.4071  0.1783  3.4672
 6932TIP3    H242288   5.966   0.350  10.662  1.9357  1.1914  0.2650
 6933TIP3   OH242289   5.731   2.662  17.240 -0.0392 -0.1144 -0.5428
 6933TIP3    H142290   5.647   2.696  17.208 -0.5649 -0.7977  0.0859
 6933TIP3    H242291   5.788   2.739  17.244 -0.7284  0.4092 -0.6771
 6934TIP3   OH242292   3.575   5.722  15.486 -0.3863  0.1705 -0.1588
 6934TIP3    H142293   3.506   5.753  15.427 -0.1114  3.7363  1.2723
 6934TIP3    H242294   3.527   5.687  15.562 -0.6476  0.2591 -0.2806
 6935TIP3   OH242295   3.937   4.078   1.746  0.5519 -0.4315 -0.2206
 6935TIP3    H142296   3.994   4.001   1.736 -1.9628 -2.6481  1.8962
 6935TIP3    H242297   3.852   4.049   1.713 -0.5583  1.2571  1.0940
 6936TIP3   OH242298   5.591   1.284  14.803  0.2209  0.5473 -0.1969
 6936TIP3    H142299   5.586   1.194  14.771 -0.1887 -0.3320  2.2090
 6936TIP3    H242300   5.654   1.280  14.875 -0.3001  2.0427  0.3594
 6937TIP3   OH242301   2.073   3.935  12.561  0.4333 -0.3933 -0.2681
 6937TIP3    H142302   2.163   3.904  12.551  0.3081 -0.5752 -0.8382
 6937TIP3    H242303   2.028   3.865  12.609  1.1211  0.6362  1.9406
 6938TIP3   OH242304   4.161   0.569  16.022  0.0992 -0.3410 -1.0390
 6938TIP3    H142305   4.249   0.604  16.036  0.5653 -2.4966  1.9307
 6938TIP3    H242306   4.175   0.475  16.006 -1.6976 -0.9535  0.7824
 6939TIP3   OH242307   3.449   4.472  12.603 -0.3294 -0.0395  0.1026
 6939TIP3    H142308   3.503   4.481  12.524 -1.4937 -0.8784 -0.8162
 6939TIP3    H242309   3.385   4.404  12.580 -1.0003  0.0730  1.5951
 6940TIP3   OH242310   3.712   3.879  16.704  0.2350  0.0191 -0.2299
 6940TIP3    H142311   3.679   3.827  16.777  0.2213  0.7055  0.2657
 6940TIP3    H242312   3.656   3.856  16.630 -0.6663  0.3567  0.3347
 6941TIP3   OH242313   3.125   6.032  14.474 -0.4515 -0.1979  0.1416
 6941TIP3    H142314   3.084   6.099  14.528 -0.0262 -0.1833  0.4517
 6941TIP3    H242315   3.184   5.986  14.534  0.4271  0.1689 -0.4226
 6942TIP3   OH242316   5.573   4.095  10.922  0.3052  0.1381  0.5789
 6942TIP3    H142317   5.603   4.023  10.865  1.2843 -2.5163  4.2427
 6942TIP3    H242318   5.648   4.153  10.928  0.7920 -0.4809  0.5555
 6943TIP3   OH242319   6.521   1.194  14.674  0.0388  0.3096 -0.1197
 6943TIP3    H142320   6.562   1.251  14.609 -0.1283 -0.4088 -0.8677
 6943TIP3    H242321   6.529   1.106  14.638  2.3821 -0.4445  2.1295
 6944TIP3   OH242322   2.561   2.066   1.285  0.1432 -0.4759 -0.7396
 6944TIP3    H142323   2.650   2.074   1.318 -0.6464  2.9143  0.8085
 6944TIP3    H242324   2.533   1.979   1.311  2.6512 -1.2249 -0.4150
 6945TIP3   OH242325   2.909   3.281  13.854  0.2481 -0.1593  0.0448
 6945TIP3    H142326   2.952   3.359  13.820 -0.8312  1.4114  2.2104
 6945TIP3    H242327   2.981   3.229  13.892  1.1974 -1.0694 -2.8760
 6946TIP3   OH242328   1.104   6.051  14.045  0.1204 -0.0195  0.2302
 6946TIP3    H142329   1.070   6.116  13.984  0.8703  1.2395  1.1279
 6946TIP3    H242330   1.088   5.967  14.003  0.1167  0.8065 -1.4295
 6947TIP3   OH242331   6.150   6.033   3.370 -0.1704  0.2771  0.5565
 6947TIP3    H142332   6.164   6.072   3.456  1.8032 -0.2503  0.5032
 6947TIP3    H242333   6.064   6.064   3.343  0.1061  2.2058  1.7812
 6948TIP3   OH242334   1.936   6.613  15.624  0.2092 -0.2823 -0.6322
 6948TIP3    H142335   1.883   6.588  15.549 -0.2465  0.1311 -0.4474
 6948TIP3    H242336   1.904   6.558  15.695 -2.7510  2.7558  0.5005
 6949TIP3   OH242337   2.309   4.886  11.902  0.5691 -0.1419 -0.2217
 6949TIP3    H142338   2.348   4.819  11.847  0.6382 -2.6282  2.7291
 6949TIP3    H242339   2.352   4.877  11.987 -1.3755  1.7956  1.0505
 6950TIP3   OH242340   4.747   2.813  15.888  0.3423 -0.0092  0.2133
 6950TIP3    H142341   4.801   2.864  15.947  0.4381  0.4874 -0.3060
 6950TIP3    H242342   4.692   2.760  15.946  0.8773  0.0120  0.7398
 6951TIP3   OH242343   4.640   2.122  16.852 -0.0680 -0.2815 -0.1091
 6951TIP3    H142344   4.624   2.033  16.883  0.2373 -0.3834 -0.2359
 6951TIP3    H242345   4.678   2.168  16.927  1.3024 -0.7137 -0.5163
 6952TIP3   OH242346   2.899   2.539  13.960 -0.1543  0.0692 -0.2917
 6952TIP3    H142347   2.928   2.471  13.899 -1.4844 -0.0402 -0.8223
 6952TIP3    H242348   2.880   2.492  14.041  1.5199  0.1990  0.1843
 6953TIP3   OH242349   5.865   5.744   3.856  0.2758 -0.6157  0.1469
 6953TIP3    H142350   5.782   5.711   3.820 -0.0576 -2.4087  2.3730
 6953TIP3    H242351   5.842   5.774   3.944  2.0579 -1.5099  0.9457
 6954TIP3   OH242352   4.025   3.678   3.796  0.4665  0.3041  0.6203
 6954TIP3    H142353   4.118   3.695   3.814  0.6986 -0.2519 -0.0321
 6954TIP3    H242354   4.001   3.743   3.730  0.4959  0.1781  0.4871
 6955TIP3   OH242355   3.933   2.450  11.883 -0.3567 -0.1697 -0.4719
 6955TIP3    H142356   3.944   2.434  11.789  0.9662  3.1460 -0.9485
 6955TIP3    H242357   3.916   2.363  11.920  1.9478 -1.9628 -3.3777
 6956TIP3   OH242358   6.264   1.397  11.279  0.5294 -0.2029 -0.4734
 6956TIP3    H142359   6.204   1.325  11.261 -0.4724  0.8200 -1.3208
 6956TIP3    H242360   6.348   1.369  11.240  0.2352 -1.0489 -0.4971
 6957TIP3   OH242361   0.075   1.154  15.016 -0.3467 -0.4751 -0.0636
 6957TIP3    H142362   0.092   1.107  15.098 -1.1247  1.7524  1.4355
 6957TIP3    H242363  -0.021   1.155  15.009 -0.2938 -0.2464 -0.7670
 6958TIP3   OH242364   6.224   1.749  10.391 -0.1469  0.1972  0.0121
 6958TIP3    H142365   6.141   1.701  10.403 -0.2153  0.6241  1.3597
 6958TIP3    H242366   6.200   1.823  10.336 -1.0038  1.1457  1.6152
 6959TIP3   OH242367   3.039   6.075   4.082  0.7028 -0.9444 -0.5170
 6959TIP3    H142368   3.082   6.146   4.130 -1.0457 -0.8067  0.8700
 6959TIP3    H242369   3.105   6.006   4.078  0.5253 -1.3870  3.0373
 6960TIP3   OH242370   1.728   6.186   4.939  0.3733 -0.7668 -0.2638
 6960TIP3    H142371   1.766   6.099   4.929 -0.5644 -1.1467 -0.5581
 6960TIP3    H242372   1.656   6.188   4.877  1.3294  0.7722 -1.3586
 6961TIP3   OH242373   3.024   5.040  15.372 -0.1336  0.4726 -0.0090
 6961TIP3    H142374   2.976   5.011  15.450  1.6046  0.2290  0.9902
 6961TIP3    H242375   3.057   5.127  15.395 -1.0071  1.1011 -1.1007
 6962TIP3   OH242376   1.653   5.904   2.759  0.7318 -0.1559 -0.2902
 6962TIP3    H142377   1.711   5.828   2.770  1.2980  0.5264  1.5313
 6962TIP3    H242378   1.705   5.978   2.790 -0.5721  0.6949 -0.1277
 6963TIP3   OH242379   5.231   2.255   5.774  0.0036  0.4251 -0.5977
 6963TIP3    H142380   5.265   2.257   5.684  0.4290 -0.6762 -0.4700
 6963TIP3    H242381   5.166   2.185   5.773  0.3629  0.0781  0.0751
 6964TIP3   OH242382   6.523   3.336   6.573 -1.1750 -0.1894 -0.0826
 6964TIP3    H142383   6.496   3.409   6.628 -0.5452 -0.9946  1.3338
 6964TIP3    H242384   6.445   3.280   6.566 -0.9143 -0.7141  1.0494
 6965TIP3   OH242385   4.416   6.178   3.047  0.3826  0.3214 -0.0807
 6965TIP3    H142386   4.436   6.137   3.131  1.6427  0.2621 -0.3994
 6965TIP3    H242387   4.418   6.272   3.065  1.4132  0.3267 -0.2079
 6966TIP3   OH242388   4.114   3.326  15.873 -0.0069  0.0151 -0.3110
 6966TIP3    H142389   4.185   3.264  15.890 -1.1366 -0.8691  1.3490
 6966TIP3    H242390   4.065   3.288  15.801  0.1020 -0.3500 -0.1937
 6967TIP3   OH242391   5.929   0.722   3.375 -0.5464  0.5893 -0.2008
 6967TIP3    H142392   5.913   0.816   3.383  0.2870  0.8197 -1.2281
 6967TIP3    H242393   5.855   0.689   3.325 -0.2119  0.9051 -0.9099
 6968TIP3   OH242394   0.921   3.859   6.094 -0.1421 -0.2407 -0.1658
 6968TIP3    H142395   0.846   3.804   6.071 -0.2935 -0.3444  0.5557
 6968TIP3    H242396   0.933   3.845   6.188 -0.0734  0.8207 -0.0102
 6969TIP3   OH242397   4.617   3.461   5.132  0.4800  0.1529  0.5306
 6969TIP3    H142398   4.616   3.553   5.159  0.8475  0.5751 -0.8296
 6969TIP3    H242399   4.707   3.446   5.101  0.7334 -0.9824  1.7838
 6970TIP3   OH242400   4.486   2.222   1.934 -0.3584  0.2390  0.1722
 6970TIP3    H142401   4.533   2.139   1.942  0.8725  0.9710  0.7075
 6970TIP3    H242402   4.490   2.261   2.021  1.7359  2.2430 -0.7741
 6971TIP3   OH242403   2.496   4.784  16.512 -0.1216  1.1102 -0.0026
 6971TIP3    H142404   2.532   4.731  16.584 -0.3486  0.3250 -0.4638
 6971TIP3    H242405   2.442   4.850  16.556  0.3982  1.1466  0.5925
 6972TIP3   OH242406   3.785   6.575   3.577  0.1586 -0.2884  0.0118
 6972TIP3    H142407   3.815   6.642   3.515  1.9527 -0.2906  0.8545
 6972TIP3    H242408   3.848   6.504   3.568 -0.3351 -0.8451  0.8986
 6973TIP3   OH242409   5.522   5.531   1.564 -0.0643 -0.1396  0.3811
 6973TIP3    H142410   5.603   5.502   1.604  1.1575  1.8575 -0.5653
 6973TIP3    H242411   5.542   5.538   1.470 -0.7161  2.1759  0.3715
 6974TIP3   OH242412   1.906   6.755   2.465  0.7221 -0.0265 -0.5355
 6974TIP3    H142413   1.926   6.798   2.382  0.4558 -0.7254 -0.9633
 6974TIP3    H242414   1.861   6.822   2.516  0.5845  0.3016 -1.0790
 6975TIP3   OH242415   6.417   0.679   3.554 -0.0753 -0.7213 -0.1658
 6975TIP3    H142416   6.342   0.734   3.528 -0.0938 -0.7113 -0.0907
 6975TIP3    H242417   6.492   0.737   3.549  0.1292 -1.0971 -1.6117
 6976TIP3   OH242418   5.437   2.438   1.315 -0.4042 -0.3081  0.0035
 6976TIP3    H142419   5.511   2.412   1.370  0.6469  1.7422 -0.3781
 6976TIP3    H242420   5.476   2.449   1.228 -1.6585 -1.6175 -0.7198
 6977TIP3   OH242421   0.049   5.484   0.321 -0.3161  0.0139 -0.0254
 6977TIP3    H142422   0.013   5.446   0.402  1.6393 -1.3657  0.2357
 6977TIP3    H242423   0.055   5.578   0.339 -1.2314 -0.0990  0.9049
 6978TIP3   OH242424   0.081   3.093  14.591 -0.6628 -0.1875  0.2887
 6978TIP3    H142425   0.008   3.128  14.540 -0.8162  0.4320  0.9244
 6978TIP3    H242426   0.059   3.001  14.604 -0.4788 -0.4163 -1.0166
 6979TIP3   OH242427   4.328   1.835  15.284 -0.1607 -0.8323  0.1996
 6979TIP3    H142428   4.245   1.798  15.253  0.1903 -2.8751  1.6419
 6979TIP3    H242429   4.351   1.900  15.217 -1.7488 -1.8553 -1.3913
 6980TIP3   OH242430   5.728   3.907  12.829  0.1045 -0.2670  0.2797
 6980TIP3    H142431   5.733   3.977  12.764  0.6171  0.5651  1.1924
 6980TIP3    H242432   5.634   3.888  12.836 -0.1402  0.9843  0.6787
 6981TIP3   OH242433   1.664   5.983  16.933  0.2906  0.7143 -0.7089
 6981TIP3    H142434   1.657   6.031  17.016 -0.7079 -0.7928  0.0996
 6981TIP3    H242435   1.716   5.906  16.954  0.3953  0.5373 -1.5967
 6982TIP3   OH242436   1.751   4.373  14.920  0.0549 -0.2748  0.3071
 6982TIP3    H142437   1.672   4.354  14.870  0.4905  0.6974 -0.7798
 6982TIP3    H242438   1.790   4.287  14.936  0.1840 -0.5715 -1.5032
 6983TIP3   OH242439   2.150   3.687   5.609 -0.8219 -0.0141  0.1689
 6983TIP3    H142440   2.238   3.703   5.644 -0.1606 -2.2870 -0.3979
 6983TIP3    H242441   2.094   3.680   5.686 -0.4916  1.2986  0.5372
 6984TIP3   OH242442   5.605   4.607   0.565 -0.1043  0.3013 -0.5154
 6984TIP3    H142443   5.691   4.617   0.607 -0.3079  0.1794 -0.0700
 6984TIP3    H242444   5.599   4.681   0.505  0.0152  0.7049 -0.0311
 6985TIP3   OH242445   6.264   2.039   5.324  0.7682 -0.2397 -0.3669
 6985TIP3    H142446   6.280   1.951   5.360 -1.7536 -1.3989 -1.9002
 6985TIP3    H242447   6.265   2.026   5.229 -0.2131  1.2703 -0.5892
 6986TIP3   OH242448   0.668   3.692   6.073  0.4322 -0.6143 -0.0091
 6986TIP3    H142449   0.721   3.649   6.140 -0.1275  0.8881  1.4591
 6986TIP3    H242450   0.582   3.650   6.079  0.7742 -1.4225 -0.7440
 6987TIP3   OH242451   3.453   0.548   0.521  0.0828  0.0332 -0.1532
 6987TIP3    H142452   3.519   0.494   0.566 -0.6542 -0.7652 -0.0122
 6987TIP3    H242453   3.446   0.509   0.434 -0.2192  0.0981 -0.1583
 6988TIP3   OH242454   5.653   6.400  12.087  0.4008 -0.6258 -0.1882
 6988TIP3    H142455   5.561   6.424  12.096 -0.0123 -2.0904 -0.2882
 6988TIP3    H242456   5.651   6.317  12.040  1.7161 -1.1217  0.6092
 6989TIP3   OH242457   6.620   3.032  10.854 -0.0779  0.5186 -0.2046
 6989TIP3    H142458   6.597   3.013  10.763  0.1901 -1.0114  0.0276
 6989TIP3    H242459   6.579   2.961  10.904  0.9873  0.5241  0.7054
 6990TIP3   OH242460   4.725   6.559   4.499  0.2191 -0.1169 -0.3802
 6990TIP3    H142461   4.783   6.582   4.572 -0.0737 -0.7163  0.0528
 6990TIP3    H242462   4.781   6.511   4.438  0.6177  0.9567 -0.8651
 6991TIP3   OH242463   2.712   6.594   3.983  0.3223  0.0803  0.0930
 6991TIP3    H142464   2.755   6.647   3.916 -1.9547  1.6032 -0.2161
 6991TIP3    H242465   2.626   6.573   3.947  0.4409 -2.1758  1.0474
 6992TIP3   OH242466   0.153   4.379   4.032  0.0015 -0.5003 -0.1746
 6992TIP3    H142467   0.199   4.463   4.028  0.3956 -0.7043  0.0140
 6992TIP3    H242468   0.107   4.380   4.115 -0.2152 -0.3580 -0.2959
 6993TIP3   OH242469   3.625   4.662  13.031  0.0820  0.1365 -0.1614
 6993TIP3    H142470   3.561   4.733  13.033 -0.6367 -0.5163  1.4271
 6993TIP3    H242471   3.574   4.585  13.004  1.0466  0.3892 -2.7806
 6994TIP3   OH242472   4.613   0.989  16.162 -0.3757 -0.6721 -0.3675
 6994TIP3    H142473   4.673   0.914  16.166  1.6819  0.9120 -0.5150
 6994TIP3    H242474   4.553   0.975  16.235  0.3886 -2.1220  0.0074
 6995TIP3   OH242475   4.751   4.301  14.842  0.1910  0.0504  0.1520
 6995TIP3    H142476   4.843   4.286  14.824 -0.3010 -1.2498 -1.3818
 6995TIP3    H242477   4.742   4.288  14.937  0.8498 -3.8573 -0.2588
 6996TIP3   OH242478   3.637   2.760  14.980 -0.3138 -0.1304  0.4363
 6996TIP3    H142479   3.690   2.680  14.982 -0.4459 -0.1966  1.4392
 6996TIP3    H242480   3.669   2.807  14.903  0.5090 -0.6466  0.4510
 6997TIP3   OH242481   6.414   3.562   6.683 -0.0495 -0.1986 -0.3890
 6997TIP3    H142482   6.349   3.616   6.640  0.8350  1.2675  0.0543
 6997TIP3    H242483   6.493   3.616   6.684  1.9080 -2.8352 -3.1040
 6998TIP3   OH242484   1.201   6.798  15.110 -0.2388 -0.4467  0.1733
 6998TIP3    H142485   1.115   6.816  15.072  0.0750 -0.4663 -0.5446
 6998TIP3    H242486   1.262   6.845  15.054  0.3523 -1.6341 -0.1835
 6999TIP3   OH242487   4.967   2.263  15.390 -0.0845  0.0470 -0.5789
 6999TIP3    H142488   4.946   2.200  15.459 -0.0054  1.0996  0.4339
 6999TIP3    H242489   4.888   2.316  15.380  0.0201  0.1157 -1.0670
 7000TIP3   OH242490   1.629   5.483   5.398  0.3349 -0.0277  0.1181
 7000TIP3    H142491   1.668   5.410   5.350  1.3411  0.4270  0.2249
 7000TIP3    H242492   1.586   5.442   5.473  1.2820 -0.4702  0.4239
 7001TIP3   OH242493   0.598   0.325  14.845 -0.5345 -0.1630  0.2188
 7001TIP3    H142494   0.598   0.411  14.803  0.3531  0.4981  1.5254
 7001TIP3    H242495   0.532   0.275  14.797 -0.9899  1.2040 -0.6265
 7002TIP3   OH242496   1.842   4.427   0.203  0.2035 -0.3699 -0.7246
 7002TIP3    H142497   1.818   4.488   0.273  0.1621 -0.6169 -0.5211
 7002TIP3    H242498   1.925   4.389   0.232 -0.4132 -1.3728 -0.2143
 7003TIP3   OH242499   3.526   2.378   1.695 -0.2173 -0.7437  0.4992
 7003TIP3    H142500   3.480   2.341   1.619  2.3978  0.2515 -1.6286
 7003TIP3    H242501   3.508   2.472   1.690  1.2440 -0.4699  0.1896
 7004TIP3   OH242502   4.471   4.430  13.203  0.7126  0.6547  0.7226
 7004TIP3    H142503   4.509   4.362  13.148  1.3789  0.3175  1.5949
 7004TIP3    H242504   4.376   4.414  13.200  0.8426 -0.0848  0.6554
 7005TIP3   OH242505   5.029   2.200   4.854  0.1806  0.2251 -0.2748
 7005TIP3    H142506   5.119   2.206   4.886  0.4104 -0.5714 -0.7608
 7005TIP3    H242507   5.013   2.106   4.845 -0.7650  0.3550 -0.0123
 7006TIP3   OH242508   0.213   5.194  15.367  0.1254 -0.2358  0.2708
 7006TIP3    H142509   0.131   5.149  15.385 -0.5238  0.9006  0.1909
 7006TIP3    H242510   0.219   5.261  15.435 -0.4049  1.5238 -1.3794
 7007TIP3   OH242511   5.821   4.845   0.526  0.6043  0.0979  0.2762
 7007TIP3    H142512   5.826   4.787   0.602  0.2018 -1.0994 -0.5877
 7007TIP3    H242513   5.875   4.920   0.549  2.9035 -1.6089  0.5776
 7008TIP3   OH242514   2.481   6.788  16.975 -0.3828  0.1588  0.2625
 7008TIP3    H142515   2.501   6.727  17.046  0.1411  0.7387  0.6209
 7008TIP3    H242516   2.502   6.874  17.011  1.2539  0.3496 -1.0492
 7009TIP3   OH242517   4.067   3.761  13.881 -0.2683  0.1014  0.3819
 7009TIP3    H142518   3.996   3.720  13.929 -0.9756  0.5635 -0.2677
 7009TIP3    H242519   4.119   3.806  13.948 -1.4312  1.0131  0.6887
 7010TIP3   OH242520   4.232   1.285  12.972 -0.1973 -0.3904 -0.2771
 7010TIP3    H142521   4.313   1.316  13.013 -1.2174 -1.0694  2.3903
 7010TIP3    H242522   4.249   1.194  12.950  0.4210  0.0306 -1.5900
 7011TIP3   OH242523   6.656   4.394   2.012 -0.5671  0.3441 -0.0238
 7011TIP3    H142524   6.645   4.310   1.967  0.2327  1.0477 -1.5956
 7011TIP3    H242525   6.595   4.391   2.085 -0.9733 -1.3654 -0.4183
 7012TIP3   OH242526   5.996   4.233   3.220  0.6058 -0.2611 -0.3013
 7012TIP3    H142527   6.068   4.213   3.280  0.0921 -0.0669  0.3831
 7012TIP3    H242528   5.975   4.325   3.238  0.7418 -0.0777 -1.0843
 7013TIP3   OH242529   1.335   4.518  12.835 -0.0530 -0.1450  0.0527
 7013TIP3    H142530   1.396   4.454  12.869  0.7101  0.8574  0.5919
 7013TIP3    H242531   1.257   4.467  12.812  0.1391 -1.1105  1.4703
 7014TIP3   OH242532   3.800   3.802  14.609 -0.3759  0.0166  0.6514
 7014TIP3    H142533   3.809   3.711  14.638  1.5618 -0.1746 -0.4557
 7014TIP3    H242534   3.812   3.798  14.514  0.5782  1.5445  0.7021
 7015TIP3   OH242535   3.001   0.157  14.960  0.2842  0.0894 -0.2252
 7015TIP3    H142536   3.048   0.075  14.947 -0.9597 -0.5983 -0.4556
 7015TIP3    H242537   2.922   0.147  14.908 -0.1224  1.2286  0.1684
 7016TIP3   OH242538   1.638   0.012   5.642 -0.4063  0.1115 -0.6245
 7016TIP3    H142539   1.689   0.091   5.625 -2.4179  1.2215 -1.7351
 7016TIP3    H242540   1.682  -0.056   5.591  0.8816  0.6793 -0.2932
 7017TIP3   OH242541   5.758   0.860   3.737 -0.1986 -0.0246  0.6531
 7017TIP3    H142542   5.840   0.811   3.730 -0.8131 -1.3328  2.1284
 7017TIP3    H242543   5.697   0.812   3.681  0.5357  2.1387 -2.0959
 7018TIP3   OH242544   6.117   3.874   3.491  0.3010  0.1142  0.0511
 7018TIP3    H142545   6.205   3.842   3.472  0.1436 -0.8399  0.8738
 7018TIP3    H242546   6.119   3.898   3.584 -0.2869  0.1386  0.0623
 7019TIP3   OH242547   4.320   1.669   1.964  0.2299 -0.1573  0.5300
 7019TIP3    H142548   4.378   1.640   1.893 -1.5896  0.6180 -1.3412
 7019TIP3    H242549   4.352   1.756   1.987 -0.9079  0.7854 -1.3573
 7020TIP3   OH242550   0.017   3.996  14.083  0.0422  0.4389 -0.3284
 7020TIP3    H142551   0.084   3.937  14.118  0.1388 -0.1048 -1.3802
 7020TIP3    H242552   0.057   4.083  14.087  1.0421  0.0538 -1.4341
 7021TIP3   OH242553   4.144   2.400  12.364  0.4957  0.6912  0.2329
 7021TIP3    H142554   4.167   2.348  12.441  1.4999  1.1896  0.2866
 7021TIP3    H242555   4.075   2.458  12.395  1.9255  1.9277  1.2013
 7022TIP3   OH242556   1.929   5.313  14.793  0.0238 -0.5219  0.1893
 7022TIP3    H142557   1.994   5.368  14.836  1.2602 -0.9331 -1.1173
 7022TIP3    H242558   1.847   5.361  14.802  0.8643  0.9587  0.1418
 7023TIP3   OH242559   5.292   2.261  10.482  0.0644 -0.3387 -0.0131
 7023TIP3    H142560   5.303   2.296  10.394 -0.7269 -0.0636 -0.0025
 7023TIP3    H242561   5.340   2.178  10.481 -0.9801 -0.9492 -1.0876
 7024TIP3   OH242562   2.570   6.014  13.512 -0.3197  0.2245 -0.3922
 7024TIP3    H142563   2.600   6.006  13.422 -1.7068 -3.0722 -0.6336
 7024TIP3    H242564   2.474   6.012  13.506 -0.4314  0.4779  1.1232
 7025TIP3   OH242565   5.704   4.294  15.708  0.2888  0.1940  0.2181
 7025TIP3    H142566   5.747   4.328  15.787  0.7275  0.5024 -0.1523
 7025TIP3    H242567   5.702   4.199  15.721  2.7978 -0.0054 -0.6018
 7026TIP3   OH242568   0.298   4.483  14.869 -0.2548  0.4780 -0.2995
 7026TIP3    H142569   0.330   4.512  14.784 -1.3757  2.7511 -0.0057
 7026TIP3    H242570   0.287   4.565  14.919 -2.3840 -0.5713  1.0209
 7027TIP3   OH242571   0.012   1.810   3.894 -0.4199  0.8218  0.2358
 7027TIP3    H142572   0.063   1.794   3.815 -0.7588  0.6381  0.0500
 7027TIP3    H242573  -0.054   1.741   3.894 -0.6408  1.0315  0.4927
 7028TIP3   OH242574   5.077   0.874  11.521  0.3939 -0.0019  0.1077
 7028TIP3    H142575   5.103   0.784  11.500  1.6923  0.6207 -1.0358
 7028TIP3    H242576   5.086   0.921  11.438  0.5926  1.3828  0.9102
 7029TIP3   OH242577   4.284   4.514   4.962  0.0756  0.2456 -0.8409
 7029TIP3    H142578   4.263   4.551   4.876  1.4864 -1.2774 -1.8922
 7029TIP3    H242579   4.366   4.558   4.987  0.8122 -0.8655 -1.2805
 7030TIP3   OH242580   4.688   4.423   2.343 -0.2170 -0.1135  0.5639
 7030TIP3    H142581   4.726   4.347   2.387  0.7696 -0.1102 -0.2663
 7030TIP3    H242582   4.594   4.412   2.353 -0.1329 -1.9878 -0.4417
 7031TIP3   OH242583   4.751   6.733  11.185  0.2356  0.1821 -0.0502
 7031TIP3    H142584   4.815   6.783  11.133 -0.2267  1.1757  0.3174
 7031TIP3    H242585   4.741   6.650  11.138 -0.1398  1.0471 -1.5517
 7032TIP3   OH242586   4.104   4.202  12.294 -0.1096 -0.0725 -0.1806
 7032TIP3    H142587   4.016   4.231  12.317  0.4424 -0.2305  2.2738
 7032TIP3    H242588   4.094   4.108  12.276 -0.2774 -0.3402  1.2277
 7033TIP3   OH242589   4.559   3.579   4.866 -0.1884  0.0976 -0.6097
 7033TIP3    H142590   4.582   3.508   4.806  1.9192  0.7892 -0.6576
 7033TIP3    H242591   4.594   3.551   4.951 -0.7069  0.4033 -0.2905
 7034TIP3   OH242592   3.104   4.718   4.044  0.5495 -0.5118 -0.1022
 7034TIP3    H142593   3.133   4.694   4.132 -0.6130 -0.4128  0.3156
 7034TIP3    H242594   3.185   4.723   3.992  1.3543  0.5823  1.2370
 7035TIP3   OH242595   5.797   5.884  13.782  0.0677  0.3294 -0.1995
 7035TIP3    H142596   5.765   5.848  13.864 -1.3582  0.3603 -0.7194
 7035TIP3    H242597   5.775   5.818  13.716 -0.0642  0.9124 -0.7524
 7036TIP3   OH242598   6.373   6.092  13.353 -0.1100 -0.0492 -0.2886
 7036TIP3    H142599   6.380   6.176  13.307  0.5331  0.1653  0.1968
 7036TIP3    H242600   6.436   6.035  13.310 -0.7836 -0.3925 -0.8342
 7037TIP3   OH242601   6.048   1.211   3.257 -0.1129  0.7079 -1.0589
 7037TIP3    H142602   6.116   1.160   3.214  1.1934  1.5736 -0.0393
 7037TIP3    H242603   6.092   1.254   3.330 -1.7619  1.2196 -0.3316
 7038TIP3   OH242604   0.027   0.300   5.273 -0.1231  0.6592 -0.2431
 7038TIP3    H142605   0.069   0.265   5.352 -0.3611 -0.7973 -0.7437
 7038TIP3    H242606   0.099   0.308   5.210  0.1140  2.0647  0.1756
 7039TIP3   OH242607   5.448   3.054   5.202 -0.2046 -0.3703  0.0075
 7039TIP3    H142608   5.472   2.968   5.168  0.7578 -0.3666  0.6387
 7039TIP3    H242609   5.520   3.111   5.175 -1.0850  0.3459 -0.8357
 7040TIP3   OH242610   0.714   2.440  12.183 -0.4541  0.1342  0.4282
 7040TIP3    H142611   0.678   2.458  12.096 -1.3597 -0.0666  0.7558
 7040TIP3    H242612   0.781   2.507  12.195  1.1370 -1.1115 -1.2852
 7041TIP3   OH242613   5.118   4.919   5.448  0.0780  0.3250  0.0980
 7041TIP3    H142614   5.197   4.964   5.479  0.8861  2.0319 -4.1301
 7041TIP3    H242615   5.135   4.826   5.465  2.2836  0.8284  0.7706
 7042TIP3   OH242616   5.025   6.230   0.614  0.3850 -0.4502  0.4368
 7042TIP3    H142617   4.986   6.216   0.701 -0.1101  1.3022  0.5136
 7042TIP3    H242618   5.118   6.247   0.633  0.4117 -0.7288  0.5639
 7043TIP3   OH242619   3.616   6.430  12.830  0.0956 -0.5589  0.1836
 7043TIP3    H142620   3.544   6.404  12.888 -0.7074  2.2744  0.5522
 7043TIP3    H242621   3.576   6.434  12.743  0.0935 -0.1284  0.2032
 7044TIP3   OH242622   0.219   3.880   5.455  0.3888  0.0019  0.2675
 7044TIP3    H142623   0.270   3.905   5.532  0.2506  0.1928  0.2980
 7044TIP3    H242624   0.127   3.885   5.484  0.3246  0.3597  0.0070
 7045TIP3   OH242625   0.315   2.310   4.290 -0.8871  0.0881 -0.0203
 7045TIP3    H142626   0.358   2.231   4.324 -0.1264  0.6209  0.2817
 7045TIP3    H242627   0.244   2.327   4.353 -1.0092 -0.3121 -0.0483
 7046TIP3   OH242628   6.686   1.274   6.208  0.2699 -0.1043 -0.3312
 7046TIP3    H142629   6.724   1.189   6.185  0.5428 -1.3638  4.1494
 7046TIP3    H242630   6.593   1.257   6.218  0.2652  0.1970  0.1843
 7047TIP3   OH242631   3.242   4.026   0.991  0.6359  0.1302  0.4817
 7047TIP3    H142632   3.163   4.077   1.010  0.0508 -1.1272  1.5498
 7047TIP3    H242633   3.302   4.049   1.061  0.4486 -0.4594  0.8440
 7048TIP3   OH242634   6.723   1.851   2.357  0.1584  0.1394  0.5861
 7048TIP3    H142635   6.650   1.841   2.419  0.3429  2.0198  1.1285
 7048TIP3    H242636   6.719   1.942   2.329  0.4823 -0.5305 -1.7044
 7049TIP3   OH242637   3.552   6.178   0.015 -0.2972 -0.1963 -1.2775
 7049TIP3    H142638   3.524   6.242  -0.051 -0.9032 -1.2078 -2.0049
 7049TIP3    H242639   3.646   6.195   0.027  0.0725 -0.7552 -3.2453
 7050TIP3   OH242640   0.275   5.694  12.780  0.0600  0.3469 -0.4839
 7050TIP3    H142641   0.253   5.605  12.809  1.7959 -0.2564 -0.9158
 7050TIP3    H242642   0.205   5.717  12.719 -0.7134 -0.5129  0.0656
 7051TIP3   OH242643   6.428   1.433   4.085 -0.1610 -0.0294  0.4588
 7051TIP3    H142644   6.420   1.345   4.048 -0.0867  0.2089 -0.1180
 7051TIP3    H242645   6.340   1.451   4.120 -0.0737 -0.4844  0.9219
 7052TIP3   OH242646   3.584   5.101  12.361 -0.2764 -0.4683  0.4373
 7052TIP3    H142647   3.638   5.160  12.413 -1.5547 -0.3503  1.6678
 7052TIP3    H242648   3.647   5.046  12.314  0.9166  1.6085 -0.4512
 7053TIP3   OH242649   3.231   3.529  15.233  0.3480 -0.1775 -0.3941
 7053TIP3    H142650   3.165   3.563  15.293 -0.9634  0.4919 -2.1929
 7053TIP3    H242651   3.261   3.605  15.183 -0.8909 -1.1992 -2.7891
 7054TIP3   OH242652   4.152   5.916  16.455  0.5419 -0.4127  0.1728
 7054TIP3    H142653   4.070   5.869  16.439 -0.6919  0.8562  2.3789
 7054TIP3    H242654   4.213   5.849  16.484 -0.6687 -0.9464  1.5622
 7055TIP3   OH242655   3.175   6.740  11.388  0.6941  0.1337 -0.0179
 7055TIP3    H142656   3.236   6.761  11.317  0.0235  0.5836 -0.4646
 7055TIP3    H242657   3.145   6.651  11.368 -0.9683  0.9714 -1.3771
 7056TIP3   OH242658   3.917   5.560  16.434 -0.1432  0.0238 -0.6084
 7056TIP3    H142659   3.972   5.513  16.372 -0.2360 -0.4519 -0.3292
 7056TIP3    H242660   3.912   5.503  16.511 -0.4949  0.3506 -0.3830
 7057TIP3   OH242661   1.433   5.260  10.703  0.0547  0.4122  0.5243
 7057TIP3    H142662   1.418   5.323  10.773  1.7762  0.9656  0.4136
 7057TIP3    H242663   1.499   5.300  10.647  0.1428 -0.8792 -0.3415
 7058TIP3   OH242664   3.889   3.974  11.417  0.1478 -0.1710 -0.0095
 7058TIP3    H142665   3.959   4.038  11.406 -0.4405  0.3543 -0.6697
 7058TIP3    H242666   3.910   3.905  11.354 -0.4092  0.4055 -0.8323
 7059TIP3   OH242667   0.904   4.166  15.827 -0.6154 -0.2600  0.0333
 7059TIP3    H142668   0.876   4.252  15.859  0.5908  0.0132  0.3792
 7059TIP3    H242669   0.914   4.113  15.906  1.9240  0.2849  0.1240
 7060TIP3   OH242670   0.795   0.034   5.442  0.6389  0.4083 -0.7371
 7060TIP3    H142671   0.769  -0.032   5.378 -0.4174  0.2307 -0.1365
 7060TIP3    H242672   0.841   0.100   5.390  1.1604 -0.4865 -1.4346
 7061TIP3   OH242673   0.090   5.777  17.277  0.1724  0.3549  0.2587
 7061TIP3    H142674   0.181   5.747  17.278 -0.5483 -1.9194 -0.7501
 7061TIP3    H242675   0.096   5.864  17.237  1.7009 -0.6026 -1.7460
 7062TIP3   OH242676   1.454   2.621   3.473  0.1410  0.5137 -0.1639
 7062TIP3    H142677   1.445   2.643   3.566  1.7884  0.3218  0.0573
 7062TIP3    H242678   1.476   2.528   3.473  0.4404  0.5841 -0.7250
 7063TIP3   OH242679   3.649   0.391  11.664 -0.0180  0.9187  0.3360
 7063TIP3    H142680   3.713   0.371  11.732  0.0895 -0.3968 -0.1482
 7063TIP3    H242681   3.697   0.446  11.601  1.1402 -1.4415 -0.8887
 7064TIP3   OH242682   0.889   6.312   0.758 -0.1411  0.0827 -0.0318
 7064TIP3    H142683   0.903   6.314   0.664 -0.3960  0.0515 -0.0692
 7064TIP3    H242684   0.838   6.391   0.777 -0.0785  0.0962  0.0818
 7065TIP3   OH242685   2.678   2.811  13.671 -0.4197  0.4287  0.2421
 7065TIP3    H142686   2.757   2.760  13.688  0.0588  0.0419 -2.8134
 7065TIP3    H242687   2.664   2.802  13.577 -1.9152  3.6701  0.0932
 7066TIP3   OH242688   0.978   6.819   4.142 -0.2973 -0.1292 -0.2792
 7066TIP3    H142689   0.914   6.824   4.214 -1.7686  1.6224 -1.6558
 7066TIP3    H242690   0.961   6.897   4.090  1.3470 -0.9280 -2.0672
 7067TIP3   OH242691   5.995   1.801  13.846 -0.1084 -0.1905  0.4369
 7067TIP3    H142692   6.053   1.812  13.921 -1.2318 -0.1773  1.3085
 7067TIP3    H242693   6.042   1.843  13.773  0.9398 -0.1323  1.1441
 7068TIP3   OH242694   1.832   2.902   2.195 -0.1196  0.0413  0.1037
 7068TIP3    H142695   1.802   2.831   2.138 -1.2212 -0.1058  0.8523
 7068TIP3    H242696   1.777   2.977   2.171 -0.8288 -0.1154  1.1967
 7069TIP3   OH242697   3.365   1.053  12.121 -0.2275  0.8516 -0.1274
 7069TIP3    H142698   3.290   1.008  12.084  1.2818 -0.9207 -1.0845
 7069TIP3    H242699   3.372   1.134  12.070 -1.1285  0.7526 -0.4164
 7070TIP3   OH242700   6.493   5.649  13.745  0.1735 -0.4254  0.0492
 7070TIP3    H142701   6.560   5.713  13.719 -0.4224 -0.0936 -0.6732
 7070TIP3    H242702   6.501   5.579  13.681 -1.3153  0.4039 -1.0678
 7071TIP3   OH242703   6.483   5.921  12.578 -0.0004  0.5737  0.7726
 7071TIP3    H142704   6.531   5.999  12.550  0.1204 -0.1166 -0.9756
 7071TIP3    H242705   6.418   5.955  12.640  0.0663  2.0653  0.0533
 7072TIP3   OH242706   0.921   3.318  11.101  0.2934 -0.2353  0.0181
 7072TIP3    H142707   0.977   3.395  11.084  2.4353 -2.0745 -1.5774
 7072TIP3    H242708   0.893   3.289  11.015 -0.2238 -1.4290  0.5797
 7073TIP3   OH242709   6.241   4.380  12.227 -0.0810  0.2551 -0.0026
 7073TIP3    H142710   6.214   4.396  12.318  0.9258  1.0326  0.1620
 7073TIP3    H242711   6.336   4.391  12.227 -0.0970  0.4799 -1.1999
 7074TIP3   OH242712   0.134   5.605   5.590 -0.2943  0.2443 -0.0186
 7074TIP3    H142713   0.114   5.612   5.497  0.8699 -1.8634 -0.4658
 7074TIP3    H242714   0.161   5.514   5.602  0.2121  0.6526  2.2612
 7075TIP3   OH242715   0.181   0.514  16.522 -0.6355  0.3589  0.4007
 7075TIP3    H142716   0.178   0.442  16.459 -0.2569  0.0321  0.7560
 7075TIP3    H242717   0.212   0.589  16.471 -0.8545  0.2293  0.0707
 7076TIP3   OH242718   4.191   2.277   1.515 -0.1581 -1.1606 -0.5182
 7076TIP3    H142719   4.098   2.256   1.523  0.2096 -3.8630 -2.3539
 7076TIP3    H242720   4.222   2.285   1.605 -2.0987 -0.4431  0.1169
 7077TIP3   OH242721   4.307   4.154  16.016  0.1391 -0.1126  0.5339
 7077TIP3    H142722   4.330   4.202  16.095  1.2306 -0.0670  0.1960
 7077TIP3    H242723   4.212   4.141  16.022 -0.1655  1.9881  0.6950
 7078TIP3   OH242724   0.894   3.481  16.383  0.0835 -0.1588 -0.0268
 7078TIP3    H142725   0.892   3.545  16.454  0.8758 -1.0290  0.7971
 7078TIP3    H242726   0.985   3.453  16.379  0.3441  0.9050 -2.3316
 7079TIP3   OH242727   3.050   1.226  12.858  0.4448  0.4046  0.3287
 7079TIP3    H142728   3.115   1.274  12.807  0.1471  1.4797  0.9383
 7079TIP3    H242729   3.096   1.200  12.937  0.6062 -0.3237 -0.0042
 7080TIP3   OH242730   4.867   1.081   6.288  0.0141  0.2928  0.1736
 7080TIP3    H142731   4.843   1.171   6.311 -0.2995 -0.0627  1.2817
 7080TIP3    H242732   4.799   1.028   6.328  0.3051 -0.4537 -0.3197
 7081TIP3   OH242733   2.342   3.817  16.911  0.4741 -0.0077 -0.5467
 7081TIP3    H142734   2.436   3.810  16.926  0.3772 -0.3077 -0.0393
 7081TIP3    H242735   2.312   3.726  16.909  0.3883  0.0383 -2.0414
 7082TIP3   OH242736   4.466   1.014   5.633 -0.3874 -0.0429  0.4426
 7082TIP3    H142737   4.455   1.086   5.695 -1.4960 -0.4223  0.6958
 7082TIP3    H242738   4.478   0.936   5.688  1.3189  0.0051  0.1755
 7083TIP3   OH242739   4.334   4.860   5.995 -0.7918  0.1324  0.5623
 7083TIP3    H142740   4.269   4.799   5.960  0.0908 -1.4492  1.5855
 7083TIP3    H242741   4.291   4.899   6.071 -0.2154 -1.7016  1.8754
 7084TIP3   OH242742   5.280   3.509  16.284  0.5239  0.0449 -0.1109
 7084TIP3    H142743   5.337   3.451  16.233  1.6189  1.8446 -1.0153
 7084TIP3    H242744   5.192   3.490  16.252  0.8045 -1.5173  0.0201
 7085TIP3   OH242745   5.145   1.836  11.898 -0.6117 -0.2056 -0.5161
 7085TIP3    H142746   5.134   1.745  11.926 -0.5192  0.1189  0.6174
 7085TIP3    H242747   5.235   1.858  11.924 -0.6581  0.2263 -0.7214
 7086TIP3   OH242748   5.243   6.683  13.852 -0.3526  0.2100  0.0832
 7086TIP3    H142749   5.217   6.625  13.780  0.2956  0.9145 -0.7256
 7086TIP3    H242750   5.203   6.644  13.930 -2.2114  0.2045 -0.8547
 7087TIP3   OH242751   0.501   5.998   5.136 -0.7306  0.5201  1.0034
 7087TIP3    H142752   0.543   6.031   5.215  1.4561  0.9142 -0.2697
 7087TIP3    H242753   0.441   6.068   5.110 -0.4502  0.9688  1.5505
 7088TIP3   OH242754   6.650   4.040   4.859  0.0126  0.1180 -0.4009
 7088TIP3    H142755   6.672   3.955   4.821  0.2213 -0.7854  1.7095
 7088TIP3    H242756   6.669   4.031   4.952 -2.0187  1.7803  0.2096
 7089TIP3   OH242757   3.220   0.947  15.252 -0.6404  0.2959 -0.1850
 7089TIP3    H142758   3.144   0.898  15.285 -2.4095  1.6707 -2.0770
 7089TIP3    H242759   3.182   1.013  15.194  2.0885  0.3662 -1.9800
 7090TIP3   OH242760   0.263   1.433   2.308  0.2134 -0.4159 -0.0258
 7090TIP3    H142761   0.265   1.529   2.309  1.4723 -0.4290 -0.1675
 7090TIP3    H242762   0.253   1.411   2.215 -2.2979 -0.4138  0.2123
 7091TIP3   OH242763   2.962   1.291   0.491 -0.6932  0.5299  0.0372
 7091TIP3    H142764   3.028   1.292   0.560  0.2118  3.1157 -0.7992
 7091TIP3    H242765   2.879   1.306   0.535 -0.5795 -1.2697  0.9219
 7092TIP3   OH242766   3.802   3.897  10.787 -0.1333  0.1228 -0.7714
 7092TIP3    H142767   3.754   3.856  10.715 -1.4302  0.7844 -0.2899
 7092TIP3    H242768   3.761   3.982  10.799 -0.7665 -0.4585  1.5669
 7093TIP3   OH242769   0.547   3.789  12.198  0.1102 -0.4997 -0.0893
 7093TIP3    H142770   0.582   3.826  12.116 -0.3291 -0.1308 -0.1121
 7093TIP3    H242771   0.561   3.859  12.262 -0.0218 -0.5929  0.0373
 7094TIP3   OH242772   0.031   0.520   4.757 -0.0906 -0.0801 -0.2384
 7094TIP3    H142773   0.092   0.590   4.734  1.3417 -0.9690  0.7352
 7094TIP3    H242774   0.087   0.451   4.793 -1.7221 -0.7625  1.0451
 7095TIP3   OH242775   1.894   2.307  14.399 -0.2914 -0.1192 -0.0160
 7095TIP3    H142776   1.955   2.368  14.356 -0.9471 -0.7207 -1.8752
 7095TIP3    H242777   1.812   2.357  14.407  0.0949  0.3012  1.4120
 7096TIP3   OH242778   6.253   2.986  14.155  0.3956 -0.4215 -0.3560
 7096TIP3    H142779   6.204   3.001  14.074 -1.0413 -2.7603  0.0513
 7096TIP3    H242780   6.216   2.906  14.191  2.0900 -0.2559  1.8355
 7097TIP3   OH242781   2.042   5.141   0.095 -0.4441  0.7849 -0.7121
 7097TIP3    H142782   2.018   5.158   0.004 -1.1440  0.4250 -0.6005
 7097TIP3    H242783   2.133   5.113   0.092 -0.8761 -0.5743 -1.4469
 7098TIP3   OH242784   6.190   1.131  17.029  0.6874 -0.4373  0.1819
 7098TIP3    H142785   6.212   1.048  17.070 -0.3187 -0.9214 -0.2562
 7098TIP3    H242786   6.218   1.197  17.093  0.7142 -1.1278  0.8890
 7099TIP3   OH242787   1.508   0.150  13.740  0.5532  0.0226 -0.4714
 7099TIP3    H142788   1.591   0.196  13.752  1.7474 -2.3275  0.5769
 7099TIP3    H242789   1.467   0.151  13.827  0.5200 -0.7587 -0.4766
 7100TIP3   OH242790   1.078   0.759   1.804 -0.8726  0.2530  0.0132
 7100TIP3    H142791   1.053   0.701   1.732 -1.2838 -0.6451  0.8673
 7100TIP3    H242792   1.006   0.751   1.867  0.2339 -0.1998  1.2389
 7101TIP3   OH242793   6.167   6.348   1.870 -0.1230  0.1812 -0.0334
 7101TIP3    H142794   6.181   6.424   1.926  0.0150  0.0605  0.0936
 7101TIP3    H242795   6.077   6.358   1.838  0.0120  0.5851 -0.2979
 7102TIP3   OH242796   2.198   5.967   3.173  0.9531 -0.3432 -0.3291
 7102TIP3    H142797   2.230   5.893   3.225 -0.3557 -1.6355 -1.3217
 7102TIP3    H242798   2.107   5.977   3.199  0.8643  0.3312 -0.8797
 7103TIP3   OH242799   3.700   6.307  17.018 -0.6387 -0.3680  0.5371
 7103TIP3    H142800   3.761   6.250  17.064 -1.7013 -1.5758  0.4837
 7103TIP3    H242801   3.755   6.370  16.972  0.6018 -1.9692 -0.2175
 7104TIP3   OH242802   2.959   2.829  13.721  0.4444 -0.3015  0.0773
 7104TIP3    H142803   2.997   2.828  13.809  0.5852 -2.3121  0.0177
 7104TIP3    H242804   3.017   2.773  13.669  1.1647  2.0120 -1.6689
 7105TIP3   OH242805   0.689   5.451   0.366 -0.1965  0.9316  0.8121
 7105TIP3    H142806   0.630   5.521   0.339 -0.2371  1.2449  1.6883
 7105TIP3    H242807   0.725   5.482   0.449  2.0520  1.2625 -0.2535
 7106TIP3   OH242808   1.187   6.127   6.656  0.0781  0.2402 -0.8203
 7106TIP3    H142809   1.250   6.147   6.588 -1.8788  2.9269 -1.8974
 7106TIP3    H242810   1.113   6.185   6.640 -1.9759 -1.6002  1.4346
 7107TIP3   OH242811   6.449   6.768  11.726  0.1450  0.2960  0.2369
 7107TIP3    H142812   6.512   6.751  11.796 -0.3394  1.8754  1.0664
 7107TIP3    H242813   6.498   6.820  11.662  0.1757  0.0475  0.0570
 7108TIP3   OH242814   1.265   0.601  13.055  0.2744  0.0006  0.4216
 7108TIP3    H142815   1.202   0.577  12.986  1.9271 -0.1006 -1.0878
 7108TIP3    H242816   1.210   0.620  13.131 -1.6637  0.7074 -1.0839
 7109TIP3   OH242817   0.566   0.123  15.764  0.5084 -0.2014 -0.0158
 7109TIP3    H142818   0.645   0.176  15.781  1.0836 -0.9217 -0.4290
 7109TIP3    H242819   0.495   0.187  15.762  0.9641  0.3556  1.2030
 7110TIP3   OH242820   6.683   0.205  15.379 -0.2266 -0.6716 -0.0498
 7110TIP3    H142821   6.745   0.268  15.340  2.3998 -1.6213  2.4362
 7110TIP3    H242822   6.615   0.259  15.418 -0.8314  0.4164 -2.5053
 7111TIP3   OH242823   6.375   1.746  15.948  0.6264  0.2161 -0.2511
 7111TIP3    H142824   6.288   1.734  15.987  0.8385  1.1167  0.5329
 7111TIP3    H242825   6.385   1.672  15.889 -1.7894  1.5342 -2.4633
 7112TIP3   OH242826   4.822   0.830   4.469 -0.5841  0.2953  0.0992
 7112TIP3    H142827   4.741   0.810   4.515 -0.8284  0.0463 -0.4341
 7112TIP3    H242828   4.794   0.887   4.397 -0.5761 -1.5094 -1.3462
 7113TIP3   OH242829   6.422   4.436  14.327 -0.4322 -0.4287 -0.2642
 7113TIP3    H142830   6.428   4.532  14.321  0.9339 -0.5613 -1.3799
 7113TIP3    H242831   6.396   4.409  14.239 -0.1619 -1.1166 -0.1298
 7114TIP3   OH242832   5.778   6.287  13.121 -0.0978  0.3140 -0.4399
 7114TIP3    H142833   5.690   6.323  13.107  0.0497  0.0980 -2.0223
 7114TIP3    H242834   5.772   6.241  13.204 -1.1887  1.2199  0.0055
 7115TIP3   OH242835   2.061   3.860  13.790 -0.3946  0.1409  0.3496
 7115TIP3    H142836   2.113   3.844  13.711  0.4795  2.3626  0.4346
 7115TIP3    H242837   2.098   3.801  13.855 -0.0776 -0.5705 -0.4591
 7116TIP3   OH242838   1.113   0.027  14.118  0.1413 -0.0456 -0.5234
 7116TIP3    H142839   1.140   0.109  14.077 -2.7995  0.5978 -1.3017
 7116TIP3    H242840   1.024   0.045  14.151 -0.3437 -2.7627 -0.2427
 7117TIP3   OH242841   1.919   6.165   7.013 -0.4912  0.5653 -0.3415
 7117TIP3    H142842   1.928   6.222   6.936 -1.9128 -1.0027 -1.7345
 7117TIP3    H242843   1.919   6.076   6.976  0.1989 -0.2667  1.6299
 7118TIP3   OH242844   0.549   4.603   0.870  0.1270  0.1379 -0.1066
 7118TIP3    H142845   0.565   4.593   0.964  3.3157  2.7227 -0.2740
 7118TIP3    H242846   0.528   4.696   0.859  2.1855  0.3952 -2.2259
 7119TIP3   OH242847   1.968   1.211  15.238 -0.4175 -0.0976  0.2134
 7119TIP3    H142848   1.900   1.276  15.217  0.1892  0.1263 -1.1616
 7119TIP3    H242849   1.990   1.173  15.153  0.0104 -1.3437  0.8785
 7120TIP3   OH242850   4.128   2.036  11.719 -0.3165 -0.4412  0.0530
 7120TIP3    H142851   4.122   1.948  11.757 -1.9246 -0.0309  0.8048
 7120TIP3    H242852   4.073   2.090  11.776  0.7009  1.0679 -0.3700
 7121TIP3   OH242853   3.136   0.940  11.999  0.7951 -0.1051  0.1336
 7121TIP3    H142854   3.074   0.889  12.052  0.6430 -1.2784 -1.1323
 7121TIP3    H242855   3.081   0.999  11.949  0.8833  0.4665  0.7012
 7122TIP3   OH242856   6.760   6.022  16.208 -0.6145  0.3662  0.2562
 7122TIP3    H142857   6.666   6.034  16.223 -0.5262  2.0462 -0.4359
 7122TIP3    H242858   6.798   6.017  16.296 -1.2282  0.7148  0.5467
 7123TIP3   OH242859   1.107   2.971  16.230 -0.0438 -0.4448  0.3945
 7123TIP3    H142860   1.146   2.887  16.254 -0.0246 -0.4000  0.5176
 7123TIP3    H242861   1.163   3.006  16.161 -0.8382 -1.1914 -0.6553
 7124TIP3   OH242862   6.048   4.608  12.845  0.1264  0.4046 -0.0563
 7124TIP3    H142863   6.011   4.615  12.757 -0.9028 -0.8400  0.2558
 7124TIP3    H242864   6.057   4.514  12.859 -0.2841  0.5722  1.4039
 7125TIP3   OH242865   5.835   2.494  11.003 -0.4194  0.1330  0.3759
 7125TIP3    H142866   5.913   2.541  10.974 -0.4330 -0.1864 -0.1874
 7125TIP3    H242867   5.763   2.556  10.990 -0.3817  0.1032  0.0286
 7126TIP3   OH242868   6.327   1.298  12.749  0.0133 -0.1052 -0.5610
 7126TIP3    H142869   6.376   1.217  12.734  0.1525 -0.1536  0.1396
 7126TIP3    H242870   6.241   1.269  12.779  0.1921  0.0087  0.0708
 7127TIP3   OH242871   4.835   4.908  12.604 -0.0734  0.2870  0.0981
 7127TIP3    H142872   4.896   4.929  12.675 -0.5295  2.5430 -0.1478
 7127TIP3    H242873   4.786   4.989  12.590 -0.5689 -0.3885 -2.2380
 7128TIP3   OH242874   3.026   1.000  17.120  0.5419 -0.6493  0.1384
 7128TIP3    H142875   3.010   1.011  17.213  1.6847 -1.5533  0.4496
 7128TIP3    H242876   2.990   1.079  17.080  0.4051 -0.0756  1.3750
 7129TIP3   OH242877   6.502   6.039   2.379 -0.6414 -0.2366  0.2498
 7129TIP3    H142878   6.586   6.050   2.422 -0.2230 -1.7423 -0.1691
 7129TIP3    H242879   6.521   6.051   2.286 -1.4940  2.7450  0.4068
 7130TIP3   OH242880   5.589   0.061  13.515 -0.4083 -0.3176  0.1265
 7130TIP3    H142881   5.613   0.122  13.585  0.9026 -1.5975  0.8134
 7130TIP3    H242882   5.578   0.117  13.438  2.3396  0.6439  0.3773
 7131TIP3   OH242883   5.943   5.545  16.470 -0.0860 -0.5471 -0.2696
 7131TIP3    H142884   5.870   5.593  16.431  0.4673  0.2763 -0.2923
 7131TIP3    H242885   5.933   5.558  16.564  0.5785  0.3576 -0.3234
 7132TIP3   OH242886   5.508   1.642   0.799 -0.3177 -0.5655  0.1056
 7132TIP3    H142887   5.412   1.650   0.806 -0.5888 -0.3631 -3.1927
 7132TIP3    H242888   5.538   1.636   0.890 -3.1467  3.1316  1.4339
 7133TIP3   OH242889   2.763   4.679  17.116 -0.1231 -0.0392 -0.5161
 7133TIP3    H142890   2.774   4.731  17.196  0.8192 -1.7989  0.5244
 7133TIP3    H242891   2.843   4.627  17.110  0.3440  0.9253 -3.2881
 7134TIP3   OH242892   5.162   1.211   4.462 -0.5465 -0.9342 -0.4958
 7134TIP3    H142893   5.141   1.120   4.443 -0.2397 -1.1329  0.1096
 7134TIP3    H242894   5.080   1.249   4.495 -0.5086 -1.1606 -0.1369
 7135TIP3   OH242895   1.792   4.063   1.148  0.0184 -0.8195  0.3447
 7135TIP3    H142896   1.760   4.055   1.058  1.1601  0.0931 -0.1531
 7135TIP3    H242897   1.886   4.075   1.139  0.5451 -3.4139  1.7987
 7136TIP3   OH242898   5.594   4.721   1.917  0.5972  0.5544 -0.3017
 7136TIP3    H142899   5.630   4.685   1.836  0.4015 -1.3046  0.4134
 7136TIP3    H242900   5.533   4.654   1.948  0.4005  1.4047  1.1985
 7137TIP3   OH242901   3.143   3.702  10.252  0.4211 -0.3114 -0.1416
 7137TIP3    H142902   3.056   3.686  10.289  0.3551  0.1149 -0.1091
 7137TIP3    H242903   3.170   3.617  10.217 -0.5452 -0.1618 -1.2884
 7138TIP3   OH242904   6.155   2.907  12.432  0.0587 -0.2458  0.1758
 7138TIP3    H142905   6.090   2.962  12.388 -0.3996 -2.0687 -1.5303
 7138TIP3    H242906   6.161   2.828  12.377  1.1086 -1.6515  2.2151
 7139TIP3   OH242907   4.879   6.758   0.657 -0.1869  0.2973 -0.2517
 7139TIP3    H142908   4.910   6.667   0.656 -0.0215  0.3614 -1.7887
 7139TIP3    H242909   4.785   6.751   0.675 -0.0500 -0.1389  0.3033
 7140TIP3   OH242910   0.069   4.854  15.285  0.0175  0.4872 -0.5149
 7140TIP3    H142911   0.046   4.809  15.367  0.1861  0.4144 -0.5073
 7140TIP3    H242912   0.057   4.947  15.305  0.9031  0.5304 -0.1308
 7141TIP3   OH242913   1.924   1.277   0.728  0.5548 -0.2291 -0.5379
 7141TIP3    H142914   1.984   1.248   0.659  0.8929  1.1174 -0.8330
 7141TIP3    H242915   1.886   1.359   0.694  0.9640  0.6256  0.9986
 7142TIP3   OH242916   6.105   3.330  12.825 -0.0285 -0.3436  0.3894
 7142TIP3    H142917   6.053   3.286  12.757 -0.1106 -1.4430  1.1365
 7142TIP3    H242918   6.144   3.258  12.875  1.7624  0.4775  0.1875
 7143TIP3   OH242919   3.068   5.161  12.929 -0.5615  0.4650  0.0616
 7143TIP3    H142920   3.095   5.121  12.847 -1.7110  0.7158 -0.4549
 7143TIP3    H242921   3.016   5.237  12.902  0.5253  1.5752  1.0199
 7144TIP3   OH242922   2.290   4.015   3.163  0.3648 -0.3097  0.6344
 7144TIP3    H142923   2.372   4.056   3.136 -0.3113 -0.1605 -1.3011
 7144TIP3    H242924   2.309   3.922   3.165  0.4543 -0.3174 -0.3294
 7145TIP3   OH242925   3.671   3.333  14.956 -0.2327 -0.1676  0.1662
 7145TIP3    H142926   3.604   3.357  15.020  0.8320  4.6005 -0.3339
 7145TIP3    H242927   3.734   3.281  15.006 -1.9173 -0.7351  1.7512
 7146TIP3   OH242928   2.331   1.517   1.698  0.5851  0.5775 -0.4533
 7146TIP3    H142929   2.243   1.491   1.669 -0.2352  3.4794 -0.7882
 7146TIP3    H242930   2.343   1.472   1.781 -2.5799  2.5083  1.1720
 7147TIP3   OH242931   1.323   5.625  14.823 -0.3039  0.0555  0.4690
 7147TIP3    H142932   1.293   5.537  14.799  2.2880 -0.4458 -1.0942
 7147TIP3    H242933   1.346   5.667  14.740  1.4254  1.0852  1.4274
 7148TIP3   OH242934   1.597   6.227  11.718 -0.4115  0.4837 -0.2210
 7148TIP3    H142935   1.503   6.242  11.719 -0.3588  0.8094 -0.1769
 7148TIP3    H242936   1.631   6.289  11.653 -0.4514 -0.9302 -1.6298
 7149TIP3   OH242937   0.827   6.368  12.503 -0.2389  0.3121 -0.2287
 7149TIP3    H142938   0.867   6.317  12.573 -0.5294  0.7934  0.2910
 7149TIP3    H242939   0.861   6.328  12.422 -1.3556 -1.4492  0.1309
 7150TIP3   OH242940   6.314   5.300  15.954 -0.3748 -0.2235  0.5102
 7150TIP3    H142941   6.297   5.329  16.043 -2.4711  0.2671 -0.0225
 7150TIP3    H242942   6.336   5.380  15.906  1.0636 -0.5289  0.6614
 7151TIP3   OH242943   6.073   6.304   3.932 -0.2177 -0.3441 -0.1716
 7151TIP3    H142944   6.156   6.322   3.976 -0.4336 -1.4581  0.7085
 7151TIP3    H242945   6.028   6.389   3.931  1.5401  0.6069 -2.0046
 7152TIP3   OH242946   0.105   3.554   5.223 -0.1246  0.0436  0.3891
 7152TIP3    H142947   0.175   3.540   5.287  0.5065 -1.5084 -0.6071
 7152TIP3    H242948   0.144   3.612   5.157 -0.0893 -0.0271  0.3473
 7153TIP3   OH242949   5.243   4.182  16.753 -0.1605  0.5230  0.6384
 7153TIP3    H142950   5.203   4.256  16.707  0.8452 -0.2049 -1.4464
 7153TIP3    H242951   5.172   4.149  16.809 -1.6868  0.8992 -1.0179
 7154TIP3   OH242952   6.460   3.634  15.907 -0.2395  0.5273  0.5326
 7154TIP3    H142953   6.375   3.664  15.938 -2.6487 -1.1841 -3.9265
 7154TIP3    H242954   6.502   3.597  15.984 -3.6687  1.1159  2.8040
 7155TIP3   OH242955   5.388   5.746  14.049  0.1798 -0.4725  0.1772
 7155TIP3    H142956   5.345   5.662  14.065 -1.2127 -0.0816 -1.3853
 7155TIP3    H242957   5.353   5.804  14.117 -1.6047 -0.2230 -0.9316
 7156TIP3   OH242958   4.029   0.504  15.649  0.3637 -0.3230 -0.2656
 7156TIP3    H142959   4.109   0.515  15.597  0.7302  0.5263  0.4731
 7156TIP3    H242960   4.013   0.589  15.689 -1.0072 -0.4435 -0.5207
 7157TIP3   OH242961   5.694   2.151  12.285 -0.2527  0.3616  0.0616
 7157TIP3    H142962   5.675   2.193  12.369  1.0215  0.5774  0.2458
 7157TIP3    H242963   5.624   2.182  12.227  0.0412  1.8734  0.4934
 7158TIP3   OH242964   4.980   2.441   3.611 -0.0118  0.1141 -0.2540
 7158TIP3    H142965   4.963   2.505   3.680  0.6657 -0.0443  0.0605
 7158TIP3    H242966   4.893   2.412   3.584 -0.2409 -1.6912  2.2943
 7159TIP3   OH242967   4.143   3.334   2.681  0.2489 -0.2047 -0.1442
 7159TIP3    H142968   4.055   3.344   2.717  0.3395 -0.8486  0.2736
 7159TIP3    H242969   4.160   3.417   2.637 -0.8533 -0.3578 -0.8729
 7160TIP3   OH242970   2.054   2.520  12.329  0.7157 -0.0560  0.0531
 7160TIP3    H142971   2.115   2.592  12.347 -1.3362  1.5651  0.7366
 7160TIP3    H242972   1.996   2.555  12.262  0.6249 -1.6305 -0.6951
 7161TIP3   OH242973   4.011   3.346   0.624  0.3806 -0.1331  0.3233
 7161TIP3    H142974   4.067   3.407   0.673  0.3913 -0.8791  1.2636
 7161TIP3    H242975   4.072   3.280   0.591  0.0696 -0.9665  1.3803
 7162TIP3   OH242976   2.245   0.640  12.481 -0.8464  0.3336 -0.3753
 7162TIP3    H142977   2.338   0.647  12.505 -0.8703  1.4299 -0.5705
 7162TIP3    H242978   2.199   0.685  12.552 -1.1218  1.0729 -1.0148
 7163TIP3   OH242979   0.794   0.298   4.989 -0.5223 -0.1016  0.5641
 7163TIP3    H142980   0.723   0.290   4.924  0.0924  0.2310 -0.1616
 7163TIP3    H242981   0.749   0.297   5.073 -1.2824 -1.2683  0.1706
 7164TIP3   OH242982   5.696   2.916   1.343  0.3400  0.1083  0.5527
 7164TIP3    H142983   5.666   2.988   1.287  2.3572  0.6767  0.1541
 7164TIP3    H242984   5.676   2.945   1.432  1.7495  1.5074  0.4479
 7165TIP3   OH242985   4.014   6.526  13.576 -0.1515  0.0565 -0.5043
 7165TIP3    H142986   3.926   6.502  13.547 -0.5160 -0.7079  1.1773
 7165TIP3    H242987   4.036   6.462  13.643  1.6070  0.3808 -0.7354
 7166TIP3   OH242988   1.243   1.228  16.396 -0.6082 -0.3902 -0.3666
 7166TIP3    H142989   1.223   1.134  16.401 -3.6096  0.2402  0.4019
 7166TIP3    H242990   1.175   1.264  16.339 -0.9988  1.7014  1.3654
 7167TIP3   OH242991   0.899   6.233  14.432 -0.2311  0.1499  0.3811
 7167TIP3    H142992   0.881   6.216  14.340 -0.0636  1.8385  0.0044
 7167TIP3    H242993   0.820   6.205  14.478 -0.7376  0.2651 -0.4069
 7168TIP3   OH242994   4.832   3.953  15.001  0.2765 -0.7660  0.1221
 7168TIP3    H142995   4.778   3.960  14.922 -0.3563 -0.1160  0.6070
 7168TIP3    H242996   4.829   4.040  15.040  0.4195 -1.1387  0.9733
 7169TIP3   OH242997   5.828   3.035  16.536 -0.4042  0.5072  0.7322
 7169TIP3    H142998   5.757   3.068  16.590 -0.2807 -0.4212  1.4813
 7169TIP3    H242999   5.810   3.068  16.448 -1.9632 -0.0406  0.8412
 7170TIP3   OH243000   3.498   3.912  14.391  0.2937  0.0542 -0.2167
 7170TIP3    H143001   3.534   3.915  14.303 -0.5296 -0.0454 -0.5534
 7170TIP3    H243002   3.457   3.825  14.398  0.8649 -0.1725  0.4618
 7171TIP3   OH243003   6.272   3.181  11.639  0.4757  0.0452 -0.0577
 7171TIP3    H143004   6.255   3.271  11.666 -0.0139 -0.3563  0.9577
 7171TIP3    H243005   6.223   3.171  11.557  1.2941  0.9933 -0.6660
 7172TIP3   OH243006   0.787   3.525  11.225  0.6947 -0.2268  0.2945
 7172TIP3    H143007   0.808   3.452  11.168 -0.6092 -1.0447  0.8162
 7172TIP3    H243008   0.729   3.581  11.173  1.4514  0.2898 -0.0030
 7173TIP3   OH243009   2.413   1.953   4.610  0.2746 -0.1955 -0.3122
 7173TIP3    H143010   2.391   1.868   4.571  0.0128 -0.7377  1.0082
 7173TIP3    H243011   2.452   2.003   4.537 -0.8878 -0.9287 -1.4534
 7174TIP3   OH243012   6.250   1.014  14.092  0.1721 -0.2742  0.0478
 7174TIP3    H143013   6.333   1.011  14.139  1.1187  0.3874 -1.5176
 7174TIP3    H243014   6.235   0.924  14.063  1.1855 -0.1209 -1.0284
 7175TIP3   OH243015   1.546   2.428  10.770 -0.4192  0.1345 -0.2342
 7175TIP3    H143016   1.621   2.465  10.818 -0.9719  0.2695  0.5212
 7175TIP3    H243017   1.576   2.342  10.742 -0.2342 -0.1091  0.6946
 7176TIP3   OH243018   0.719   2.019   0.537 -0.1920  0.1490  0.4863
 7176TIP3    H143019   0.744   2.110   0.522  0.0818 -0.2977 -1.9337
 7176TIP3    H243020   0.721   1.978   0.450 -3.0547 -1.4696  1.0858
 7177TIP3   OH243021   5.775   1.076  11.946 -0.0117 -0.3250 -0.1350
 7177TIP3    H143022   5.684   1.059  11.924 -0.2396 -1.0449  1.3454
 7177TIP3    H243023   5.817   1.095  11.861 -1.0229 -2.3381 -1.1156
 7178TIP3   OH243024   0.593   1.563   5.133 -0.7062  0.0577 -0.1590
 7178TIP3    H143025   0.633   1.640   5.093 -0.2948 -0.6467 -1.1299
 7178TIP3    H243026   0.611   1.492   5.071 -0.0416 -1.0662  1.2872
 7179TIP3   OH243027   0.812   4.363  16.487 -0.4201 -0.5862  0.1768
 7179TIP3    H143028   0.794   4.356  16.581 -1.7955  3.6108  0.3248
 7179TIP3    H243029   0.882   4.427  16.480  0.3392 -1.5718 -1.6493
 7180TIP3   OH243030   1.208   0.831  14.419  0.2458  0.0424  0.4922
 7180TIP3    H143031   1.182   0.853  14.508 -1.2522  1.7419 -0.3337
 7180TIP3    H243032   1.130   0.788  14.381 -0.2256  2.0672 -0.9221
 7181TIP3   OH243033   0.163   4.903   0.789  0.2101  0.0920  0.3636
 7181TIP3    H143034   0.105   4.962   0.741 -0.6753 -0.8745  0.2400
 7181TIP3    H243035   0.216   4.860   0.721 -2.0990 -2.4197  0.0721
 7182TIP3   OH243036   4.219   0.730   5.506 -0.0768 -0.4380 -0.5741
 7182TIP3    H143037   4.130   0.730   5.542 -0.4613 -1.3115 -1.4909
 7182TIP3    H243038   4.222   0.806   5.449 -0.4007 -0.6736 -0.9115
 7183TIP3   OH243039   4.926   1.179  12.715 -0.0459  0.7631 -0.1607
 7183TIP3    H143040   4.951   1.249  12.775 -1.1605  2.1886 -1.3254
 7183TIP3    H243041   4.912   1.224  12.631 -0.6798 -0.8782 -0.9476
 7184TIP3   OH243042   2.285   5.527   1.894  0.4782 -0.3790  0.1368
 7184TIP3    H143043   2.321   5.440   1.914  1.8477  0.3260  0.8191
 7184TIP3    H243044   2.323   5.584   1.961  0.4842  0.9520 -0.9793
 7185TIP3   OH243045   4.717   5.660   5.547  0.4757 -0.6661  0.1585
 7185TIP3    H143046   4.686   5.751   5.544  1.5929 -0.2982 -0.7711
 7185TIP3    H243047   4.786   5.661   5.613  0.3832 -0.8624  0.2550
 7186TIP3   OH243048   1.418   5.868  12.908  0.5831 -0.4748 -0.0141
 7186TIP3    H143049   1.454   5.872  12.819 -0.0062  1.7285 -0.1849
 7186TIP3    H243050   1.492   5.890  12.964  0.2178  1.2336 -0.1801
 7187TIP3   OH243051   4.868   6.252   0.270 -0.4411  0.9714  0.0530
 7187TIP3    H143052   4.814   6.249   0.349 -0.4703 -0.6143 -0.0137
 7187TIP3    H243053   4.933   6.321   0.288 -0.3174  0.4828  1.5345
 7188TIP3   OH243054   1.400   6.286  10.692  0.6668 -0.2419 -0.1477
 7188TIP3    H143055   1.333   6.255  10.632 -0.1323  0.0977  0.5466
 7188TIP3    H243056   1.425   6.372  10.658  0.5851 -0.2738 -0.2894
 7189TIP3   OH243057   4.145   1.087  11.486  0.2081 -0.3669  0.5910
 7189TIP3    H143058   4.125   1.172  11.447 -0.7510 -0.2628  1.2779
 7189TIP3    H243059   4.059   1.048  11.503  0.6340 -2.3766 -1.6225
 7190TIP3   OH243060   0.447   3.000   4.737  0.2580  0.2113  0.4212
 7190TIP3    H143061   0.353   3.018   4.731  0.4463  0.7409 -1.0886
 7190TIP3    H243062   0.487   3.086   4.749  0.4543 -0.1601  2.8131
 7191TIP3   OH243063   6.392   4.972   3.299 -0.6597  0.6525 -0.2657
 7191TIP3    H143064   6.356   4.895   3.342 -0.5886  0.7291 -0.0697
 7191TIP3    H243065   6.487   4.958   3.301 -0.5798  1.2817  0.7822
 7192TIP3   OH243066   5.811   0.161  14.938 -0.2635 -0.3166 -0.2300
 7192TIP3    H143067   5.727   0.148  14.981 -0.1150  0.4405  0.2971
 7192TIP3    H243068   5.840   0.247  14.968  0.6587 -0.5397 -0.4773
 7193TIP3   OH243069   4.610   6.573   0.692  0.8130 -0.0387 -0.2163
 7193TIP3    H143070   4.574   6.490   0.662  1.8461 -0.2167 -1.0315
 7193TIP3    H243071   4.583   6.580   0.784  0.4914 -1.1473 -0.2186
 7194TIP3   OH243072   6.063   1.526   0.950  0.2887 -0.6684  0.8618
 7194TIP3    H143073   6.022   1.524   0.864 -2.4387 -0.6658  2.1153
 7194TIP3    H243074   6.139   1.584   0.939  1.0481 -2.1216 -1.9451
 7195TIP3   OH243075   6.370   4.771   6.417  0.7553  0.1282 -0.0947
 7195TIP3    H143076   6.455   4.754   6.458 -0.7648 -2.3098  2.1844
 7195TIP3    H243077   6.318   4.813   6.485  0.0166  1.4502 -1.4265
 7196TIP3   OH243078   0.961   5.650  11.834  0.3291 -0.5977  0.0748
 7196TIP3    H143079   0.897   5.582  11.855  0.0369 -0.1212  0.7464
 7196TIP3    H243080   0.966   5.703  11.914  2.0330 -1.0126  0.2661
 7197TIP3   OH243081   4.931   3.820  11.543  0.1061  0.4210 -0.0252
 7197TIP3    H143082   4.975   3.828  11.458 -0.6827  0.4317 -0.4397
 7197TIP3    H243083   4.868   3.748  11.530  1.6861 -1.2391  1.2862
 7198TIP3   OH243084   2.428   3.192  14.695 -0.2893 -0.1004  0.4093
 7198TIP3    H143085   2.418   3.246  14.616 -3.0063  0.7735  1.2711
 7198TIP3    H243086   2.432   3.102  14.663  1.5559  0.4236 -0.8819
 7199TIP3   OH243087   5.647   1.052   2.874 -0.1090  0.1029 -0.2669
 7199TIP3    H143088   5.700   1.070   2.952 -0.3584 -0.0137 -0.0676
 7199TIP3    H243089   5.573   1.001   2.908  0.6758 -1.4371 -0.8333
 7200TIP3   OH243090   2.047   2.618  13.650  0.2872  0.0195 -0.0101
 7200TIP3    H143091   2.025   2.709  13.633 -0.2379  0.3048  2.0906
 7200TIP3    H243092   1.973   2.568  13.614 -1.6004  0.7065  2.7233
 7201TIP3   OH243093   0.494   1.769   4.683 -0.7263  0.2031 -0.2862
 7201TIP3    H143094   0.531   1.851   4.715  0.0561  0.2549 -1.2866
 7201TIP3    H243095   0.563   1.704   4.697  0.2093  0.4908 -3.0961
 7202TIP3   OH243096   0.207   0.321  13.851  0.4203 -0.4198 -0.2933
 7202TIP3    H143097   0.189   0.251  13.788 -1.3386  0.9117 -1.2955
 7202TIP3    H243098   0.298   0.344  13.836  0.7348 -1.8010 -0.6305
 7203TIP3   OH243099   0.726   5.100   0.452  0.3364  0.3334 -0.0368
 7203TIP3    H143100   0.789   5.047   0.403  1.9271  0.3979  1.8920
 7203TIP3    H243101   0.641   5.064   0.428  1.2647 -1.5760 -0.5496
 7204TIP3   OH243102   3.044   5.066  16.418  0.3945  0.0354 -0.4378
 7204TIP3    H143103   3.107   5.016  16.470 -1.2249 -1.2024  0.3527
 7204TIP3    H243104   2.959   5.036  16.448 -0.6029  2.2432 -0.9779
 7205TIP3   OH243105   4.795   0.155   2.241  0.5918 -0.0430  1.0009
 7205TIP3    H143106   4.727   0.139   2.176  1.6541  0.5893 -0.2871
 7205TIP3    H243107   4.807   0.250   2.240  1.4851 -0.1477  1.2192
 7206TIP3   OH243108   3.199   6.684   4.766 -0.1794 -0.0765 -0.3592
 7206TIP3    H143109   3.150   6.727   4.696 -0.6425  0.5922  0.3614
 7206TIP3    H243110   3.235   6.605   4.726  0.9463  1.1474 -1.7863
 7207TIP3   OH243111   4.665   2.301   2.379  0.1590 -0.6637  0.1176
 7207TIP3    H143112   4.603   2.234   2.408  0.4311 -1.8078 -1.9139
 7207TIP3    H243113   4.632   2.330   2.294  0.5833  1.1147  0.5252
 7208TIP3   OH243114   2.937   3.004   3.070 -0.2653  0.5115 -0.3928
 7208TIP3    H143115   2.911   3.044   3.153 -0.0722  1.0713 -0.5997
 7208TIP3    H243116   3.032   2.997   3.076 -0.3388 -0.2804 -0.1942
 7209TIP3   OH243117   5.099   5.900   1.989 -0.5337 -0.3670  0.1705
 7209TIP3    H143118   5.089   5.921   2.082 -0.5267  0.1573  0.0541
 7209TIP3    H243119   5.164   5.829   1.988  1.6446  1.5697  0.3703
 7210TIP3   OH243120   2.315   0.708   4.053  0.1415  0.0582  0.2618
 7210TIP3    H143121   2.344   0.632   4.003  1.3159  1.4752 -1.2693
 7210TIP3    H243122   2.381   0.719   4.121  0.3196  0.0922  0.0837
 7211TIP3   OH243123   2.272   3.367   5.047  0.0055 -0.0747  0.5031
 7211TIP3    H143124   2.277   3.283   5.002 -1.4293  1.0143 -1.7515
 7211TIP3    H243125   2.363   3.393   5.061  0.4496 -1.4982  0.3077
 7212TIP3   OH243126   1.736   4.210   0.732  0.4543  0.1189  0.2167
 7212TIP3    H143127   1.831   4.205   0.723  0.3171  0.7929 -1.8129
 7212TIP3    H243128   1.719   4.299   0.761  0.4978 -0.3723  1.8304
 7213TIP3   OH243129   5.893   5.296   5.548  0.5662  0.5515  0.3288
 7213TIP3    H143130   5.934   5.348   5.617  1.5107 -1.3814  1.2710
 7213TIP3    H243131   5.966   5.267   5.492  0.0997 -0.0181  0.0024
 7214TIP3   OH243132   5.919   3.488   4.569 -0.1645  0.0844  0.3819
 7214TIP3    H143133   5.843   3.547   4.560  0.0002  0.2998  0.4028
 7214TIP3    H243134   5.977   3.534   4.630  1.3177  1.3051 -1.8843
 7215TIP3   OH243135   3.572   3.291   5.060  0.1717  0.2351 -0.3939
 7215TIP3    H143136   3.513   3.345   5.007 -0.5279  1.3503  1.4412
 7215TIP3    H243137   3.519   3.216   5.086 -0.5331  1.3009  1.3614
 7216TIP3   OH243138   3.729   3.714   1.013 -0.6565  0.7286 -0.0480
 7216TIP3    H143139   3.815   3.675   1.029 -0.5574 -0.5891 -3.4282
 7216TIP3    H243140   3.668   3.642   1.029 -0.7310  0.1509 -2.8200
 7217TIP3   OH243141   2.213   5.853  14.575  0.4039 -0.1381  0.4490
 7217TIP3    H143142   2.295   5.864  14.623 -0.1371 -1.5313  1.7395
 7217TIP3    H243143   2.194   5.759  14.582 -0.1223 -0.2205 -1.7976
 7218TIP3   OH243144   6.286   2.719  14.633 -0.0807  0.1100  0.2978
 7218TIP3    H143145   6.360   2.663  14.656 -0.2220 -1.1628 -2.1224
 7218TIP3    H243146   6.320   2.777  14.565 -1.0938 -0.0368 -0.3503
 7219TIP3   OH243147   3.574   3.385   1.874  0.5348  0.3657  0.3062
 7219TIP3    H143148   3.604   3.476   1.882  1.4822  0.1305 -0.5198
 7219TIP3    H243149   3.612   3.354   1.792  1.0285 -1.0912  1.0779
 7220TIP3   OH243150   5.082   3.822  15.024  0.8617  0.7069  0.1051
 7220TIP3    H143151   5.100   3.904  14.977  0.3519 -1.1673 -3.5705
 7220TIP3    H243152   4.986   3.818  15.030  0.8551  0.0812 -0.3377
 7221TIP3   OH243153   5.909   2.455   1.755 -0.4839 -0.5308  0.2581
 7221TIP3    H143154   5.895   2.495   1.669  1.9622  1.0151  0.5303
 7221TIP3    H243155   5.923   2.362   1.736  1.1981 -0.0058 -1.1440
 7222TIP3   OH243156   0.274   5.129  16.284 -0.0029  0.3696 -0.1182
 7222TIP3    H143157   0.251   5.176  16.204 -1.9254 -0.8525 -0.3031
 7222TIP3    H243158   0.295   5.040  16.256  0.4046  0.2230  0.6157
 7223TIP3   OH243159   2.446   3.169  17.282 -0.2298 -0.0227  0.0916
 7223TIP3    H143160   2.387   3.115  17.334 -1.1369 -0.0453 -0.9439
 7223TIP3    H243161   2.425   3.146  17.191  0.2462  1.1677 -0.3230
 7224TIP3   OH243162   2.668   4.507  14.006  0.3696  0.1765  0.1990
 7224TIP3    H143163   2.677   4.532  13.914  0.3671  1.3273  0.5093
 7224TIP3    H243164   2.603   4.568  14.041 -1.0096 -1.4415  0.5119
 7225TIP3   OH243165   2.701   1.543  14.516  0.5282 -0.0094  0.2064
 7225TIP3    H143166   2.662   1.623  14.482  0.5097  0.5703  1.5603
 7225TIP3    H243167   2.780   1.530  14.462  1.2209  1.6156  0.7981
 7226TIP3   OH243168   3.255   0.077  15.295 -0.0010 -0.2046  0.9270
 7226TIP3    H143169   3.292   0.104  15.211  1.6910  1.6247  2.2131
 7226TIP3    H243170   3.160   0.074  15.279  0.1864  1.3400 -0.7231
 7227TIP3   OH243171   0.817   2.785   0.616 -0.1518 -0.5282  0.4156
 7227TIP3    H143172   0.848   2.736   0.540  0.2386 -1.2347  1.0282
 7227TIP3    H243173   0.737   2.741   0.642  1.5962 -2.5613  2.6128
 7228TIP3   OH243174   0.725   4.943  15.035 -0.1893 -0.2826 -0.4143
 7228TIP3    H143175   0.726   4.909  14.946 -1.4216  0.7751 -0.8394
 7228TIP3    H243176   0.817   4.951  15.059  0.2286  1.7432 -2.4913
 7229TIP3   OH243177   5.608   2.050  14.241 -0.1629  0.3824  0.4276
 7229TIP3    H143178   5.691   2.095  14.224  0.1402 -0.2515  0.2116
 7229TIP3    H243179   5.577   2.023  14.154  0.0280 -0.4746  0.6156
 7230TIP3   OH243180   6.057   0.806   4.174  0.2759  0.0636  0.9777
 7230TIP3    H143181   6.094   0.873   4.231  3.2238 -1.7929  1.3066
 7230TIP3    H243182   6.123   0.737   4.170 -1.9208 -2.0494 -0.7916
 7231TIP3   OH243183   0.480   4.169  13.515  0.1815  0.0375 -0.4426
 7231TIP3    H143184   0.535   4.098  13.549 -1.5722 -1.0425  0.2294
 7231TIP3    H243185   0.396   4.127  13.498 -0.8009  1.9100 -0.2708
 7232TIP3   OH243186   0.891   2.075   5.060 -0.0549 -0.0391 -0.6329
 7232TIP3    H143187   0.855   2.062   5.148 -0.2202 -0.9948 -0.8334
 7232TIP3    H243188   0.826   2.036   5.001  0.1185  0.4729 -1.1694
 7233TIP3   OH243189   1.650   3.525  15.544 -0.0509  0.1241  0.2299
 7233TIP3    H143190   1.671   3.481  15.626 -1.6551  0.4119  0.7933
 7233TIP3    H243191   1.622   3.613  15.569 -0.7601  0.1460 -0.6132
 7234TIP3   OH243192   2.464   1.887  17.143 -0.2532 -0.0343  0.4190
 7234TIP3    H143193   2.549   1.861  17.180 -0.0645 -0.7695 -0.5120
 7234TIP3    H243194   2.403   1.820  17.174 -0.3970  0.1916  0.6335
 7235TIP3   OH243195   0.979   6.759  13.598  0.3993 -0.2923  0.1486
 7235TIP3    H143196   1.039   6.704  13.647  1.9256  0.0001 -1.3244
 7235TIP3    H243197   1.026   6.841  13.585 -0.8616  0.4547  0.1451
 7236TIP3   OH243198   6.044   6.679  15.810 -0.0389  0.3521  0.5942
 7236TIP3    H143199   6.025   6.613  15.876  1.3215 -0.5842  0.0787
 7236TIP3    H243200   6.074   6.629  15.734  0.7743  1.5352  0.1121
 7237TIP3   OH243201   3.129   4.656  14.955  0.0909 -0.5263 -0.1865
 7237TIP3    H143202   3.171   4.706  14.885  1.4705 -1.6170 -0.1553
 7237TIP3    H243203   3.122   4.718  15.027 -0.3582  0.2979 -0.9251
 7238TIP3   OH243204   0.527   6.084  13.448 -0.2154  0.0049 -0.2208
 7238TIP3    H143205   0.492   6.161  13.493  0.2483  0.2150 -0.2142
 7238TIP3    H243206   0.451   6.044  13.407 -0.3233  0.9990 -1.0255
 7239TIP3   OH243207   5.989   5.595  14.321  0.0810  0.7807 -0.3050
 7239TIP3    H143208   5.899   5.561  14.322  0.3679 -0.0042 -1.2172
 7239TIP3    H243209   6.019   5.580  14.231  1.2730  0.6745  0.1142
 7240TIP3   OH243210   3.684   4.177   4.451 -0.4773  0.3876 -0.4986
 7240TIP3    H143211   3.618   4.110   4.469 -0.1835  0.1189 -0.4010
 7240TIP3    H243212   3.732   4.185   4.534 -0.2595  0.4341 -0.6299
 7241TIP3   OH243213   2.780   6.687   1.782 -0.0107 -0.0062  0.3231
 7241TIP3    H143214   2.750   6.716   1.869 -0.3981  0.4428  0.0430
 7241TIP3    H243215   2.846   6.620   1.801 -1.2911 -1.1212  0.9650
 7242TIP3   OH243216   2.108   1.812   1.175  0.0452  0.0224 -0.1853
 7242TIP3    H143217   2.156   1.870   1.234 -1.4420  1.6633 -0.5530
 7242TIP3    H243218   2.029   1.787   1.223 -0.4777  0.2092 -0.9277
 7243TIP3   OH243219   3.931   1.899   5.555 -0.0305 -0.0150  0.3257
 7243TIP3    H143220   4.015   1.876   5.515  0.8359 -0.9291  2.5715
 7243TIP3    H243221   3.891   1.815   5.577 -2.1422  0.3670 -1.8179
 7244TIP3   OH243222   0.460   4.464  11.228  0.0261  0.4932  0.1000
 7244TIP3    H143223   0.444   4.525  11.300 -0.7736  0.0980  0.2635
 7244TIP3    H243224   0.530   4.505  11.177  0.6167  0.7605  1.1129
 7245TIP3   OH243225   4.025   4.102  12.905  0.0188  0.4042  0.2819
 7245TIP3    H143226   4.080   4.180  12.896  2.0143 -0.8839  1.0366
 7245TIP3    H243227   4.012   4.092  12.999 -1.6587  0.7670  0.1094
 7246TIP3   OH243228   5.146   6.319  12.475  0.3912 -0.1399 -0.0540
 7246TIP3    H143229   5.063   6.330  12.428 -0.4129  0.1705  1.4127
 7246TIP3    H243230   5.206   6.381  12.433  0.5010 -1.8623 -2.5127
 7247TIP3   OH243231   6.416   3.661   3.536 -0.1408 -0.1629 -0.0568
 7247TIP3    H143232   6.418   3.672   3.441 -1.0156 -0.0698 -0.0688
 7247TIP3    H243233   6.461   3.738   3.570  0.6032 -0.4372 -0.4089
 7248TIP3   OH243234   3.794   1.052   4.263 -0.1936 -0.5507  0.4562
 7248TIP3    H143235   3.870   1.055   4.203 -0.0147  2.7519  0.7460
 7248TIP3    H243236   3.728   1.107   4.220 -2.1491 -2.7036  0.6377
 7249TIP3   OH243237   2.458   2.364  10.848  0.2389  0.0585 -0.0776
 7249TIP3    H143238   2.502   2.380  10.931 -0.0564 -1.2765  0.3565
 7249TIP3    H243239   2.366   2.351  10.872  0.2896 -1.1678 -0.5062
 7250TIP3   OH243240   2.897   4.219  14.841 -0.3235 -0.0181 -0.3848
 7250TIP3    H143241   2.869   4.146  14.897 -0.0133 -0.9176 -1.3865
 7250TIP3    H243242   2.932   4.177  14.762  3.4878  1.0574  0.6204
 7251TIP3   OH243243   5.379   5.336  11.397  0.4125 -0.1878 -0.1177
 7251TIP3    H143244   5.296   5.290  11.410  0.4179  0.1973  1.3919
 7251TIP3    H243245   5.363   5.425  11.427  1.2643 -0.0049 -0.1816
 7252TIP3   OH243246   6.561   4.430  13.967  0.3878 -0.2065  0.1698
 7252TIP3    H143247   6.647   4.443  14.005  0.5227 -1.9320  0.5040
 7252TIP3    H243248   6.562   4.482  13.886  1.5029  0.2979  0.5042
 7253TIP3   OH243249   5.317   6.693   1.558  0.3959  0.7806 -0.0690
 7253TIP3    H143250   5.284   6.775   1.594 -0.6457 -0.0195  0.8409
 7253TIP3    H243251   5.412   6.698   1.568  0.2280  1.2668  1.2770
 7254TIP3   OH243252   0.533   4.383   3.071  0.1919 -0.0425  0.3449
 7254TIP3    H143253   0.516   4.465   3.117 -0.0601 -0.0506  0.2673
 7254TIP3    H243254   0.449   4.359   3.033  0.7965  0.8559 -1.5801
 7255TIP3   OH243255   1.410   1.768  16.239 -0.7136 -0.0582 -0.1413
 7255TIP3    H143256   1.365   1.727  16.165 -1.1668  0.6933 -0.2831
 7255TIP3    H243257   1.464   1.836  16.200  0.1492 -0.6024  0.0817
 7256TIP3   OH243258   4.797   1.256   5.329 -0.5466 -0.0821  0.6723
 7256TIP3    H143259   4.814   1.164   5.347  0.6795  0.3582  1.7785
 7256TIP3    H243260   4.731   1.281   5.393  1.1343  0.5214  2.1902
 7257TIP3   OH243261   6.659   0.566  16.488 -0.5141  0.0400 -0.5458
 7257TIP3    H143262   6.690   0.623  16.558  0.3774  1.9164 -2.4341
 7257TIP3    H243263   6.708   0.485  16.499  0.2124  0.6220  0.5126
 7258TIP3   OH243264   5.719   3.672   2.499  0.1104  0.0005 -0.3351
 7258TIP3    H143265   5.747   3.730   2.570 -0.2447 -1.2331  0.8268
 7258TIP3    H243266   5.750   3.585   2.525 -2.6689 -0.9903 -0.1984
 7259TIP3   OH243267   4.739   1.788  14.988  0.2005  0.5013 -0.6762
 7259TIP3    H143268   4.677   1.860  14.978 -0.0217  0.4843  0.5426
 7259TIP3    H243269   4.823   1.832  15.003  0.0574  0.5060  0.1112
 7260TIP3   OH243270   3.383   0.072  14.084 -0.6071 -0.0495 -0.2328
 7260TIP3    H143271   3.446   0.001  14.072 -0.8291 -0.3641  0.4534
 7260TIP3    H243272   3.409   0.114  14.166 -1.2568 -0.1537  0.0303
 7261TIP3   OH243273   5.020   0.701  16.462 -0.2691  0.0581  0.0632
 7261TIP3    H143274   5.091   0.717  16.523 -1.0203 -3.1141  1.8646
 7261TIP3    H243275   5.063   0.676  16.380  0.6919  1.2817  0.1835
 7262TIP3   OH243276   6.128   5.500  12.520 -0.7240 -0.5314 -0.0217
 7262TIP3    H143277   6.058   5.539  12.572  0.1586  0.1756  0.6452
 7262TIP3    H243278   6.203   5.558  12.532  0.1214 -1.5277 -0.3476
 7263TIP3   OH243279   1.010   4.847   2.459 -0.3295  0.2112 -0.3432
 7263TIP3    H143280   1.004   4.883   2.370 -0.8914  2.0885  0.4447
 7263TIP3    H243281   0.919   4.832   2.484 -0.0683 -3.1210 -1.1729
 7264TIP3   OH243282   5.480   1.789  15.579  0.3330 -0.2457 -0.5001
 7264TIP3    H143283   5.558   1.824  15.536 -0.3442  1.4224 -0.4254
 7264TIP3    H243284   5.513   1.731  15.647  1.4671 -0.8913 -1.6039
 7265TIP3   OH243285   2.072   4.419  16.100  0.7839 -0.8262 -0.5893
 7265TIP3    H143286   2.023   4.406  16.019  1.8384  0.2910 -1.4393
 7265TIP3    H243287   2.005   4.421  16.169 -0.4720  1.5898 -1.8181
 7266TIP3   OH243288   0.085   2.757  13.488 -0.2318 -0.1608 -0.5308
 7266TIP3    H143289   0.093   2.803  13.572 -0.2976 -0.3392 -0.4279
 7266TIP3    H243290   0.167   2.708  13.480  0.9496  1.9338 -1.8165
 7267TIP3   OH243291   6.702   2.366  16.273  0.1705 -0.1301  0.5289
 7267TIP3    H143292   6.699   2.312  16.195  0.0830  0.1441  0.3409
 7267TIP3    H243293   6.735   2.307  16.342  1.0596 -0.1371  0.0993
 7268TIP3   OH243294   1.189   6.261  16.848  0.4000  0.0899 -0.3369
 7268TIP3    H143295   1.236   6.344  16.847 -2.2121  1.6382  0.7952
 7268TIP3    H243296   1.145   6.256  16.763 -0.4068  0.4717  0.0475
 7269TIP3   OH243297   3.879   3.066   3.356 -0.1382  0.1903 -0.1461
 7269TIP3    H143298   3.786   3.072   3.332 -0.2653  0.3576  0.3790
 7269TIP3    H243299   3.916   3.004   3.293 -0.9361 -1.0963  0.6215
 7270TIP3   OH243300   2.507   5.898   2.254 -0.1390 -0.9568 -0.1839
 7270TIP3    H143301   2.509   5.960   2.328 -0.6067  1.3267 -2.0300
 7270TIP3    H243302   2.582   5.924   2.200 -0.7112 -1.6275 -1.2879
 7271TIP3   OH243303   6.269   6.466  11.917 -0.5639  0.3108  0.0667
 7271TIP3    H143304   6.205   6.396  11.906  0.3087 -0.8598  2.1157
 7271TIP3    H243305   6.240   6.514  11.995  0.8290  0.0006  0.7959
 7272TIP3   OH243306   5.377   0.202   2.231  0.1639 -0.2550 -0.1375
 7272TIP3    H143307   5.424   0.273   2.275 -0.5532  0.5061 -0.5922
 7272TIP3    H243308   5.294   0.195   2.276  1.0478 -2.2432  1.2789
 7273TIP3   OH243309   2.147   5.005  11.702 -0.5315  0.1799  0.1463
 7273TIP3    H143310   2.200   4.957  11.639 -1.8231  0.4085 -1.1306
 7273TIP3    H243311   2.162   4.960  11.785  2.3812  0.8013  0.0312
 7274TIP3   OH243312   6.764   6.206   5.745 -1.4628 -0.0027  0.2457
 7274TIP3    H143313   6.765   6.186   5.838 -0.4356 -0.6951  0.0905
 7274TIP3    H243314   6.764   6.120   5.702 -0.3484  0.3123 -0.3970
 7275TIP3   OH243315   1.828   3.093   2.484  0.1336  0.0790 -0.0623
 7275TIP3    H143316   1.742   3.055   2.464  0.3648 -0.3152 -0.3090
 7275TIP3    H243317   1.831   3.094   2.580 -0.9658  1.9568 -0.0278
 7276TIP3   OH243318   1.531   2.873   1.105  0.6900  0.0779 -0.2627
 7276TIP3    H143319   1.526   2.917   1.191  0.2237 -0.5956  0.0567
 7276TIP3    H243320   1.507   2.782   1.123 -3.1401  0.6997 -1.6988
 7277TIP3   OH243321   2.478   2.340  13.836 -0.0435  0.1063 -0.2158
 7277TIP3    H143322   2.388   2.370  13.825 -0.9183 -2.7642 -1.3907
 7277TIP3    H243323   2.486   2.319  13.929 -0.2643  1.3353  0.0806
 7278TIP3   OH243324   1.042   6.776  12.624 -0.3665 -0.1879  0.0639
 7278TIP3    H143325   1.055   6.831  12.701 -2.0949  1.9073 -1.0640
 7278TIP3    H243326   0.947   6.767  12.617 -0.2571  0.0210 -2.0477
 7279TIP3   OH243327   1.759   1.876  14.791 -0.3765 -0.3875  0.0587
 7279TIP3    H143328   1.847   1.912  14.800 -0.6249 -0.0374  1.1584
 7279TIP3    H243329   1.722   1.920  14.715  1.6965 -3.2147 -2.7304
 7280TIP3   OH243330   1.495   4.536  12.571 -0.0331  0.0627  0.2842
 7280TIP3    H143331   1.417   4.485  12.591  0.8372 -1.2869  0.2568
 7280TIP3    H243332   1.549   4.529  12.650  1.9015 -2.4689 -1.2261
 7281TIP3   OH243333   5.771   2.954  16.072  0.6238  0.3619 -0.0851
 7281TIP3    H143334   5.837   3.000  16.123  2.4217 -1.8568 -0.3408
 7281TIP3    H243335   5.735   2.888  16.133  0.6571 -0.3118 -0.7872
 7282TIP3   OH243336   2.640   3.775  15.185  0.1460 -0.3606  0.0320
 7282TIP3    H143337   2.614   3.709  15.121  0.0564 -0.0241 -0.2765
 7282TIP3    H243338   2.728   3.800  15.158 -1.0079  1.9449 -1.7324
 7283TIP3   OH243339   5.853   4.198   4.619  0.8165 -0.0343  0.1792
 7283TIP3    H143340   5.878   4.285   4.650 -0.3525  0.4210 -0.1432
 7283TIP3    H243341   5.936   4.150   4.614  1.4027  0.8818  0.8946
 7284TIP3   OH243342   3.598   5.604   0.942  0.3103  0.4847  0.4315
 7284TIP3    H143343   3.623   5.686   0.983 -1.3405  1.2970 -0.1372
 7284TIP3    H243344   3.653   5.598   0.864  1.6228  0.1979  1.3568
 7285TIP3   OH243345   4.402   1.959  13.217  0.0587 -0.2229 -0.7036
 7285TIP3    H143346   4.346   1.883  13.234  1.0336 -0.5492  1.2511
 7285TIP3    H243347   4.383   2.018  13.290  0.9298  0.4392 -1.0137
 7286TIP3   OH243348   1.223   2.756   2.502  0.1050  0.4427 -0.4278
 7286TIP3    H143349   1.266   2.723   2.581 -1.6158  1.2769  0.8823
 7286TIP3    H243350   1.168   2.683   2.473  0.2396  0.3610 -0.4780
 7287TIP3   OH243351   2.874   1.747   3.521  0.4892  0.0639 -0.0308
 7287TIP3    H143352   2.942   1.755   3.454 -1.1102  0.7253 -1.6239
 7287TIP3    H243353   2.835   1.834   3.525  2.0013  0.6646  3.3980
 7288TIP3   OH243354   5.781   1.950  16.506  0.2297 -0.1687 -0.0733
 7288TIP3    H143355   5.869   1.963  16.541 -0.4215 -1.1890  1.9986
 7288TIP3    H243356   5.786   1.867  16.459  0.0841 -0.8575  1.0990
 7289TIP3   OH243357   4.476   4.061   4.232 -0.4967  0.2149 -0.3960
 7289TIP3    H143358   4.437   4.105   4.157 -0.2755  0.8326 -0.1507
 7289TIP3    H243359   4.486   3.970   4.204  1.7184  0.9077 -1.9600
 7290TIP3   OH243360   5.053   1.272   4.041 -0.1737  0.1109 -0.4381
 7290TIP3    H143361   5.085   1.186   4.070 -1.5503 -0.9643 -2.0248
 7290TIP3    H243362   5.119   1.302   3.978 -0.0481 -0.0970 -0.4084
 7291TIP3   OH243363   4.552   6.218   4.464 -0.1093 -0.1772 -0.2928
 7291TIP3    H143364   4.644   6.199   4.448  0.1233  0.4561  0.2715
 7291TIP3    H243365   4.544   6.219   4.559 -0.5783  0.3215 -0.3358
 7292TIP3   OH243366   0.543   0.426  11.220 -0.1749 -0.3730  0.7458
 7292TIP3    H143367   0.606   0.430  11.293 -0.0707 -0.3534  0.6544
 7292TIP3    H243368   0.588   0.375  11.153 -0.5539 -1.0084  0.9675
 7293TIP3   OH243369   0.534   4.585  15.223  0.3512 -0.6851  0.3988
 7293TIP3    H143370   0.574   4.543  15.147  0.5721 -1.2985  0.8473
 7293TIP3    H243371   0.607   4.623  15.271 -0.1199  3.2269 -1.7537
 7294TIP3   OH243372   4.329   4.514   0.158  0.4221 -0.2498 -0.0719
 7294TIP3    H143373   4.366   4.492   0.072  0.8961  0.6180 -0.0909
 7294TIP3    H243374   4.372   4.454   0.219  0.1523 -0.8085 -0.4139
 7295TIP3   OH243375   0.829   6.299  10.370 -0.6542  0.1084 -0.1231
 7295TIP3    H143376   0.780   6.259  10.442 -2.4910  1.2845 -0.6857
 7295TIP3    H243377   0.881   6.368  10.411  1.1644 -1.6595  0.5933
 7296TIP3   OH243378   1.284   1.923  16.918 -0.7752 -0.1469 -0.7296
 7296TIP3    H143379   1.338   1.996  16.948 -1.2857 -0.6970  1.6011
 7296TIP3    H243380   1.195   1.945  16.947 -0.9150 -1.7285  0.1137
 7297TIP3   OH243381   3.015   4.987   0.030  0.0239  0.1333  0.8244
 7297TIP3    H143382   3.080   5.037   0.080  0.8025  0.5935 -0.6286
 7297TIP3    H243383   3.051   4.899   0.025 -0.0943  0.0666  1.1527
 7298TIP3   OH243384   5.704   3.723  13.895 -0.1237  0.4433  0.0130
 7298TIP3    H143385   5.610   3.708  13.905 -0.2233 -0.8818 -2.4506
 7298TIP3    H243386   5.743   3.683  13.972 -1.5115  0.2797  0.6519
 7299TIP3   OH243387   1.170   0.868   2.176 -0.0172  0.3242 -0.2328
 7299TIP3    H143388   1.211   0.867   2.089 -1.8688 -0.8588 -1.1291
 7299TIP3    H243389   1.194   0.783   2.214 -0.3256  0.2825 -0.1340
 7300TIP3   OH243390   2.815   0.129   6.391  0.4344 -0.5552 -0.1079
 7300TIP3    H143391   2.903   0.159   6.413  0.1806 -0.5374  0.8770
 7300TIP3    H243392   2.758   0.172   6.455 -0.2443 -0.8884 -0.4867
 7301TIP3   OH243393   6.639   3.970   0.506 -0.6475  0.2641  0.1815
 7301TIP3    H143394   6.563   3.996   0.557 -0.3715 -1.0125  1.2496
 7301TIP3    H243395   6.620   3.881   0.477  0.5758 -0.1883  0.7352
 7302TIP3   OH243396   3.801   1.719  14.544 -0.0059  0.1962 -0.4841
 7302TIP3    H143397   3.832   1.719  14.454 -0.1543 -2.1820 -0.5495
 7302TIP3    H243398   3.865   1.773  14.591  1.9877 -1.3111 -1.3762
 7303TIP3   OH243399   4.868   6.528   2.881 -0.2079  0.1687  0.0287
 7303TIP3    H143400   4.826   6.591   2.940  1.6943  2.9198 -1.4314
 7303TIP3    H243401   4.930   6.480   2.936 -2.6254 -1.4424  1.4385
 7304TIP3   OH243402   1.920   0.835   2.646 -0.3107  0.3011  0.4509
 7304TIP3    H143403   1.927   0.914   2.593 -1.3655  0.4759  0.5589
 7304TIP3    H243404   1.898   0.766   2.583 -1.8988  0.5704  0.6825
 7305TIP3   OH243405   4.403   5.488   5.450  0.4611  0.1564  0.1279
 7305TIP3    H143406   4.312   5.508   5.427 -0.0360 -0.5985  1.3683
 7305TIP3    H243407   4.423   5.549   5.521  0.5160 -0.5020  0.6806
 7306TIP3   OH243408   1.685   5.991   0.134 -0.2743 -0.2471  0.2845
 7306TIP3    H143409   1.632   6.043   0.073  0.8520 -0.0151 -0.5134
 7306TIP3    H243410   1.621   5.936   0.179 -1.3139  0.7268  0.0526
 7307TIP3   OH243411   5.523   0.228  16.090  0.1382  0.1746 -0.2246
 7307TIP3    H143412   5.500   0.305  16.038  0.2311  0.1974 -0.2327
 7307TIP3    H243413   5.545   0.161  16.025  2.0512  0.7516 -0.1905
 7308TIP3   OH243414   6.263   2.192  11.913 -0.3652 -0.2155 -0.2193
 7308TIP3    H143415   6.281   2.257  11.980 -1.2332 -0.6058  0.3942
 7308TIP3    H243416   6.170   2.174  11.920 -0.3110 -0.8518 -0.9949
 7309TIP3   OH243417   4.361   2.198   0.863  0.6205  0.0988 -0.5023
 7309TIP3    H143418   4.385   2.151   0.783 -0.4040  0.3170 -0.9399
 7309TIP3    H243419   4.281   2.245   0.840  0.8407  0.8993  0.3774
 7310TIP3   OH243420   2.568   5.127  14.672 -0.2542 -0.1737  0.7719
 7310TIP3    H143421   2.561   5.037  14.642 -1.2495 -0.5007  1.9043
 7310TIP3    H243422   2.574   5.120  14.768 -0.7915  0.9601  0.9087
 7311TIP3   OH243423   4.910   4.216   1.046 -0.2154 -0.0147 -0.4531
 7311TIP3    H143424   4.841   4.213   1.112 -0.1638 -0.7308 -0.4295
 7311TIP3    H243425   4.896   4.138   0.993  1.3680 -0.8702  0.3494
 7312TIP3   OH243426   3.412   0.651   2.906  0.0991 -0.3091 -0.2479
 7312TIP3    H143427   3.405   0.612   2.993  0.4357  2.5144  1.1115
 7312TIP3    H243428   3.329   0.631   2.863  0.0177 -1.9045  0.6264
 7313TIP3   OH243429   4.696   6.461   3.719  0.5518 -0.2919  0.7660
 7313TIP3    H143430   4.656   6.421   3.796  0.7193  0.0147  1.0166
 7313TIP3    H243431   4.741   6.389   3.675 -0.3327 -0.6496  0.4419
 7314TIP3   OH243432   3.657   5.336  12.563  0.1465 -0.1277  0.0078
 7314TIP3    H143433   3.720   5.297  12.624  0.4564 -2.1136 -1.4901
 7314TIP3    H243434   3.701   5.412  12.527  0.1630  0.7501  1.8271
 7315TIP3   OH243435   6.344   3.436  15.164 -0.6275 -0.0778 -0.4467
 7315TIP3    H143436   6.392   3.435  15.081 -1.2429 -0.1533 -0.8030
 7315TIP3    H243437   6.393   3.497  15.220 -0.3371  0.1377 -0.9398
 7316TIP3   OH243438   1.238   0.057  15.391 -0.2128 -0.4131 -0.7900
 7316TIP3    H143439   1.180   0.129  15.367  1.2107  0.9523 -0.1918
 7316TIP3    H243440   1.276   0.029  15.308  0.6652  0.7740 -0.7897
 7317TIP3   OH243441   5.318   3.124   1.734 -0.6310 -0.0264  0.9108
 7317TIP3    H143442   5.392   3.179   1.760 -1.4509  0.6642  1.8252
 7317TIP3    H243443   5.280   3.169   1.660  0.1228 -0.6214  0.1458
 7318TIP3   OH243444   5.088   6.725   3.301  0.4063 -0.0084  0.0642
 7318TIP3    H143445   5.129   6.775   3.230  0.0458 -1.0071 -0.8665
 7318TIP3    H243446   5.123   6.764   3.381  1.4468  0.6181 -0.6778
 7319TIP3   OH243447   3.795   2.042  15.057 -0.2437 -0.3776  0.6177
 7319TIP3    H143448   3.815   1.950  15.038 -0.7153 -0.3044 -0.2497
 7319TIP3    H243449   3.705   2.053  15.025 -1.0287 -0.2166  2.7583
 7320TIP3   OH243450   0.305   0.188   3.316 -0.5818 -0.1771  0.0990
 7320TIP3    H143451   0.279   0.186   3.224  0.8462 -1.3731 -0.2929
 7320TIP3    H243452   0.365   0.115   3.326  2.3746  2.2636  1.0680
 7321TIP3   OH243453   5.259   4.245  12.961  0.6604 -0.4424 -0.2939
 7321TIP3    H143454   5.340   4.194  12.953  0.8332 -0.5437  1.8862
 7321TIP3    H243455   5.193   4.180  12.985  0.1604 -0.1549 -0.8634
 7322TIP3   OH243456   4.678   0.671  13.922  0.3042  0.2535  0.8167
 7322TIP3    H143457   4.727   0.621  13.987  1.0373 -1.3371 -0.9070
 7322TIP3    H243458   4.588   0.641  13.932  0.5263 -0.4880  0.6820
 7323TIP3   OH243459   3.052   4.738   1.354  0.0098  0.4375 -0.7305
 7323TIP3    H143460   3.089   4.817   1.392  0.8956 -0.3071 -0.0274
 7323TIP3    H243461   3.125   4.698   1.306 -0.3921 -0.0176 -0.9713
 7324TIP3   OH243462   5.935   1.560  15.265 -0.4255  0.6396  0.0261
 7324TIP3    H143463   6.029   1.573  15.277 -0.2303  1.5808 -2.3900
 7324TIP3    H243464   5.896   1.643  15.294 -0.4190  0.6556 -0.0111
 7325TIP3   OH243465   5.966   6.373   3.194 -0.1830  0.3626 -0.5385
 7325TIP3    H143466   5.957   6.288   3.237 -0.0264  0.4406 -0.3532
 7325TIP3    H243467   5.886   6.382   3.143  1.6960 -1.9581 -4.1616
 7326TIP3   OH243468   6.053   0.327  10.343 -0.0429  0.3427  0.1895
 7326TIP3    H143469   6.045   0.319  10.438 -0.7973  0.5207  0.1370
 7326TIP3    H243470   5.966   0.306  10.309 -1.0992  4.9267 -0.1802
 7327TIP3   OH243471   6.122   1.496  15.562  0.1858  0.0511 -0.1176
 7327TIP3    H143472   6.206   1.542  15.565  0.6635 -0.8685  1.0520
 7327TIP3    H243473   6.143   1.408  15.533 -0.3943 -0.1518  0.0725
 7328TIP3   OH243474   1.154   6.310  14.233  0.3165  0.2070  0.1900
 7328TIP3    H143475   1.196   6.396  14.235 -1.0453  0.8618  1.9107
 7328TIP3    H243476   1.216   6.254  14.186  1.6958  1.8754 -0.0219
 7329TIP3   OH243477   1.281   3.728   4.264  0.4734 -0.1946 -0.6656
 7329TIP3    H143478   1.337   3.770   4.330  0.0057  1.1603 -1.1203
 7329TIP3    H243479   1.343   3.691   4.201  0.9080 -0.9630  0.1926
 7330TIP3   OH243480   2.935   0.883  16.377 -0.4600 -0.2217  0.0899
 7330TIP3    H143481   2.842   0.902  16.363 -0.8567 -1.5287  0.9202
 7330TIP3    H243482   2.944   0.874  16.471  0.4627 -0.3713 -0.0088
 7331TIP3   OH243483   1.729   2.861   1.849  0.3173  0.0118  0.0103
 7331TIP3    H143484   1.689   2.840   1.764 -4.1857  0.0750  1.9609
 7331TIP3    H243485   1.713   2.955   1.860  3.3732  0.6160 -0.2154
 7332TIP3   OH243486   6.441   3.823   3.303 -0.4690 -0.0351 -0.5210
 7332TIP3    H143487   6.487   3.907   3.299 -2.4413  1.1484  0.6145
 7332TIP3    H243488   6.355   3.841   3.266 -0.1123 -2.1741 -2.4909
 7333TIP3   OH243489   4.016   1.167   5.156  0.3309  0.7547  0.0613
 7333TIP3    H143490   3.996   1.188   5.065 -0.3980  0.0573  0.0519
 7333TIP3    H243491   3.932   1.178   5.202  0.5400  0.4488  0.5215
 7334TIP3   OH243492   0.852   6.487   3.784 -0.7625 -0.0321  0.0930
 7334TIP3    H143493   0.916   6.528   3.843 -1.5101 -0.5813  1.2921
 7334TIP3    H243494   0.800   6.430   3.840 -1.4358 -0.6313 -1.1196
 7335TIP3   OH243495   6.134   1.585  13.442  0.0621  0.1908 -0.6249
 7335TIP3    H143496   6.187   1.636  13.381 -1.0366  2.0621 -0.0693
 7335TIP3    H243497   6.173   1.602  13.527  0.1493 -0.5168 -0.5208
 7336TIP3   OH243498   2.150   6.600   4.018  0.2727  0.7833  0.5265
 7336TIP3    H143499   2.186   6.602   3.929  0.3851  0.1719  0.5547
 7336TIP3    H243500   2.129   6.691   4.038  0.5644  0.9656  0.0005
 7337TIP3   OH243501   6.051   0.680   5.399  0.3069 -0.3723  0.0915
 7337TIP3    H143502   6.062   0.694   5.305  0.0562  2.0670  0.3826
 7337TIP3    H243503   6.140   0.678   5.433  0.4083 -1.5951 -0.2358
 7338TIP3   OH243504   1.246   1.940  15.898  0.6673  0.5016 -0.5040
 7338TIP3    H143505   1.169   1.899  15.937 -0.5832  1.1282 -2.2139
 7338TIP3    H243506   1.270   2.010  15.959 -1.2443  1.4552 -0.7858
 7339TIP3   OH243507   6.286   2.619  11.048 -0.2827  0.2332  0.6221
 7339TIP3    H143508   6.202   2.651  11.081 -0.8789 -0.0619 -0.5703
 7339TIP3    H243509   6.278   2.523  11.052  0.9332  0.1912  2.7989
 7340TIP3   OH243510   4.217   5.752  11.647 -0.0627  0.0277  0.0810
 7340TIP3    H143511   4.259   5.835  11.669 -0.8791  0.6884 -0.8023
 7340TIP3    H243512   4.210   5.753  11.551  3.0996 -2.6247 -0.2388
 7341TIP3   OH243513   1.098   1.746  15.467  0.2066  0.1111  0.6972
 7341TIP3    H143514   1.017   1.720  15.423 -0.0627  1.3142  0.4602
 7341TIP3    H243515   1.074   1.749  15.560 -0.0168  0.4438  0.6296
 7342TIP3   OH243516   0.387   4.333  12.188 -0.4383 -0.2801  0.7947
 7342TIP3    H143517   0.441   4.279  12.246 -0.8144 -0.4814  0.9554
 7342TIP3    H243518   0.305   4.286  12.181 -0.2739 -0.4290 -0.1764
 7343TIP3   OH243519   1.531   1.686  14.572  0.1976 -0.2568  0.3551
 7343TIP3    H143520   1.560   1.730  14.492  0.0448 -1.7247 -0.5102
 7343TIP3    H243521   1.475   1.751  14.616  0.4855  0.6407 -0.5921
 7344TIP3   OH243522   0.339   4.742   4.816 -0.2424  0.2130  0.3623
 7344TIP3    H143523   0.278   4.702   4.754 -0.3204  0.5586  0.2126
 7344TIP3    H243524   0.421   4.751   4.768 -0.8484  2.2647 -0.3337
 7345TIP3   OH243525   5.846   6.509  14.705  0.0583  0.5602 -0.4253
 7345TIP3    H143526   5.911   6.573  14.676 -1.7336  1.7909 -1.8289
 7345TIP3    H243527   5.811   6.546  14.786  0.6824  0.1861  0.0177
 7346TIP3   OH243528   1.920   4.854   3.501  0.0721 -0.1753  0.7945
 7346TIP3    H143529   1.903   4.787   3.435  0.5241 -0.1594  0.6564
 7346TIP3    H243530   2.015   4.848   3.517  0.6507  2.3592 -1.3130
 7347TIP3   OH243531   3.907   2.524  14.135  0.9330 -0.0740 -0.2973
 7347TIP3    H143532   3.825   2.572  14.148  1.3837  0.5982  0.0872
 7347TIP3    H243533   3.934   2.546  14.046  1.6042  1.1212  0.1874
 7348TIP3   OH243534   3.009   2.027  12.061  0.3273 -0.3577 -0.0793
 7348TIP3    H143535   3.089   1.981  12.039  1.8141  1.0089  2.3006
 7348TIP3    H243536   3.000   2.018  12.156 -1.2141  1.2357 -0.0343
 7349TIP3   OH243537   4.756   0.901  10.357  0.0346 -0.7155 -0.3515
 7349TIP3    H143538   4.821   0.831  10.352  0.9996  0.0591  0.8868
 7349TIP3    H243539   4.796   0.974  10.310  0.6440  0.1685  1.4685
 7350TIP3   OH243540   3.072   3.047   0.163  0.5333  0.3758  0.3320
 7350TIP3    H143541   3.147   3.077   0.215  0.5647 -0.5003  0.7964
 7350TIP3    H243542   3.110   3.021   0.079  0.8825 -0.8739  0.8603
 7351TIP3   OH243543   5.441   2.512  12.851 -0.1612  0.0765 -0.6471
 7351TIP3    H143544   5.412   2.421  12.846 -1.1917  0.3287  0.4496
 7351TIP3    H243545   5.365   2.559  12.886  0.8658  1.1150  0.1953
 7352TIP3   OH243546   3.911   0.405   2.165  0.4390 -0.2116  0.0997
 7352TIP3    H143547   3.826   0.407   2.208  0.2248 -0.4169 -0.3080
 7352TIP3    H243548   3.973   0.437   2.231 -0.1058  1.0059  0.0421
 7353TIP3   OH243549   5.479   3.697   1.417 -0.2354 -0.5201 -0.4010
 7353TIP3    H143550   5.456   3.714   1.326 -1.5708  2.2730  0.4176
 7353TIP3    H243551   5.395   3.689   1.463  0.4032  0.0790  0.9191
 7354TIP3   OH243552   2.157   3.226   4.459 -0.4648  0.2217 -0.1153
 7354TIP3    H143553   2.153   3.297   4.394  2.0370  0.8689  0.4036
 7354TIP3    H243554   2.194   3.267   4.537  0.5684 -1.5453  0.3453
 7355TIP3   OH243555   3.189   0.054  17.008  0.2688  0.0533 -0.2405
 7355TIP3    H143556   3.099   0.037  16.982 -0.0570  1.1371  0.1610
 7355TIP3    H243557   3.219  -0.029  17.046 -0.8652 -0.0385  0.4922
 7356TIP3   OH243558   2.812   4.082   0.629  0.0653 -0.2702  0.1877
 7356TIP3    H143559   2.745   4.027   0.669 -0.6922 -0.5218 -1.3851
 7356TIP3    H243560   2.794   4.078   0.535  1.7094  0.4279 -0.1808
 7357TIP3   OH243561   0.562   6.165  15.656 -0.0931 -0.5126 -0.1997
 7357TIP3    H143562   0.604   6.245  15.624 -1.4132 -0.3270 -1.5057
 7357TIP3    H243563   0.509   6.193  15.730 -1.6322  0.0694 -1.5090
 7358TIP3   OH243564   1.668   2.891  16.655  0.4190 -0.0260  0.0062
 7358TIP3    H143565   1.662   2.949  16.579  0.9681 -0.0764 -0.0795
 7358TIP3    H243566   1.755   2.853  16.650 -0.5857 -2.2837 -0.9374
 7359TIP3   OH243567   1.586   3.862   1.190  0.8244 -0.1197 -0.2139
 7359TIP3    H143568   1.651   3.928   1.214 -0.6680  1.2320  0.1907
 7359TIP3    H243569   1.512   3.912   1.157  0.4964 -1.7077 -1.9623
 7360TIP3   OH243570   1.627   0.439   4.309  0.4467  0.3868  0.1456
 7360TIP3    H143571   1.656   0.434   4.400  0.1812  0.0550  0.2131
 7360TIP3    H243572   1.688   0.500   4.268  0.9771  0.0331  0.3898
 7361TIP3   OH243573   6.467   0.490   1.041  0.6239 -0.0366  0.2130
 7361TIP3    H143574   6.528   0.557   1.012  2.1647 -0.9887  1.1664
 7361TIP3    H243575   6.393   0.538   1.077  0.0075  1.1426 -2.4977
 7362TIP3   OH243576   2.110   2.588  14.932  0.5752  0.1993 -0.5040
 7362TIP3    H143577   2.018   2.600  14.906 -0.8985 -0.5476  3.9224
 7362TIP3    H243578   2.144   2.677  14.937 -1.1688  0.8097  1.7202
 7363TIP3   OH243579   3.734   6.000   4.741  0.4184  0.3401  0.0845
 7363TIP3    H143580   3.741   5.953   4.824 -0.5930 -0.0448 -0.0464
 7363TIP3    H243581   3.777   6.084   4.757  1.4743 -0.2830  0.5738
 7364TIP3   OH243582   2.886   0.244   0.138 -0.3005 -0.5571  0.3763
 7364TIP3    H143583   2.869   0.252   0.232 -0.6501 -0.3869  0.2962
 7364TIP3    H243584   2.941   0.166   0.130  0.4993 -0.0477  0.8196
 7365TIP3   OH243585   4.238   4.181  16.402 -0.0510  0.4532  0.4558
 7365TIP3    H143586   4.178   4.251  16.429  0.0689  0.3098  1.0902
 7365TIP3    H243587   4.181   4.107  16.384 -0.0976  0.4431  0.6489
 7366TIP3   OH243588   4.497   5.502  16.746 -0.5114 -0.4906 -0.1556
 7366TIP3    H143589   4.465   5.474  16.660 -1.3091  2.8962 -1.0521
 7366TIP3    H243590   4.590   5.521  16.732 -0.7724  0.6146 -0.4453
 7367TIP3   OH243591   0.681   4.458  14.966  0.8482  0.3162  0.3449
 7367TIP3    H143592   0.742   4.461  15.041 -0.5883  0.1851  1.5375
 7367TIP3    H243593   0.645   4.370  14.968  0.2778  0.5416 -0.0742
 7368TIP3   OH243594   6.776   2.207  13.013 -0.6849  0.2986  0.5374
 7368TIP3    H143595   6.811   2.270  13.076 -1.2570 -0.2942  1.4676
 7368TIP3    H243596   6.724   2.260  12.952  0.8853  1.0309 -0.1893
 7369TIP3   OH243597   3.912   4.514   1.313 -0.2160  0.0722 -0.5490
 7369TIP3    H143598   3.919   4.575   1.240 -1.3373  1.7160  0.6859
 7369TIP3    H243599   3.834   4.462   1.294 -1.7405  1.9070  0.4602
 7370TIP3   OH243600   0.837   0.141  14.212  0.0895  0.4399 -0.4065
 7370TIP3    H143601   0.747   0.140  14.245  0.4192 -1.1900  0.5088
 7370TIP3    H243602   0.890   0.157  14.290  0.6016  1.3901 -0.9470
 7371TIP3   OH243603   3.858   3.488  11.173  0.2444 -0.3146 -0.6925
 7371TIP3    H143604   3.945   3.452  11.159 -0.2021 -1.1386 -1.4209
 7371TIP3    H243605   3.809   3.462  11.095 -1.2030 -1.5821  0.6049
 7372TIP3   OH243606   2.175   3.087   2.849 -0.3662  0.2863  0.4617
 7372TIP3    H143607   2.198   3.110   2.939  0.3529  1.3660  0.0118
 7372TIP3    H243608   2.215   3.156   2.796 -0.1206 -0.7627 -0.7425
 7373TIP3   OH243609   1.435   5.016  12.954 -0.5458  0.0777 -0.8609
 7373TIP3    H143610   1.495   4.945  12.930 -0.6589 -0.5265  0.5555
 7373TIP3    H243611   1.349   4.986  12.923 -0.5208 -0.2042 -0.6623
 7374TIP3   OH243612   5.396   2.770   2.535 -0.5010  0.0526 -0.3231
 7374TIP3    H143613   5.465   2.742   2.595  0.3211  0.1599 -1.2086
 7374TIP3    H243614   5.320   2.786   2.591  0.5811  1.2441  0.8052
 7375TIP3   OH243615   2.848   5.353  13.291  0.2722 -0.8549 -0.1849
 7375TIP3    H143616   2.789   5.335  13.365  1.1780 -1.8601  0.3092
 7375TIP3    H243617   2.804   5.314  13.216 -0.8078  0.4509 -0.2493
 7376TIP3   OH243618   0.109   4.265   1.989  1.1166 -0.7325  0.1187
 7376TIP3    H143619   0.087   4.300   1.903 -1.0356  1.2725  1.4060
 7376TIP3    H243620   0.050   4.191   2.000 -0.1829  0.3499  0.7008
 7377TIP3   OH243621   3.926   0.713  15.113  0.1168 -0.9049  0.0594
 7377TIP3    H143622   3.845   0.733  15.159  0.6765 -1.1958  1.1862
 7377TIP3    H243623   3.972   0.653  15.171  1.4652 -0.1867 -0.2596
 7378TIP3   OH243624   0.024   5.773   2.255  0.1745  0.4007  0.2225
 7378TIP3    H143625   0.039   5.758   2.161 -0.7372  0.3958  0.0716
 7378TIP3    H243626  -0.057   5.825   2.258 -0.7151 -1.0261  1.0867
 7379TIP3   OH243627   0.176   1.035   1.863  0.0634 -0.4070 -0.7154
 7379TIP3    H143628   0.197   1.024   1.956  1.0295 -0.4798 -0.9442
 7379TIP3    H243629   0.240   0.982   1.817  0.4176  0.6725 -1.4895
 7380TIP3   OH243630   5.532   6.327   1.534 -0.4552 -0.0761  0.2839
 7380TIP3    H143631   5.599   6.262   1.516 -0.5860 -0.0678 -0.2601
 7380TIP3    H243632   5.477   6.327   1.455 -0.1390  1.0653  0.0572
 7381TIP3   OH243633   2.042   6.004   4.996 -0.4021 -0.5366  0.0788
 7381TIP3    H143634   2.010   6.065   5.062 -0.0533  1.5530 -1.5957
 7381TIP3    H243635   1.966   5.985   4.941  0.0985  0.7185 -1.1032
 7382TIP3   OH243636   0.799   1.481  16.701  0.0822  0.0714  0.0811
 7382TIP3    H143637   0.783   1.407  16.642 -0.5053 -0.1364  0.5061
 7382TIP3    H243638   0.892   1.502  16.687 -0.2955  0.6243 -1.5920
 7383TIP3   OH243639   6.501   1.647  16.822  0.6985 -0.1580  0.1725
 7383TIP3    H143640   6.514   1.742  16.829 -0.1178  0.0186 -0.6108
 7383TIP3    H243641   6.490   1.618  16.912  0.2534  0.5991  0.3697
 7384TIP3   OH243642   2.185   1.151   5.001 -0.0605  0.0936 -0.4338
 7384TIP3    H143643   2.188   1.073   4.946 -0.5211  0.2268 -0.6570
 7384TIP3    H243644   2.258   1.205   4.970  0.1686 -0.1839 -0.3775
 7385TIP3   OH243645   2.467   5.517   2.877 -0.0649 -0.0099  0.1596
 7385TIP3    H143646   2.425   5.447   2.827  0.8097 -0.2760 -0.2147
 7385TIP3    H243647   2.395   5.569   2.911 -0.7253 -1.0920  0.4321
 7386TIP3   OH243648   3.214   5.241   4.475 -0.1263  0.1847  0.3001
 7386TIP3    H143649   3.142   5.299   4.449 -1.0357  0.2601  2.8145
 7386TIP3    H243650   3.187   5.155   4.443  0.0767  0.7155 -1.3372
 7387TIP3   OH243651   4.236   0.038  12.934 -0.5098  0.2709 -0.4270
 7387TIP3    H143652   4.296   0.005  13.001  0.6399 -0.3742 -1.7594
 7387TIP3    H243653   4.161  -0.021  12.938 -0.0174 -0.3559 -0.3739
 7388TIP3   OH243654   0.283   6.227  12.767 -0.3570  0.7396 -0.2271
 7388TIP3    H143655   0.328   6.165  12.711 -0.4889 -0.2883  0.7843
 7388TIP3    H243656   0.234   6.284  12.707  0.3440  0.3300 -1.1857
 7389TIP3   OH243657   0.185   6.111   4.071 -0.2463  0.1980  0.3747
 7389TIP3    H143658   0.169   6.040   4.133 -1.0875  1.6154  1.8138
 7389TIP3    H243659   0.252   6.076   4.012 -0.6239 -1.7701  1.0684
 7390TIP3   OH243660   4.649   3.071   5.474  0.4061 -0.0564  0.2861
 7390TIP3    H143661   4.705   3.090   5.549 -0.3143  0.5309  0.6874
 7390TIP3    H243662   4.563   3.104   5.500  0.2448  0.5277 -0.9564
 7391TIP3   OH243663   0.363   2.351  16.577  0.1233  0.1984  0.2223
 7391TIP3    H143664   0.389   2.438  16.608  0.6005  0.2332 -0.2655
 7391TIP3    H243665   0.434   2.294  16.604 -0.4858 -0.1672  1.1028
 7392TIP3   OH243666   1.481   6.348   1.842  0.2070 -0.2272 -0.4559
 7392TIP3    H143667   1.415   6.414   1.861 -0.1870 -0.6914 -0.1874
 7392TIP3    H243668   1.437   6.265   1.858  0.3769 -0.5875 -1.8096
 7393TIP3   OH243669   2.365   2.890  11.151  0.0221 -1.0860  0.1615
 7393TIP3    H143670   2.353   2.818  11.088  3.1109 -0.3634 -1.3350
 7393TIP3    H243671   2.380   2.967  11.097 -0.7379  0.2397  1.7978
 7394TIP3   OH243672   6.310   6.618  16.245 -0.2646 -0.2859  0.3313
 7394TIP3    H143673   6.259   6.642  16.322  2.0994  1.3650  1.4465
 7394TIP3    H243674   6.320   6.523  16.252 -2.8730 -0.5842  0.2457
 7395TIP3   OH243675   0.850   3.301  13.790 -0.1404 -0.2305 -0.5724
 7395TIP3    H143676   0.822   3.372  13.849  1.0841 -0.6537  0.5394
 7395TIP3    H243677   0.941   3.322  13.769 -0.1658 -0.7994 -1.2564
 7396TIP3   OH243678   0.783   3.243  15.806 -1.0630  0.4799 -0.2152
 7396TIP3    H143679   0.781   3.149  15.819  0.6706  0.7236  2.1435
 7396TIP3    H243680   0.698   3.274  15.836 -0.5814 -0.0379  1.7008
 7397TIP3   OH243681   4.541   4.154   2.792  0.1237 -0.0607 -0.1570
 7397TIP3    H143682   4.495   4.111   2.864 -0.1883 -0.4579 -0.5985
 7397TIP3    H243683   4.509   4.112   2.713 -0.9448  1.6455 -0.6675
 7398TIP3   OH243684   2.844   2.741  15.806 -0.1887 -0.0880 -0.7250
 7398TIP3    H143685   2.813   2.734  15.716  0.2646 -0.9391 -0.8260
 7398TIP3    H243686   2.906   2.814  15.805  1.2005 -1.2372 -1.5251
 7399TIP3   OH243687   5.425   3.792  11.283  0.4996 -0.3058  0.3418
 7399TIP3    H143688   5.506   3.833  11.252 -0.0810  0.6859  0.1128
 7399TIP3    H243689   5.434   3.789  11.378  0.1101  1.3039  0.4383
 7400TIP3   OH243690   3.161   2.552  12.811 -0.1545  0.5324  0.3397
 7400TIP3    H143691   3.197   2.636  12.838 -2.9457  1.9004  0.0454
 7400TIP3    H243692   3.070   2.555  12.840 -0.4343 -2.1896 -0.1508
 7401TIP3   OH243693   1.597   3.504   4.791  0.0693 -0.3510  0.1612
 7401TIP3    H143694   1.550   3.579   4.828 -1.0875 -0.6769 -0.6156
 7401TIP3    H243695   1.548   3.428   4.822  0.1520 -0.7018 -0.5606
 7402TIP3   OH243696   0.376   0.622  11.611 -0.2568  0.0357  0.5880
 7402TIP3    H143697   0.301   0.604  11.668 -1.5628 -0.7876 -1.3024
 7402TIP3    H243698   0.361   0.565  11.535  0.8326  1.9048 -1.0644
 7403TIP3   OH243699   2.962   2.371  14.363 -0.5593 -0.1773  0.5709
 7403TIP3    H143700   2.963   2.441  14.429 -1.1224 -2.0261  2.6130
 7403TIP3    H243701   2.954   2.291  14.414  0.2073 -1.7625 -1.7155
 7404TIP3   OH243702   6.330   6.425  15.394 -0.3665 -0.2854  0.5453
 7404TIP3    H143703   6.404   6.368  15.414 -1.0139 -1.1304  0.5559
 7404TIP3    H243704   6.360   6.513  15.419  0.8615 -0.5201 -0.0650
 7405TIP3   OH243705   0.881   5.257  11.643  0.2778  0.1262 -0.0727
 7405TIP3    H143706   0.920   5.196  11.580 -0.0832  0.7515 -0.9131
 7405TIP3    H243707   0.889   5.212  11.727 -0.3299 -1.2431 -0.7246
 7406TIP3   OH243708   1.694   1.137   3.590 -0.1352  0.3076  0.3154
 7406TIP3    H143709   1.631   1.208   3.600 -0.8895 -0.1873 -0.8090
 7406TIP3    H243710   1.692   1.092   3.674 -1.0898  0.4564  0.3832
 7407TIP3   OH243711   4.860   2.255  14.423  0.5087 -0.2706  0.3375
 7407TIP3    H143712   4.914   2.192  14.375  3.3353  0.7813  2.0412
 7407TIP3    H243713   4.881   2.240  14.515 -2.3516 -0.0061  1.0830
 7408TIP3   OH243714   5.384   2.631   3.196 -0.2257  0.2377  0.2490
 7408TIP3    H143715   5.465   2.642   3.145 -0.4877 -1.9481 -0.6976
 7408TIP3    H243716   5.415   2.614   3.285  0.2861  1.7760  0.3885
 7409TIP3   OH243717   6.407   5.852  11.226  0.5740  0.0943  0.5844
 7409TIP3    H143718   6.392   5.766  11.188  1.5088 -0.1028  0.6432
 7409TIP3    H243719   6.431   5.834  11.317 -0.6894  0.5067  1.0171
 7410TIP3   OH243720   5.033   2.694   1.811  0.8015 -0.3129  0.2570
 7410TIP3    H143721   5.019   2.670   1.902  1.2175 -0.2604  0.3339
 7410TIP3    H243722   5.096   2.765   1.814 -1.0901  1.4013  0.0799
 7411TIP3   OH243723   4.506   4.615  15.782  0.3404  0.3707  0.1298
 7411TIP3    H143724   4.481   4.592  15.693  0.2106 -0.5226  0.3926
 7411TIP3    H243725   4.600   4.596  15.786  0.4912  1.0529 -0.0118
 7412TIP3   OH243726   4.044   0.198  13.185 -0.2649 -0.0329 -0.2935
 7412TIP3    H143727   4.000   0.283  13.195 -1.0910 -0.3734 -0.9592
 7412TIP3    H243728   3.990   0.150  13.123  0.7396 -0.6812 -0.6929
 7413TIP3   OH243729   3.051   6.047  13.345 -0.1980  0.7322  0.3253
 7413TIP3    H143730   3.038   6.136  13.377 -0.3954  0.9508 -0.3593
 7413TIP3    H243731   3.041   6.053  13.250 -0.4378 -0.0573  0.2909
 7414TIP3   OH243732   3.649   5.579  14.309  0.3140  0.6008  0.3745
 7414TIP3    H143733   3.745   5.585  14.308  0.2499  1.9399  0.5439
 7414TIP3    H243734   3.626   5.579  14.402  0.2150 -1.2877  0.3655
 7415TIP3   OH243735   6.695   4.982   3.320  0.9524  0.5513 -0.6383
 7415TIP3    H143736   6.736   5.014   3.240  2.4562 -2.0599 -0.9809
 7415TIP3    H243737   6.756   5.004   3.389  0.9899  0.2797 -0.5861
 7416TIP3   OH243738   2.049   2.032   2.061 -0.3861  0.4737  0.2187
 7416TIP3    H143739   2.120   2.093   2.080 -0.3549 -0.0344  1.9009
 7416TIP3    H243740   1.981   2.086   2.020 -0.3603  1.6512  1.6625
 7417TIP3   OH243741   4.089   6.032  13.694  0.3456 -0.0954 -0.1752
 7417TIP3    H143742   4.156   5.981  13.741 -0.0032  0.3881  0.8629
 7417TIP3    H243743   4.081   6.113  13.745 -0.8104 -0.0221 -0.4608
 7418TIP3   OH243744   5.413   1.358  12.716 -0.2050 -0.0411  0.2113
 7418TIP3    H143745   5.481   1.308  12.671 -2.3056  0.0037 -3.1936
 7418TIP3    H243746   5.418   1.329  12.808  4.5771  0.2657  0.1561
 7419TIP3   OH243747   5.299   2.263   0.007 -0.3712 -0.5021 -0.5219
 7419TIP3    H143748   5.263   2.301  -0.073  0.0145 -1.4567 -1.1666
 7419TIP3    H243749   5.331   2.338   0.057 -1.1795  0.1522 -0.9760
 7420TIP3   OH243750   4.535   2.048   2.472  0.3108  0.3507 -0.0004
 7420TIP3    H143751   4.452   2.072   2.513  1.9778  2.4222  2.2876
 7420TIP3    H243752   4.583   2.000   2.540  1.9549  1.2953 -0.4658
 7421TIP3   OH243753   6.128   3.014   4.350 -0.1509  0.4983 -0.0353
 7421TIP3    H143754   6.131   2.961   4.270 -1.6145  2.3005 -1.3075
 7421TIP3    H243755   6.039   3.004   4.382 -0.7375  2.8738 -0.7986
 7422TIP3   OH243756   6.413   4.590  11.235 -0.3811  0.2649 -0.0977
 7422TIP3    H143757   6.489   4.545  11.197 -0.8605 -1.0313  0.4306
 7422TIP3    H243758   6.408   4.673  11.188  0.3796 -0.3483 -1.2966
 7423TIP3   OH243759   6.773   5.780  11.640 -0.6208 -0.4382 -0.0513
 7423TIP3    H143760   6.684   5.803  11.668 -0.7049 -1.0052  0.1616
 7423TIP3    H243761   6.768   5.776  11.545 -0.6717  0.1291 -0.0774
 7424TIP3   OH243762   1.466   3.967   5.541  0.2799 -0.0816  0.2013
 7424TIP3    H143763   1.390   3.932   5.494  0.9989 -1.4898  0.0401
 7424TIP3    H243764   1.429   4.023   5.609 -0.9605 -1.8015  0.9757
 7425TIP3   OH243765   4.676   1.759   4.583  0.2532 -0.2985 -0.8406
 7425TIP3    H143766   4.722   1.759   4.499 -0.3652 -0.3316 -1.1831
 7425TIP3    H243767   4.606   1.695   4.572  0.4982 -0.6898 -0.1146
 7426TIP3   OH243768   0.271   6.605  17.151  0.4777  0.1019  0.7052
 7426TIP3    H143769   0.327   6.628  17.076 -1.3450  0.6466 -0.5412
 7426TIP3    H243770   0.293   6.514  17.170  1.9440  0.3725  0.3832
 7427TIP3   OH243771   3.577   3.921  15.908  0.0040 -0.0531 -0.0595
 7427TIP3    H143772   3.578   3.957  15.997  1.1971  1.8883 -0.8160
 7427TIP3    H243773   3.665   3.886  15.895 -0.2894 -0.6960 -0.3324
 7428TIP3   OH243774   5.729   1.397  13.644 -0.7289 -0.5920 -0.2746
 7428TIP3    H143775   5.789   1.471  13.635 -0.5713 -0.6779  0.0437
 7428TIP3    H243776   5.787   1.320  13.642 -0.6592 -0.6144  1.5819
 7429TIP3   OH243777   2.915   6.726  16.976  0.1656 -0.0121  0.4945
 7429TIP3    H143778   2.828   6.713  17.013 -0.4136 -0.7803 -1.1023
 7429TIP3    H243779   2.932   6.647  16.925  2.2351 -0.3222  1.6084
 7430TIP3   OH243780   5.439   3.351  17.196  0.0685  0.4695 -0.3159
 7430TIP3    H143781   5.456   3.290  17.125 -0.2242 -0.1799  0.1581
 7430TIP3    H243782   5.525   3.384  17.222  0.2650 -0.0086 -0.3522
 7431TIP3   OH243783   6.360   1.914  13.563 -0.7743  0.6120 -0.8385
 7431TIP3    H143784   6.358   1.859  13.485 -0.6966  1.7514 -1.6666
 7431TIP3    H243785   6.405   1.994  13.534  0.1079  0.6602  0.6286
 7432TIP3   OH243786   4.364   4.681   3.235 -0.3515 -0.7049  0.3915
 7432TIP3    H143787   4.438   4.727   3.274  0.2006 -1.8292  0.7096
 7432TIP3    H243788   4.386   4.674   3.142  0.6022 -2.2191  0.7069
 7433TIP3   OH243789   1.007   4.547  16.993 -0.1974 -0.1866  0.5028
 7433TIP3    H143790   0.963   4.564  17.076 -0.2846  0.8402  0.2462
 7433TIP3    H243791   1.026   4.453  16.995  0.1181 -0.1056  1.8356
 7434TIP3   OH243792   5.251   2.751  13.462 -0.8837  0.4144  0.3011
 7434TIP3    H143793   5.242   2.713  13.549 -1.9136 -1.3035 -0.5269
 7434TIP3    H243794   5.174   2.806  13.452 -1.7041 -0.8031 -0.1969
 7435TIP3   OH243795   3.440   2.764  12.711  0.2010  0.1791  0.4339
 7435TIP3    H143796   3.458   2.728  12.624  3.4506  0.8957  0.7255
 7435TIP3    H243797   3.370   2.827  12.697  0.4942  0.0746 -1.6318
 7436TIP3   OH243798   1.745   0.548   3.342 -0.3991 -0.7548  0.7426
 7436TIP3    H143799   1.781   0.472   3.386 -2.0312 -1.1083  1.4785
 7436TIP3    H243800   1.753   0.528   3.248 -0.2739 -1.5643  0.9297
 7437TIP3   OH243801   0.187   4.655   2.601  0.0525 -0.2269  0.0133
 7437TIP3    H143802   0.137   4.736   2.607 -0.2588 -0.5332  1.9613
 7437TIP3    H243803   0.188   4.634   2.508  0.7254  2.3685 -0.6116
 7438TIP3   OH243804   5.118   3.810   3.108  0.0577 -0.4289 -0.0836
 7438TIP3    H143805   5.203   3.771   3.130  0.5637  1.4015  1.3467
 7438TIP3    H243806   5.058   3.736   3.103  1.9655 -1.8986 -2.4182
 7439TIP3   OH243807   4.339   3.149  15.400  0.2334  0.6337  0.3589
 7439TIP3    H143808   4.349   3.054  15.393  1.5585  0.9268 -2.5959
 7439TIP3    H243809   4.269   3.170  15.338 -0.1128  1.6090  1.0687
 7440TIP3   OH243810   2.662   1.216   5.884  0.3482  0.2038 -0.2407
 7440TIP3    H143811   2.625   1.271   5.815  0.5386  0.0823 -0.4421
 7440TIP3    H243812   2.703   1.143   5.837  0.8639  0.3494 -0.0226
 7441TIP3   OH243813   3.844   1.215   4.483  0.2237 -0.3851 -0.0340
 7441TIP3    H143814   3.831   1.160   4.405 -0.8118  1.3035 -1.0727
 7441TIP3    H243815   3.939   1.219   4.493  0.3465 -1.4209 -0.6129
 7442TIP3   OH243816   0.319   5.501   4.708  0.4559 -0.1026  0.1761
 7442TIP3    H143817   0.248   5.500   4.772 -0.9731  1.6931 -1.2948
 7442TIP3    H243818   0.337   5.409   4.690 -3.5604 -0.6539 -1.5718
 7443TIP3   OH243819   1.457   5.404   1.262 -0.5815 -0.0828  0.0603
 7443TIP3    H143820   1.527   5.469   1.255 -1.0166  0.1441 -2.7316
 7443TIP3    H243821   1.495   5.333   1.313  0.7413  1.2572  0.9798
 7444TIP3   OH243822   1.650   5.172   2.878  0.0065 -0.3358  0.2627
 7444TIP3    H143823   1.678   5.192   2.788  2.9498 -1.2392  0.9188
 7444TIP3    H243824   1.665   5.253   2.926 -1.2255  0.0365  0.0353
 7445TIP3   OH243825   0.251   4.031  13.605 -0.0347 -0.0983 -0.3171
 7445TIP3    H143826   0.304   4.029  13.685 -0.9913  0.2739  0.3458
 7445TIP3    H243827   0.163   4.006  13.634 -0.5039  0.5260 -1.1613
 7446TIP3   OH243828   2.626   1.848   0.595  0.2857 -0.1697  0.2960
 7446TIP3    H143829   2.587   1.818   0.513  0.0146 -1.6408  0.9527
 7446TIP3    H243830   2.553   1.851   0.657  0.7156 -0.2684  0.8125
 7447TIP3   OH243831   5.308   5.716  11.814 -0.1764  0.3371  0.1279
 7447TIP3    H143832   5.240   5.667  11.767  0.1942  0.3796 -0.4520
 7447TIP3    H243833   5.319   5.797  11.763 -0.9882  1.1613  1.2345
 7448TIP3   OH243834   0.176   6.456  14.185  0.6783 -0.8993 -0.0738
 7448TIP3    H143835   0.093   6.462  14.232  1.2433  2.5543  0.5767
 7448TIP3    H243836   0.221   6.382  14.227 -0.3298 -0.1732  2.3694
 7449TIP3   OH243837   0.323   4.785  12.493  0.0844  0.3559  0.4159
 7449TIP3    H143838   0.391   4.721  12.471  0.9481  1.5452 -0.4339
 7449TIP3    H243839   0.342   4.860  12.437 -1.2068  1.1731  1.0616
 7450TIP3   OH243840   6.444   0.350   1.500 -0.5235 -0.4199 -0.1565
 7450TIP3    H143841   6.456   0.257   1.482 -1.5481 -0.2198 -2.0464
 7450TIP3    H243842   6.362   0.373   1.455 -0.6418  1.2415  0.8501
 7451TIP3   OH243843   4.236   6.476  13.903  0.3438  0.1507  0.0205
 7451TIP3    H143844   4.174   6.515  13.965  1.9610  0.7411  1.3025
 7451TIP3    H243845   4.220   6.522  13.821  0.9118  2.2346  1.0332
 7452TIP3   OH243846   5.576   5.449  13.984  0.2196 -0.2248 -0.4491
 7452TIP3    H143847   5.489   5.411  13.968 -0.0655 -0.0750  0.6672
 7452TIP3    H243848   5.637   5.378  13.966 -0.2686 -0.9935  0.8700
 7453TIP3   OH243849   1.953   3.424   1.159  0.0597  0.2673 -0.3033
 7453TIP3    H143850   1.864   3.441   1.190 -0.7167  0.6598 -2.6564
 7453TIP3    H243851   2.000   3.396   1.237 -2.3640 -0.8992  0.7972
 7454TIP3   OH243852   0.604   2.322   4.191  0.2534 -0.0419  0.0360
 7454TIP3    H143853   0.630   2.383   4.260 -0.7794  1.2562 -0.6829
 7454TIP3    H243854   0.512   2.343   4.175 -0.5629 -2.8650  0.8434
 7455TIP3   OH243855   0.255   1.870   3.644  0.6163 -0.0484  0.1383
 7455TIP3    H143856   0.175   1.829   3.614  1.0190  0.2120 -1.3380
 7455TIP3    H243857   0.238   1.964   3.636  1.0287  0.0091 -0.0895
 7456TIP3   OH243858   2.803   1.015   0.522  0.3027  0.0606 -0.2347
 7456TIP3    H143859   2.813   1.086   0.458  0.6279 -0.4223 -0.7292
 7456TIP3    H243860   2.797   1.059   0.607 -0.5642  0.7293 -0.6434
 7457TIP3   OH243861   5.651   5.614  10.589 -0.3723  0.7798  0.0865
 7457TIP3    H143862   5.623   5.523  10.589 -1.1478  1.0186  0.2422
 7457TIP3    H243863   5.671   5.634  10.680 -1.5830  1.1891  0.2669
 7458TIP3   OH243864   5.486   4.262   2.421 -0.0740  0.1444 -0.6205
 7458TIP3    H143865   5.541   4.205   2.367  0.1961  1.0050 -1.2793
 7458TIP3    H243866   5.398   4.248   2.388  0.2609  1.7033 -2.2650
 7459TIP3   OH243867   2.027   0.340  13.331 -0.2228 -0.2435 -0.0846
 7459TIP3    H143868   1.954   0.293  13.292 -1.0217  0.7636  0.1981
 7459TIP3    H243869   1.992   0.425  13.355  1.3000  0.6532 -0.9145
 7460TIP3   OH243870   1.458   5.580   2.777  0.5464 -0.0179  0.3552
 7460TIP3    H143871   1.500   5.586   2.863  1.9104 -1.1751 -0.2062
 7460TIP3    H243872   1.412   5.496   2.778 -1.1453  0.8932  0.6819
 7461TIP3   OH243873   6.152   0.600   2.034  0.1098  0.1299  0.3096
 7461TIP3    H143874   6.097   0.622   1.960  2.3067  1.2735 -1.0422
 7461TIP3    H243875   6.184   0.684   2.067  1.3877 -0.5281  0.7908
 7462TIP3   OH243876   3.594   0.189   5.246  0.3217 -0.6233 -0.1254
 7462TIP3    H143877   3.508   0.176   5.287 -0.5745 -0.0169 -1.7714
 7462TIP3    H243878   3.655   0.193   5.320 -0.6690 -3.7524  0.9674
 7463TIP3   OH243879   6.388   1.579  14.065 -0.0898 -0.3646 -0.0006
 7463TIP3    H143880   6.428   1.519  14.002  0.8418  0.2977 -0.0477
 7463TIP3    H243881   6.307   1.535  14.091  0.4159 -1.4878 -0.2817
 7464TIP3   OH243882   6.000   2.176  11.986  0.2998 -0.6229  0.1796
 7464TIP3    H143883   5.920   2.164  11.936  1.4726 -2.2018 -1.3995
 7464TIP3    H243884   6.000   2.104  12.049 -0.6482  0.7429  1.7850
 7465TIP3   OH243885   6.777   0.299  14.768 -0.1122 -0.1079 -0.8717
 7465TIP3    H143886   6.758   0.214  14.728  0.5431  0.2043 -1.8596
 7465TIP3    H243887   6.835   0.343  14.706  0.5180  0.5902  0.1913
 7466TIP3   OH243888   4.970   6.290  10.783  0.0506 -0.3110 -0.8838
 7466TIP3    H143889   5.004   6.376  10.755 -0.0257 -0.1832 -0.5885
 7466TIP3    H243890   4.878   6.292  10.758 -0.4498  0.5007  0.9611
 7467TIP3   OH243891   0.286   3.728   4.012 -0.2029 -0.0461 -0.4583
 7467TIP3    H143892   0.246   3.642   4.023 -0.8857  0.3597  0.3654
 7467TIP3    H243893   0.287   3.765   4.101 -0.1813  0.8935 -0.8443
 7468TIP3   OH243894   1.784   3.694   3.885  0.1977 -0.2340 -0.0538
 7468TIP3    H143895   1.879   3.706   3.896  0.2124 -0.3330 -0.0729
 7468TIP3    H243896   1.776   3.628   3.817  0.0916  2.3447 -2.6313
 7469TIP3   OH243897   0.321   5.951  12.166 -0.6554 -0.2036 -0.2739
 7469TIP3    H143898   0.382   5.903  12.109 -1.0310 -1.7323  0.5870
 7469TIP3    H243899   0.319   5.900  12.247 -0.4887  1.6963  0.9418
 7470TIP3   OH243900   3.935   6.285   4.804  0.2465 -0.0878  1.1414
 7470TIP3    H143901   3.901   6.339   4.875 -1.0624  1.6420 -0.7588
 7470TIP3    H243902   3.873   6.297   4.732  0.8152 -2.8483  0.1089
 7471TIP3   OH243903   5.001   6.806   5.896 -0.0236  0.1791 -0.4728
 7471TIP3    H143904   5.005   6.712   5.876 -0.4347  0.1594 -0.4711
 7471TIP3    H243905   5.023   6.811   5.988  2.6773  0.3445 -1.0845
 7472TIP3   OH243906   1.550   3.600  16.534 -0.1113 -0.2515  0.2642
 7472TIP3    H143907   1.540   3.693  16.556  0.4516  0.4679 -2.2913
 7472TIP3    H243908   1.633   3.596  16.487  0.3415 -2.2328  1.2030
 7473TIP3   OH243909   1.324   0.578  14.366 -0.8853 -0.2921 -0.6623
 7473TIP3    H143910   1.267   0.629  14.424 -0.3275 -1.1571  0.6724
 7473TIP3    H243911   1.355   0.641  14.300 -2.1657  0.5159 -0.4930
 7474TIP3   OH243912   6.812   3.414  14.944  0.4627 -0.0499  0.5421
 7474TIP3    H143913   6.719   3.433  14.933  0.3623  0.5066  2.1200
 7474TIP3    H243914   6.817   3.367  15.028  1.6637  0.4870  0.7857
 7475TIP3   OH243915   5.171   3.595   1.656 -0.2068 -0.8122 -0.6170
 7475TIP3    H143916   5.189   3.634   1.570 -1.1065 -1.7110 -1.2239
 7475TIP3    H243917   5.257   3.586   1.697  0.2274 -0.3976 -1.4334
 7476TIP3   OH243918   5.772   1.771   6.419 -0.0147 -0.2246 -0.2341
 7476TIP3    H143919   5.707   1.809   6.477 -0.9770 -1.8314 -0.2408
 7476TIP3    H243920   5.743   1.794   6.331  0.4140  0.5907 -0.1659
 7477TIP3   OH243921   3.811   6.388  14.844 -0.4748  0.0118 -0.1158
 7477TIP3    H143922   3.839   6.476  14.869 -2.6015  0.4897  0.6933
 7477TIP3    H243923   3.788   6.396  14.752  0.0078  0.1239 -0.2302
 7478TIP3   OH243924   3.780   1.594  15.760 -0.1993 -0.1701 -0.0196
 7478TIP3    H143925   3.768   1.581  15.666 -1.4815  0.5053  0.0383
 7478TIP3    H243926   3.852   1.536  15.783  0.8322  0.4336 -1.6132
 7479TIP3   OH243927   1.260   1.157   3.453 -0.2281  0.0379 -0.3953
 7479TIP3    H143928   1.334   1.142   3.395 -0.2878  0.0364 -0.4725
 7479TIP3    H243929   1.184   1.158   3.394 -0.1749  1.1001 -0.4551
 7480TIP3   OH243930   3.117   2.169   4.703 -0.3494  0.2383  0.2812
 7480TIP3    H143931   3.129   2.135   4.791 -1.2685 -1.3856 -0.1947
 7480TIP3    H243932   3.112   2.091   4.647 -0.6563  1.2081 -1.0883
 7481TIP3   OH243933   4.044   6.320  16.415 -0.0646  0.1351  0.2694
 7481TIP3    H143934   4.113   6.379  16.386 -0.2812  0.7287  0.9438
 7481TIP3    H243935   4.087   6.260  16.476 -0.0375  0.1952  0.3097
 7482TIP3   OH243936   2.383   4.067  12.515  0.1630 -0.2002 -0.2921
 7482TIP3    H143937   2.381   4.159  12.541 -1.1212 -0.7286  1.6576
 7482TIP3    H243938   2.331   4.063  12.435  0.1256  0.7659 -0.3207
 7483TIP3   OH243939   4.450   3.825   4.114 -0.3757 -0.6164 -0.1984
 7483TIP3    H143940   4.475   3.776   4.035  0.4834 -2.3703  1.1292
 7483TIP3    H243941   4.389   3.767   4.160  0.5668 -0.4013  1.3499
 7484TIP3   OH243942   6.709   5.139  13.375 -0.2671  0.4808  0.1450
 7484TIP3    H143943   6.639   5.076  13.391 -0.8539  0.7211 -1.3800
 7484TIP3    H243944   6.768   5.094  13.314 -0.3282  1.1395 -0.4122
 7485TIP3   OH243945   5.958   6.384   6.387 -0.3899 -0.3464 -0.2752
 7485TIP3    H143946   5.965   6.438   6.309 -0.2247 -0.3732 -0.2780
 7485TIP3    H243947   5.921   6.443   6.453  0.1258 -0.1288 -0.1781
 7486TIP3   OH243948   2.101   2.900  12.588 -0.0987 -0.2999  0.0619
 7486TIP3    H143949   2.046   2.978  12.580 -1.0270 -0.9871 -0.3335
 7486TIP3    H243950   2.069   2.841  12.520 -0.5772 -1.7250  1.5116
 7487TIP3   OH243951   5.768   4.041   5.109 -0.3452 -0.4493  0.2733
 7487TIP3    H143952   5.823   4.111   5.073  1.2425 -1.2925  0.9790
 7487TIP3    H243953   5.786   3.966   5.053  0.3392 -1.1216  1.3796
 7488TIP3   OH243954   6.375   4.116  12.206 -1.0949 -0.6615 -0.4307
 7488TIP3    H143955   6.410   4.182  12.147  2.1249 -1.3792  0.5764
 7488TIP3    H243956   6.372   4.159  12.292 -1.0759 -1.1242 -0.1944
 7489TIP3   OH243957   3.708   1.765   0.686  0.0044 -0.4013  0.4169
 7489TIP3    H143958   3.616   1.786   0.673  0.3660  0.7659 -0.3034
 7489TIP3    H243959   3.708   1.701   0.758 -1.4345 -1.2722 -0.3339
 7490TIP3   OH243960   5.763   5.504  13.035 -0.4870 -0.5536  0.2206
 7490TIP3    H143961   5.690   5.537  13.088 -0.3664 -0.9097  0.6157
 7490TIP3    H243962   5.777   5.416  13.068  0.3461 -0.3611  0.3725
 7491TIP3   OH243963   1.460   0.852   0.564 -0.7865  0.4866  0.2693
 7491TIP3    H143964   1.446   0.942   0.537  1.3691  1.4871  2.3327
 7491TIP3    H243965   1.508   0.812   0.492  0.2769  1.6487  0.3188
 7492TIP3   OH243966   1.994   3.509  16.585  0.2835  0.3002  0.1531
 7492TIP3    H143967   1.930   3.491  16.654  1.6075 -1.9540  0.8835
 7492TIP3    H243968   1.963   3.460  16.509  2.0647 -2.3799  1.0820
 7493TIP3   OH243969   0.100   0.006  16.025 -0.2753 -0.5345  0.4232
 7493TIP3    H143970   0.194  -0.005  16.036 -0.5070 -2.4013  0.7145
 7493TIP3    H243971   0.091   0.081  15.965  1.4020 -0.8384 -0.2295
 7494TIP3   OH243972   0.051   0.865  13.195 -0.5373 -0.8617  0.2273
 7494TIP3    H143973   0.143   0.877  13.219 -0.4243 -0.9576 -0.1462
 7494TIP3    H243974   0.012   0.819  13.269 -0.3530 -0.5465  0.5169
 7495TIP3   OH243975   4.806   0.809  15.608 -0.3402  0.4761  0.0400
 7495TIP3    H143976   4.897   0.787  15.588  0.2072  2.4680  0.2074
 7495TIP3    H243977   4.771   0.843  15.525 -0.6811  0.4983  0.1931
 7496TIP3   OH243978   4.003   0.762  12.682  0.2794 -0.3360  0.0388
 7496TIP3    H143979   3.924   0.753  12.628  0.7385  0.1624 -0.7363
 7496TIP3    H243980   4.030   0.672  12.700 -0.7922 -0.5127  0.8062
 7497TIP3   OH243981   4.750   3.409  14.186  0.6561  0.5139 -0.2215
 7497TIP3    H143982   4.694   3.452  14.250 -1.2557 -2.3574  0.1347
 7497TIP3    H243983   4.754   3.470  14.113 -0.4175  2.1017  1.0134
 7498TIP3   OH243984   1.727   3.436  11.549  0.0065  0.0788 -0.0288
 7498TIP3    H143985   1.721   3.388  11.631  0.8417  1.8921  1.1358
 7498TIP3    H243986   1.786   3.384  11.494 -0.6338 -1.1920  0.4669
 7499TIP3   OH243987   2.433   1.706  16.015 -0.8794 -0.5871  0.1938
 7499TIP3    H143988   2.387   1.624  15.996 -3.4994  0.6503  0.9935
 7499TIP3    H243989   2.425   1.716  16.110  0.1978  0.1547  0.2105
 7500TIP3   OH243990   0.506   2.728   3.295 -0.3888 -0.1939  0.2389
 7500TIP3    H143991   0.417   2.756   3.275 -1.0018 -2.9424 -1.0727
 7500TIP3    H243992   0.500   2.691   3.383 -1.0230 -2.3113 -0.6733
 7501TIP3   OH243993   1.395   0.128   6.272  0.0653  0.7402  0.4669
 7501TIP3    H143994   1.329   0.061   6.293  0.7140 -0.5092 -1.3388
 7501TIP3    H243995   1.409   0.174   6.354 -2.5907  0.5954  1.0442
 7502TIP3   OH243996   0.362   0.781  12.302  0.2640 -0.1006  0.0990
 7502TIP3    H143997   0.307   0.792  12.225  0.4427 -1.1048 -0.1761
 7502TIP3    H243998   0.446   0.819  12.277  0.7943 -1.7803 -0.7549
 7503TIP3   OH243999   2.397   4.568  14.008  0.2177  0.2531  0.0738
 7503TIP3    H144000   2.405   4.575  13.913  0.4343 -0.0748  0.0682
 7503TIP3    H244001   2.303   4.555  14.023  0.2711 -0.3999 -0.1410
 7504TIP3   OH244002   0.583   1.614  11.282  0.0073  0.4979  0.2228
 7504TIP3    H144003   0.489   1.628  11.275 -0.0165  0.0432 -0.4295
 7504TIP3    H244004   0.594   1.560  11.360 -0.4132 -0.7585 -0.5837
 7505TIP3   OH244005   6.646   1.209   1.663  0.1150  0.2138  0.2690
 7505TIP3    H144006   6.669   1.154   1.738  1.3977 -1.3452 -1.2253
 7505TIP3    H244007   6.612   1.148   1.597  1.7004  1.1471 -1.4811
 7506TIP3   OH244008   2.759   1.919  16.962  0.0797 -0.0042 -0.7233
 7506TIP3    H144009   2.754   1.825  16.948 -1.6478 -0.2486  1.2360
 7506TIP3    H244010   2.813   1.929  17.040  0.7956  0.6893 -1.2930
 7507TIP3   OH244011   0.926   6.111  15.322 -0.2282  0.2299 -0.4598
 7507TIP3    H144012   0.982   6.064  15.260  0.3421 -0.4819  0.5830
 7507TIP3    H244013   0.865   6.045  15.355 -0.6833  0.6611 -0.4245
 7508TIP3   OH244014   6.647   4.155   5.677  0.2888 -0.4666  0.5039
 7508TIP3    H144015   6.732   4.117   5.699  1.0776  0.2719 -1.2059
 7508TIP3    H244016   6.620   4.202   5.757  0.6648 -2.1194  1.6206
 7509TIP3   OH244017   3.035   4.306  15.693 -0.2747  0.0869 -0.1137
 7509TIP3    H144018   2.976   4.370  15.652 -0.9282 -0.1927  0.3842
 7509TIP3    H244019   2.993   4.285  15.776  0.4503 -0.2418  0.1703
 7510TIP3   OH244020   0.000   0.868  16.371  0.1821  0.0179  0.0967
 7510TIP3    H144021  -0.087   0.838  16.395  0.1607  0.4938  0.6007
 7510TIP3    H244022   0.000   0.867  16.275 -0.0820 -0.8346  0.0965
 7511TIP3   OH244023   3.056   4.936  16.125  0.4283 -0.6485 -0.2026
 7511TIP3    H144024   3.083   4.858  16.173 -0.2081 -1.3945 -1.0584
 7511TIP3    H244025   3.119   4.943  16.053  1.6210  0.6902  0.9232
 7512TIP3   OH244026   5.213   2.713   5.216 -0.4067  0.0559 -0.3434
 7512TIP3    H144027   5.134   2.704   5.269  0.6376  0.4493  1.3174
 7512TIP3    H244028   5.280   2.663   5.263  0.5200  0.3442 -1.3312
 7513TIP3   OH244029   1.170   0.656   1.372 -0.5338  1.2305  0.0997
 7513TIP3    H144030   1.116   0.624   1.444  0.0937  0.1976  0.1144
 7513TIP3    H244031   1.244   0.595   1.367 -1.9721 -0.4041 -3.1730
 7514TIP3   OH244032   6.398   1.510  10.896  0.3454 -0.3392  0.7931
 7514TIP3    H144033   6.442   1.467  10.822 -0.0598 -0.5121  0.6505
 7514TIP3    H244034   6.394   1.443  10.963  0.7764 -0.1602  1.0010
 7515TIP3   OH244035   3.711   2.441  16.751  0.3487  0.2290 -0.1979
 7515TIP3    H144036   3.718   2.435  16.656  0.4583 -1.8948 -0.0820
 7515TIP3    H244037   3.795   2.479  16.779  0.6112  0.1771 -0.9133
 7516TIP3   OH244038   2.875   0.042   0.742 -0.0608 -0.4370 -0.2350
 7516TIP3    H144039   2.884   0.123   0.792  1.2736 -1.4576  1.2131
 7516TIP3    H244040   2.797   0.056   0.688 -3.0569 -0.2892  3.9471
 7517TIP3   OH244041   0.068   4.899   2.549  0.0625 -0.0289  0.7229
 7517TIP3    H144042   0.073   4.973   2.489 -0.5588 -0.3288  0.2944
 7517TIP3    H244043  -0.024   4.873   2.546  0.0663 -0.1573  1.6681
 7518TIP3   OH244044   6.172   5.292   6.231 -0.0122 -0.3473  0.5237
 7518TIP3    H144045   6.213   5.345   6.300  0.6634 -0.1116 -0.0536
 7518TIP3    H244046   6.116   5.231   6.278 -0.2781  0.4364  1.2337
 7519TIP3   OH244047   1.910   1.774   0.179  0.0192  0.1525 -0.2336
 7519TIP3    H144048   1.838   1.784   0.117 -1.1575 -0.9647  0.8930
 7519TIP3    H244049   1.866   1.757   0.263  1.5792 -3.6394 -0.0802
 7520TIP3   OH244050   5.686   2.317   6.054 -0.4375  0.4342 -0.4361
 7520TIP3    H144051   5.727   2.246   6.005 -1.1752  0.5661 -1.2711
 7520TIP3    H244052   5.682   2.286   6.144  0.3343 -0.0882 -0.5817
 7521TIP3   OH244053   2.008   6.329   2.824 -0.0088 -0.3857  0.1820
 7521TIP3    H144054   2.075   6.340   2.757 -0.1696 -1.1562 -0.1097
 7521TIP3    H244055   1.940   6.393   2.800  0.3082 -0.0822  0.0859
 7522TIP3   OH244056   0.257   6.109  15.530  0.3207  0.6347 -0.0927
 7522TIP3    H144057   0.297   6.032  15.571  0.0839  0.1756 -0.7227
 7522TIP3    H244058   0.279   6.182  15.589 -1.1099 -0.2288  1.5371
 7523TIP3   OH244059   3.066   2.771  12.224 -0.1293 -0.0553  0.2335
 7523TIP3    H144060   2.970   2.767  12.224 -0.0806 -1.5035 -0.8704
 7523TIP3    H244061   3.092   2.734  12.140  1.3867  1.2247  0.1037
 7524TIP3   OH244062   0.498   5.946   0.692  0.2378  0.2825 -0.0079
 7524TIP3    H144063   0.451   5.896   0.759 -0.0019  0.3225 -0.1485
 7524TIP3    H244064   0.552   5.881   0.648  1.2880  0.4510  1.0019
 7525TIP3   OH244065   0.266   4.248   6.147  0.1804  0.4244  0.0850
 7525TIP3    H144066   0.178   4.214   6.156  0.7441 -0.5856  1.9230
 7525TIP3    H244067   0.267   4.330   6.197 -0.0885  1.2033 -1.1369
 7526TIP3   OH244068   3.160   0.783   6.487 -0.1990  0.1801  0.4049
 7526TIP3    H144069   3.174   0.787   6.582 -3.7579  0.7990  0.9873
 7526TIP3    H244070   3.162   0.875   6.460  0.3189  0.0351 -0.0440
 7527TIP3   OH244071   1.792   0.661   0.459  0.2938  0.6311 -0.1331
 7527TIP3    H144072   1.734   0.718   0.408  0.3688 -0.1914 -1.1369
 7527TIP3    H244073   1.741   0.640   0.538 -0.1957  1.1203 -0.3152
 7528TIP3   OH244074   5.289   5.954  16.658  0.5546 -0.2828 -0.1907
 7528TIP3    H144075   5.381   5.963  16.684  0.1962  0.1435  0.9647
 7528TIP3    H244076   5.241   6.005  16.723 -0.2461  2.2053 -2.6234
 7529TIP3   OH244077   6.720   0.982  13.554  0.1804 -0.2321 -0.3693
 7529TIP3    H144078   6.688   1.017  13.471 -1.9031 -2.0958 -0.3903
 7529TIP3    H244079   6.708   1.054  13.617 -0.8249  0.2556 -1.1108
 7530TIP3   OH244080   0.617   0.400   2.346 -0.0802  0.9626  0.0050
 7530TIP3    H144081   0.614   0.496   2.340  1.1080  0.9352 -1.1913
 7530TIP3    H244082   0.645   0.383   2.436  0.5133  1.7460 -0.0261
 7531TIP3   OH244083   6.133   1.724   2.036  0.5273  0.1025 -0.1163
 7531TIP3    H144084   6.150   1.686   2.123  2.0042  1.8490  0.3916
 7531TIP3    H244085   6.218   1.756   2.007 -0.1547  0.4317 -1.7931
 7532TIP3   OH244086   6.781   1.283   2.606 -0.1697  0.1908  0.2523
 7532TIP3    H144087   6.877   1.281   2.604 -0.1441  1.3188 -0.2223
 7532TIP3    H244088   6.758   1.352   2.543 -1.3417 -1.2233 -0.9037
 7533TIP3   OH244089   4.285   5.244  15.708 -0.0535  0.5446 -0.3949
 7533TIP3    H144090   4.349   5.203  15.650  0.0861  1.6862 -1.0439
 7533TIP3    H244091   4.200   5.227  15.667  0.0123  0.9911 -0.7139
 7534TIP3   OH244092   3.320   0.146   1.386 -0.0625  0.3723 -0.8530
 7534TIP3    H144093   3.308   0.080   1.318 -1.0531  1.2442 -1.5463
 7534TIP3    H244094   3.253   0.125   1.452  1.0639 -0.6248 -0.0175
 7535TIP3   OH244095   4.100   3.623   5.154  0.9254  0.1549 -0.0844
 7535TIP3    H144096   4.158   3.570   5.208  2.1424  0.5886 -0.9331
 7535TIP3    H244097   4.069   3.692   5.213  2.9997  1.1941 -0.1552
 7536TIP3   OH244098   3.470   1.621  16.847  0.0394  0.3201 -0.7251
 7536TIP3    H144099   3.454   1.586  16.935 -1.2028 -2.0610 -1.8582
 7536TIP3    H244100   3.389   1.665  16.823  0.5885  1.5010 -0.4647
 7537TIP3   OH244101   0.847   0.994  12.115 -0.6160  0.3432 -0.2542
 7537TIP3    H144102   0.834   0.921  12.055 -0.2857  0.4194 -0.4206
 7537TIP3    H244103   0.760   1.016  12.147 -0.8518  0.6647 -1.1244
 7538TIP3   OH244104   3.941   1.456  11.471  0.4058 -0.6626  0.4949
 7538TIP3    H144105   3.859   1.411  11.453  0.2569 -0.0150 -0.5180
 7538TIP3    H244106   4.001   1.425  11.403  0.4625  0.1991  0.1315
 7539TIP3   OH244107   0.633   4.511   4.860  0.0345 -0.2194 -0.1869
 7539TIP3    H144108   0.621   4.565   4.782 -0.0525  1.0967  0.7211
 7539TIP3    H244109   0.587   4.429   4.840  1.5583 -0.6165 -2.2097
 7540TIP3   OH244110   1.487   4.625  16.672  0.2426  0.3951  0.1454
 7540TIP3    H144111   1.497   4.708  16.720  2.4806  0.1752  0.0976
 7540TIP3    H244112   1.514   4.558  16.735  2.5567  0.0527 -1.1839
 7541TIP3   OH244113   2.023   2.265  11.643 -0.3488 -0.9189 -0.1289
 7541TIP3    H144114   1.974   2.183  11.634 -1.6607 -0.2685  0.8545
 7541TIP3    H244115   1.955   2.332  11.653  0.7107  0.2719 -0.8086
 7542TIP3   OH244116   2.239   3.139   3.128 -0.0804  0.1445 -0.4548
 7542TIP3    H144117   2.198   3.213   3.173  0.0217 -0.5346  0.7452
 7542TIP3    H244118   2.331   3.142   3.156 -0.0162 -0.2809 -0.6248
 7543TIP3   OH244119   2.455   4.948   4.662  0.3521  0.5989  0.2821
 7543TIP3    H144120   2.421   5.032   4.632  2.1260  0.9238 -0.9291
 7543TIP3    H244121   2.379   4.900   4.693 -1.1166  1.4915 -1.8445
 7544TIP3   OH244122   6.330   3.525  13.681 -0.0950  0.2106  0.2401
 7544TIP3    H144123   6.397   3.458  13.666  0.6105  1.0214 -0.3181
 7544TIP3    H244124   6.370   3.583  13.745  1.1687  2.6172 -2.5972
 7545TIP3   OH244125   3.395   3.224   3.206  0.0735  0.3006 -0.1247
 7545TIP3    H144126   3.464   3.218   3.272 -0.6445  0.8355  0.6790
 7545TIP3    H244127   3.429   3.285   3.140  0.9582 -0.5453 -0.4705
 7546TIP3   OH244128   3.163   0.242  14.603  0.3741  0.1924  0.5349
 7546TIP3    H144129   3.121   0.181  14.664 -1.0625  0.5202 -0.0922
 7546TIP3    H244130   3.133   0.214  14.516  0.3870  1.2468  0.1778
 7547TIP3   OH244131   6.334   5.665  12.578 -0.0759 -0.0673 -0.6008
 7547TIP3    H144132   6.397   5.735  12.562 -0.9762  0.9383  0.2027
 7547TIP3    H244133   6.365   5.622  12.658 -1.6600  1.9148  1.1423
 7548TIP3   OH244134   1.862   4.077  11.989  0.3621  0.2183  0.5695
 7548TIP3    H144135   1.777   4.088  11.946  0.0194 -0.1138  1.1661
 7548TIP3    H244136   1.883   3.985  11.977  1.3255  0.6066 -0.8504
 7549TIP3   OH244137   1.923   5.052   6.369 -0.1519  0.5716 -0.5507
 7549TIP3    H144138   1.950   5.141   6.348  0.4000  0.5429  0.0172
 7549TIP3    H244139   1.998   5.014   6.415 -1.4946  0.7810  1.8761
 7550TIP3   OH244140   1.603   0.448  14.586  0.2821  0.5261 -0.1678
 7550TIP3    H144141   1.521   0.484  14.553  0.9221  0.6000 -1.7296
 7550TIP3    H244142   1.649   0.523  14.624 -0.1245  0.5789  0.2333
 7551TIP3   OH244143   1.065   0.926   1.446  0.3057 -0.3185  0.2093
 7551TIP3    H144144   1.010   0.869   1.498 -0.3038  1.3791  1.4864
 7551TIP3    H244145   1.009   1.001   1.425  0.8219 -0.5529 -2.1286
 7552TIP3   OH244146   0.493   5.976   2.803 -0.5504  0.4448  1.0503
 7552TIP3    H144147   0.536   6.049   2.847 -2.0018  1.6113  0.5816
 7552TIP3    H244148   0.400   5.993   2.814 -0.9250 -0.0768 -1.0917
 7553TIP3   OH244149   0.654   1.742  16.545  0.5183 -0.3063  0.1911
 7553TIP3    H144150   0.697   1.692  16.476  0.1534  1.6822 -1.5597
 7553TIP3    H244151   0.725   1.792  16.586  0.2986  0.9437 -0.9143
 7554TIP3   OH244152   0.987   0.636   2.606 -0.6544  0.3811  0.2614
 7554TIP3    H144153   0.894   0.635   2.628 -1.0356  0.4389 -1.2306
 7554TIP3    H244154   1.013   0.545   2.609 -1.0624  0.2309 -0.4352
 7555TIP3   OH244155   5.360   2.003   1.873 -0.1050 -0.2423  0.3214
 7555TIP3    H144156   5.374   2.084   1.824  1.4778 -0.0731  1.0364
 7555TIP3    H244157   5.419   1.940   1.832 -0.5558 -0.7572  0.4570
 7556TIP3   OH244158   6.624   4.061  15.329  0.0908  0.2818  0.5232
 7556TIP3    H144159   6.622   4.153  15.354 -0.2792  0.2410  0.6508
 7556TIP3    H244160   6.640   4.062  15.234 -0.1617  0.4840  0.4830
 7557TIP3   OH244161   5.100   4.890   2.733  0.2577  0.1638  0.2011
 7557TIP3    H144162   5.024   4.836   2.754  0.7238 -0.8553 -0.6700
 7557TIP3    H244163   5.172   4.848   2.781  0.9648 -1.0553 -1.8714
 7558TIP3   OH244164   6.226   0.937   5.328 -0.4110  0.1349  0.4763
 7558TIP3    H144165   6.246   1.004   5.263 -0.2180  0.0288  0.4245
 7558TIP3    H244166   6.257   0.855   5.289  0.0054  0.1144  0.8361
 7559TIP3   OH244167   0.599   0.204  16.216  0.2832  0.2266 -0.5740
 7559TIP3    H144168   0.558   0.117  16.212  0.5414 -0.0334  1.5537
 7559TIP3    H244169   0.654   0.209  16.138 -0.4801 -1.1434 -1.2157
 7560TIP3   OH244170   2.763   1.425  15.101  0.5362  0.7792  0.0367
 7560TIP3    H144171   2.791   1.441  15.011  0.6854 -2.1632 -0.4826
 7560TIP3    H244172   2.842   1.438  15.153  1.0811 -0.0888 -0.5629
 7561TIP3   OH244173   6.406   6.639   0.697 -0.2022 -0.3242  0.4641
 7561TIP3    H144174   6.337   6.573   0.699  0.5529 -1.1466 -0.4326
 7561TIP3    H244175   6.461   6.614   0.623 -0.5136  1.9157 -0.5597
 7562TIP3   OH244176   2.048   3.015  13.089  0.8588 -0.3225 -0.1011
 7562TIP3    H144177   2.093   3.003  13.006  0.2560 -0.7125 -0.3747
 7562TIP3    H244178   2.113   3.054  13.147  0.9981  0.8581 -1.0435
 7563TIP3   OH244179   0.822   2.056  14.205 -0.5548 -0.0240  0.1114
 7563TIP3    H144180   0.810   2.078  14.113 -0.0431 -1.0094 -0.1940
 7563TIP3    H244181   0.733   2.040  14.238 -0.7183  0.1228 -0.2621
 7564TIP3   OH244182   5.305   1.600  13.833 -0.1229 -0.2581 -0.2061
 7564TIP3    H144183   5.398   1.584  13.815  0.0356  0.9724 -0.5320
 7564TIP3    H244184   5.295   1.695  13.825 -1.0026 -0.1512  1.7110
 7565TIP3   OH244185   3.521   1.562  13.694 -0.5121  0.3650 -0.5959
 7565TIP3    H144186   3.498   1.611  13.773 -2.0937 -0.1924 -0.6929
 7565TIP3    H244187   3.438   1.525  13.664  0.5635 -1.8777 -0.8517
 7566TIP3   OH244188   3.898   3.405  16.774 -0.0555 -0.1858 -0.1633
 7566TIP3    H144189   3.834   3.341  16.803 -1.9716  2.7998  2.5149
 7566TIP3    H244190   3.858   3.448  16.699  0.6258 -1.1297 -1.0804
 7567TIP3   OH244191   4.689   2.283   1.736  0.3264 -0.2724  0.1785
 7567TIP3    H144192   4.692   2.188   1.742 -1.3065 -0.4734 -2.0059
 7567TIP3    H244193   4.614   2.309   1.789  1.6569 -0.0292  2.0318
 7568TIP3   OH244194   5.704   3.106  11.498  0.7105 -0.3456  0.7800
 7568TIP3    H144195   5.691   3.177  11.435 -0.3370 -0.4145  0.9047
 7568TIP3    H244196   5.652   3.033  11.463  1.6638 -1.0088  0.7274
 7569TIP3   OH244197   6.168   6.480   5.388  0.2284 -0.1946 -0.2238
 7569TIP3    H144198   6.249   6.518   5.354 -0.2749  1.0045 -0.1386
 7569TIP3    H244199   6.194   6.396   5.426  1.5838  0.5961  0.6444
 7570TIP3   OH244200   1.564   5.640   2.145  1.0129  0.0413 -0.2228
 7570TIP3    H144201   1.647   5.687   2.147  0.7276  0.5233  0.3502
 7570TIP3    H244202   1.533   5.650   2.055  0.9977  0.8739 -0.1307
 7571TIP3   OH244203   1.968   5.845  13.795 -0.3989  0.2705 -0.0478
 7571TIP3    H144204   1.987   5.781  13.727 -1.8501  0.2527 -0.4443
 7571TIP3    H244205   1.922   5.796  13.863 -1.1096  0.7905 -0.1486
 7572TIP3   OH244206   3.751   1.237   0.215 -0.2345 -0.0014  0.0149
 7572TIP3    H144207   3.683   1.232   0.148 -0.7442  1.5628  0.4177
 7572TIP3    H244208   3.826   1.275   0.170 -1.1253  2.6890  0.7470
 7573TIP3   OH244209   0.331   1.927  12.204 -0.5603  0.3412  0.0256
 7573TIP3    H144210   0.364   1.975  12.128 -0.5119  0.1187 -0.0948
 7573TIP3    H244211   0.282   1.992  12.253 -0.9222  0.3907 -0.4003
 7574TIP3   OH244212   3.053   5.929   5.464  0.6546 -0.1829  0.8532
 7574TIP3    H144213   3.145   5.902   5.460  0.6668 -0.1559  0.9294
 7574TIP3    H244214   3.020   5.885   5.543 -0.2551 -2.7722 -0.9271
 7575TIP3   OH244215   6.416   1.077  13.179 -0.7010 -0.1207  0.0276
 7575TIP3    H144216   6.407   1.172  13.180  1.2746  0.0909 -0.0060
 7575TIP3    H244217   6.382   1.050  13.094 -0.9018  0.5923 -0.1167
 7576TIP3   OH244218   4.663   4.436   3.175 -0.1622 -0.2810  0.8995
 7576TIP3    H144219   4.637   4.422   3.267  1.8900  3.6371  2.1998
 7576TIP3    H244220   4.743   4.384   3.165 -0.2742 -0.5596  1.4000
 7577TIP3   OH244221   4.188   3.450  11.862 -0.5854 -0.0808  0.0904
 7577TIP3    H144222   4.167   3.540  11.888  1.2853  1.0964 -2.3346
 7577TIP3    H244223   4.222   3.409  11.942  0.9753  2.1309  0.5869
 7578TIP3   OH244224   4.436   6.749   2.068  1.1933  0.2325 -0.0019
 7578TIP3    H144225   4.437   6.803   2.147 -1.0726 -0.1341  0.3090
 7578TIP3    H244226   4.392   6.668   2.095 -0.0759  0.3169 -1.7612
 7579TIP3   OH244227   2.275   4.228  14.569  0.3908  0.2916 -0.1041
 7579TIP3    H144228   2.364   4.203  14.543  0.0548 -1.5106  0.4641
 7579TIP3    H244229   2.277   4.230  14.664 -0.2473  0.0015 -0.0823
 7580TIP3   OH244230   3.544   3.121  15.601 -0.1138  0.6025  0.1764
 7580TIP3    H144231   3.609   3.145  15.535  0.6820  0.8076  1.0069
 7580TIP3    H244232   3.538   3.198  15.658 -2.0064  1.0405 -0.5910
 7581TIP3   OH244233   1.693   2.942   5.783  0.4594 -0.6345 -0.2142
 7581TIP3    H144234   1.680   2.879   5.712 -0.5029 -1.8097  1.0150
 7581TIP3    H244235   1.695   2.890   5.863 -0.8825  0.9452  0.8704
 7582TIP3   OH244236   1.079   0.141   6.271 -0.3136 -0.0170  0.1566
 7582TIP3    H144237   1.087   0.133   6.176  0.5239  0.2399  0.2007
 7582TIP3    H244238   1.053   0.232   6.285  0.0589  0.0884  0.1911
 7583TIP3   OH244239   5.103   4.593  11.359  0.6352 -0.1968 -0.4344
 7583TIP3    H144240   5.180   4.611  11.414 -0.4039  0.5971  0.7988
 7583TIP3    H244241   5.083   4.677  11.318  1.4146 -0.7942 -2.0723
 7584TIP3   OH244242   1.419   0.116   5.955 -0.0590 -0.1963  0.4169
 7584TIP3    H144243   1.456   0.196   5.916 -0.7127  0.5378  1.2556
 7584TIP3    H244244   1.446   0.121   6.047  2.0894 -2.2651 -0.0699
 7585TIP3   OH244245   3.784   3.653   0.311 -0.7882 -0.6668 -0.1573
 7585TIP3    H144246   3.848   3.721   0.335 -1.2586 -0.4935  0.6009
 7585TIP3    H244247   3.833   3.571   0.317  0.1407 -0.3169 -2.2806
 7586TIP3   OH244248   2.128   0.409   1.661  0.4476 -0.5116 -0.1917
 7586TIP3    H144249   2.152   0.377   1.574  1.4458  1.1710 -0.5654
 7586TIP3    H244250   2.032   0.406   1.661  0.3499  1.1179 -2.0274
 7587TIP3   OH244251   3.237   2.816   4.447  0.3852  0.2918 -0.1607
 7587TIP3    H144252   3.186   2.764   4.510  0.0014 -0.4569 -1.0778
 7587TIP3    H244253   3.301   2.863   4.501  0.1967 -0.4976  0.7705
 7588TIP3   OH244254   3.585   3.786   0.173  0.4007 -0.3127 -0.4371
 7588TIP3    H144255   3.621   3.789   0.085  0.2161 -0.1631 -0.5081
 7588TIP3    H244256   3.654   3.748   0.227  0.4480 -0.5650 -0.6798
 7589TIP3   OH244257   2.726   5.112  16.800  0.5402  0.3400 -0.3205
 7589TIP3    H144258   2.792   5.177  16.773  0.4048  1.1481  1.2538
 7589TIP3    H244259   2.754   5.083  16.886 -2.3737  2.3872  1.3919
 7590TIP3   OH244260   3.940   4.690  16.061 -0.5308  0.6353  0.1060
 7590TIP3    H144261   4.014   4.630  16.068 -0.3273  0.8398 -0.2791
 7590TIP3    H244262   3.881   4.648  15.998 -0.5052  0.7111  0.0293
 7591TIP3   OH244263   0.382   0.570   0.960 -0.6159  0.0220  0.8553
 7591TIP3    H144264   0.470   0.562   0.996 -0.4172  1.0769  0.6219
 7591TIP3    H244265   0.325   0.567   1.037 -0.3207  0.2166  1.0846
 7592TIP3   OH244266   0.607   5.618   5.749  0.1404 -0.1562 -0.2081
 7592TIP3    H144267   0.676   5.558   5.721  0.4447  1.1727 -2.4310
 7592TIP3    H244268   0.571   5.653   5.667 -1.6665  0.8503  0.9824
 7593TIP3   OH244269   4.497   3.484  13.674 -0.0460  0.3248 -0.1423
 7593TIP3    H144270   4.405   3.507  13.684  0.0839  0.1979  1.5070
 7593TIP3    H244271   4.517   3.501  13.582 -1.1294  2.4777 -0.0100
 7594TIP3   OH244272   3.621   4.446   3.518 -0.1926  0.0141  0.1242
 7594TIP3    H144273   3.613   4.482   3.606 -0.2166 -1.0714  0.5849
 7594TIP3    H244274   3.572   4.364   3.522 -0.6524  0.2271 -1.0584
 7595TIP3   OH244275   0.520   2.890   4.472 -0.4912 -0.3727  0.3287
 7595TIP3    H144276   0.554   2.975   4.444  0.2600 -1.0357 -0.7733
 7595TIP3    H244277   0.511   2.899   4.567 -0.2303  0.8722  0.2483
 7596TIP3   OH244278   0.782   0.179  11.548  0.3022 -0.7802  0.0191
 7596TIP3    H144279   0.753   0.252  11.493 -0.8670 -0.6176  0.8296
 7596TIP3    H244280   0.833   0.220  11.617 -2.2364 -0.4305  1.7771
 7597TIP3   OH244281   4.705   4.186   6.101 -0.4586  0.2758 -0.8065
 7597TIP3    H144282   4.655   4.119   6.149 -0.8580  1.0596 -0.1256
 7597TIP3    H244283   4.639   4.233   6.050 -0.2250  0.4224 -0.9758
 7598TIP3   OH244284   0.552   3.174  12.483  0.4102 -0.4387  0.0860
 7598TIP3    H144285   0.576   3.160  12.575  2.7203 -0.9006 -0.5597
 7598TIP3    H244286   0.556   3.268  12.471  0.1170 -0.3775  0.4600
 7599TIP3   OH244287   1.808   2.196   4.074  0.1329 -0.2511 -0.3663
 7599TIP3    H144288   1.844   2.109   4.093  3.1667  1.3535  1.7360
 7599TIP3    H244289   1.740   2.209   4.140  1.1459 -0.1994  0.6798
 7600TIP3   OH244290   2.265   1.406  12.486  0.2862  0.1329 -0.2368
 7600TIP3    H144291   2.189   1.390  12.430  0.8247 -1.1222 -0.6233
 7600TIP3    H244292   2.290   1.496  12.466 -0.9183  0.4647 -0.3153
 7601TIP3   OH244293   5.742   5.184   2.257 -0.4477  0.0727 -0.1844
 7601TIP3    H144294   5.702   5.097   2.253 -1.1950  0.4354 -0.7564
 7601TIP3    H244295   5.677   5.238   2.303  0.3730  0.1345  0.9134
 7602TIP3   OH244296   0.100   2.688   4.768 -0.3112 -0.4646  0.6712
 7602TIP3    H144297   0.015   2.732   4.770  0.8205  1.9086 -0.8987
 7602TIP3    H244298   0.111   2.661   4.677  0.1438 -1.7323  1.0996
 7603TIP3   OH244299   5.598   2.488   1.111  0.8230 -0.3659 -0.4961
 7603TIP3    H144300   5.605   2.452   1.023  0.5820 -1.3780 -0.1162
 7603TIP3    H244301   5.648   2.569   1.109  0.5925 -0.2495 -1.6313
 7604TIP3   OH244302   5.587   3.860   2.795 -0.0098  0.0131 -0.3226
 7604TIP3    H144303   5.507   3.822   2.759  0.4943  0.5679 -2.0890
 7604TIP3    H244304   5.559   3.905   2.875 -1.6592  1.1627 -1.5171
 7605TIP3   OH244305   1.429   2.915  15.183 -0.1687 -0.0830 -0.2449
 7605TIP3    H144306   1.476   2.934  15.102 -0.6594  2.8633  0.1094
 7605TIP3    H244307   1.341   2.890  15.154 -1.4162  4.3118 -0.6036
 7606TIP3   OH244308   2.196   3.764   6.508  0.3660  0.4427  0.3667
 7606TIP3    H144309   2.269   3.756   6.447 -1.1222 -0.0799 -1.3744
 7606TIP3    H244310   2.133   3.697   6.481 -3.0823  4.2157 -1.4704
 7607TIP3   OH244311   6.064   1.228  12.726 -0.1331  0.1051 -0.0674
 7607TIP3    H144312   6.053   1.169  12.801  1.2104  1.8119  1.5199
 7607TIP3    H244313   6.002   1.299  12.742  0.8070  0.9413 -0.1004
 7608TIP3   OH244314   3.663   4.573  16.706 -0.3501  0.0398  0.2613
 7608TIP3    H144315   3.617   4.506  16.656 -1.9410  0.5900  0.9473
 7608TIP3    H244316   3.626   4.656  16.676  0.0057  0.4825  1.0275
 7609TIP3   OH244317   1.834   3.755   2.747 -0.4367  0.5996 -0.0357
 7609TIP3    H144318   1.820   3.813   2.822 -0.3455  1.1321 -0.4272
 7609TIP3    H244319   1.798   3.670   2.775 -0.2649  0.7538  0.6644
 7610TIP3   OH244320   6.354   6.706  13.173 -1.1286 -0.0045 -0.3732
 7610TIP3    H144321   6.267   6.694  13.137 -0.9749 -1.3432 -0.2980
 7610TIP3    H244322   6.392   6.776  13.120 -1.0658 -1.6284 -2.5284
 7611TIP3   OH244323   6.418   2.102  12.237  0.0698  0.4829 -0.7916
 7611TIP3    H144324   6.356   2.075  12.305  0.7567 -0.6580 -0.5844
 7611TIP3    H244325   6.410   2.034  12.169  1.2955  0.1395 -0.6135
 7612TIP3   OH244326   1.457   2.425  14.169 -0.1060 -0.3409  0.0759
 7612TIP3    H144327   1.492   2.337  14.181  1.0460  0.2902  1.4225
 7612TIP3    H244328   1.500   2.457  14.090  1.9399  0.1890  1.3606
 7613TIP3   OH244329   3.103   4.252  12.349 -0.2244 -0.2596  0.0062
 7613TIP3    H144330   3.018   4.292  12.368 -0.2327  0.0633 -0.6693
 7613TIP3    H244331   3.089   4.158  12.360 -0.9661 -0.3028 -1.1534
 7614TIP3   OH244332   3.461   3.113  15.143  0.4261  0.3654  0.7642
 7614TIP3    H144333   3.454   3.203  15.111  1.8903 -0.0582 -0.7991
 7614TIP3    H244334   3.395   3.107  15.212  1.8430  3.3071  2.4513
 7615TIP3   OH244335   3.556   0.277   3.304 -0.2407  0.3137  0.2643
 7615TIP3    H144336   3.544   0.206   3.241 -0.1198  0.3406  0.2099
 7615TIP3    H244337   3.570   0.355   3.250  0.0804  0.2990  0.3210
 7616TIP3   OH244338   4.146   0.999  16.798 -0.4228 -1.3974 -0.5010
 7616TIP3    H144339   4.160   0.917  16.846  0.1019 -0.9462  0.1294
 7616TIP3    H244340   4.232   1.041  16.798 -0.7767 -0.6671 -0.4845
 7617TIP3   OH244341   5.419   3.570   1.731 -0.2059 -0.3779  0.5746
 7617TIP3    H144342   5.469   3.645   1.763  0.4896 -0.2602 -0.7493
 7617TIP3    H244343   5.424   3.505   1.802 -0.1988  0.5480  1.4240
 7618TIP3   OH244344   2.559   3.299   3.673 -0.2290  0.2250 -0.2135
 7618TIP3    H144345   2.615   3.356   3.620 -0.2967  0.4868 -0.0022
 7618TIP3    H244346   2.587   3.211   3.650  0.8276  0.3647  0.4992
 7619TIP3   OH244347   0.670   5.099  15.356  0.3872  0.2184 -0.5318
 7619TIP3    H144348   0.632   5.026  15.404  0.7311  0.0956 -0.4425
 7619TIP3    H244349   0.713   5.152  15.423  1.7613 -0.5034 -0.8108
 7620TIP3   OH244350   5.021   4.825  11.223  0.3932 -0.5448 -0.3883
 7620TIP3    H144351   4.995   4.752  11.167 -2.2824 -0.1212  0.2393
 7620TIP3    H244352   5.108   4.849  11.192  1.3551 -3.9936 -0.5911
 7621TIP3   OH244353   0.743   6.641   5.591  0.1564 -0.0484 -0.5018
 7621TIP3    H144354   0.668   6.669   5.642  0.2422 -0.3662 -0.2015
 7621TIP3    H244355   0.767   6.718   5.539 -0.4595  0.0093 -0.7038
 7622TIP3   OH244356   5.165   5.852   1.670  0.5849 -0.1654  0.6258
 7622TIP3    H144357   5.155   5.829   1.763 -0.8528  2.2421  1.1205
 7622TIP3    H244358   5.219   5.931   1.671  1.9418 -1.0482 -0.7220
 7623TIP3   OH244359   2.220   4.374   3.313 -0.7849 -0.2180  0.1839
 7623TIP3    H144360   2.267   4.370   3.397  0.8924 -0.4711 -0.7387
 7623TIP3    H244361   2.130   4.350   3.335 -0.2512 -0.8192  1.8252
 7624TIP3   OH244362   5.575   2.509  11.671 -0.1663  0.6376 -0.3592
 7624TIP3    H144363   5.528   2.556  11.739 -0.5713 -2.3754  1.5257
 7624TIP3    H244364   5.512   2.502  11.599 -1.5770 -0.6370  0.9528
 7625TIP3   OH244365   5.807   5.920   3.305 -0.3246 -0.2306 -0.6722
 7625TIP3    H144366   5.847   5.855   3.362 -1.7163 -1.6677 -1.3148
 7625TIP3    H244367   5.713   5.905   3.313 -0.6412  1.3349 -1.2610
 7626TIP3   OH244368   3.385   6.476  11.166  0.2070 -0.1355 -0.1362
 7626TIP3    H144369   3.315   6.440  11.112  0.4958  0.3019 -0.8146
 7626TIP3    H244370   3.359   6.567  11.182 -0.8417 -0.8129  2.1128
 7627TIP3   OH244371   0.429   3.104   5.369  0.6678 -0.0060  0.3039
 7627TIP3    H144372   0.433   3.181   5.427 -0.7936  0.2631  0.0588
 7627TIP3    H244373   0.336   3.083   5.363  0.8574 -0.4205 -1.4550
 7628TIP3   OH244374   1.924   2.864  13.606 -0.3508 -0.2702  0.1400
 7628TIP3    H144375   1.976   2.943  13.623 -1.2604  0.5727 -0.8402
 7628TIP3    H244376   1.885   2.880  13.520 -1.2539 -1.4111  0.3283
 7629TIP3   OH244377   4.547   1.156  13.946  0.0786 -0.8016 -0.5212
 7629TIP3    H144378   4.604   1.217  13.900  0.5670  0.0938  1.2299
 7629TIP3    H244379   4.468   1.150  13.892 -1.0720  3.3773  0.5460
 7630TIP3   OH244380   0.911   1.438  13.902  0.1615  0.3333 -0.1181
 7630TIP3    H144381   0.856   1.370  13.942  0.1667  0.9020  0.8703
 7630TIP3    H244382   0.859   1.473  13.831 -0.8013  0.9503  0.8852
 7631TIP3   OH244383   5.885   4.254   4.966 -0.3027 -0.0420  0.5501
 7631TIP3    H144384   5.899   4.330   4.908 -0.5601  0.9612  1.7733
 7631TIP3    H244385   5.898   4.178   4.909 -0.6916  0.9151 -0.8640
 7632TIP3   OH244386   5.637   1.734   3.729  0.1152 -0.0567  0.3426
 7632TIP3    H144387   5.577   1.685   3.785 -0.5123  0.4165  0.0934
 7632TIP3    H244388   5.691   1.785   3.790  0.0196 -0.2119  0.5548
 7633TIP3   OH244389   1.029   4.808   1.452  0.7410 -0.3238 -0.4721
 7633TIP3    H144390   1.034   4.855   1.369  4.3496 -1.1795 -0.8115
 7633TIP3    H244391   1.006   4.719   1.428  1.9581 -0.6118 -0.5761
 7634TIP3   OH244392   6.258   6.459   2.511  0.1274  0.0593  0.4156
 7634TIP3    H144393   6.297   6.392   2.454 -0.3604 -0.0348  0.1868
 7634TIP3    H244394   6.209   6.516   2.452 -0.4748 -0.1027  0.7492
 7635TIP3   OH244395   2.679   6.384  12.971  0.4379  0.3378 -0.0314
 7635TIP3    H144396   2.606   6.322  12.971 -0.8633  1.7838  2.4363
 7635TIP3    H244397   2.638   6.469  12.987  2.7378  1.0699  2.2609
 7636TIP3   OH244398   1.110   4.377  17.230  0.0548 -0.2569 -0.2518
 7636TIP3    H144399   1.197   4.407  17.206 -0.7868  2.0825 -0.5332
 7636TIP3    H244400   1.099   4.405  17.321 -1.9873  3.3811 -1.5268
 7637TIP3   OH244401   6.084   0.206  15.197  0.6528  0.1237  0.3709
 7637TIP3    H144402   6.166   0.165  15.225  0.1838  0.1921  1.8831
 7637TIP3    H244403   6.090   0.207  15.101  1.8804 -0.9772  0.4120
 7638TIP3   OH244404   0.227   6.729   6.010 -0.3843  0.2924 -0.0302
 7638TIP3    H144405   0.203   6.652   6.063  0.4053 -0.6510 -1.0316
 7638TIP3    H244406   0.160   6.794   6.031 -2.4046 -1.4445 -0.9080
 7639TIP3   OH244407   6.088   2.864   6.327 -0.1283 -0.5674  0.1100
 7639TIP3    H144408   6.088   2.946   6.278 -0.9173 -1.1085 -0.8062
 7639TIP3    H244409   5.998   2.832   6.321 -0.6749  0.1695  3.3120
 7640TIP3   OH244410   1.011   5.216   6.337 -0.0092  0.0639 -0.3819
 7640TIP3    H144411   1.058   5.148   6.386 -0.5363  0.5623  0.8035
 7640TIP3    H244412   1.026   5.296   6.386 -0.4187  0.5988 -1.1179
 7641TIP3   OH244413   4.032   6.621  12.574 -0.4861  0.7605 -0.4908
 7641TIP3    H144414   3.950   6.572  12.575  0.1659 -0.3285  0.6942
 7641TIP3    H244415   4.008   6.708  12.541 -2.0226  0.3022 -0.5948
 7642TIP3   OH244416   4.044   6.574  15.125  0.1112 -0.0825  0.1788
 7642TIP3    H144417   3.987   6.607  15.195  0.1338  0.0478  0.1361
 7642TIP3    H244418   3.985   6.564  15.050  0.3760  1.1815 -0.2042
 7643TIP3   OH244419   0.987   2.128  13.846 -0.4415 -0.5452  0.5722
 7643TIP3    H144420   0.983   2.162  13.757  1.3956 -1.4713  0.1131
 7643TIP3    H244421   1.001   2.206  13.901 -1.4611  0.0101  0.0470
 7644TIP3   OH244422   6.304   0.691  15.505 -0.1380  0.3758  0.5188
 7644TIP3    H144423   6.386   0.643  15.520 -0.9600 -1.5094 -0.8178
 7644TIP3    H244424   6.237   0.637  15.546 -0.9478  0.9605 -0.0361
 7645TIP3   OH244425   3.510   4.920  12.991  0.3631 -0.6574  0.0186
 7645TIP3    H144426   3.498   4.909  12.897 -1.0196 -0.0900  0.1219
 7645TIP3    H244427   3.421   4.929  13.026  0.7714 -2.3558  1.5760
 7646TIP3   OH244428   4.053   6.660   5.783  0.2709 -0.9098 -0.2924
 7646TIP3    H144429   4.042   6.755   5.787  1.6351 -0.7793  0.7227
 7646TIP3    H244430   4.000   6.633   5.707 -0.6379  0.5665 -0.2084
 7647TIP3   OH244431   5.206   3.745   0.221 -0.0257 -0.3002 -0.3196
 7647TIP3    H144432   5.261   3.823   0.226 -0.0812 -0.3577  1.6709
 7647TIP3    H244433   5.255   3.685   0.165  1.2534  0.2079  0.2359
 7648TIP3   OH244434   3.473   1.453  13.138  0.1303  0.2196  0.5705
 7648TIP3    H144435   3.477   1.358  13.150 -0.1675  0.2213  0.6913
 7648TIP3    H244436   3.380   1.471  13.125  0.0165  0.6543  1.8914
 7649TIP3   OH244437   6.054   3.032  13.552 -0.0391  0.0442 -0.2358
 7649TIP3    H144438   6.038   3.016  13.459 -1.8024  0.5883 -0.0297
 7649TIP3    H244439   6.018   3.119  13.568 -2.2132 -1.1405  1.5370
 7650TIP3   OH244440   3.856   3.601   6.494  0.1736  0.0123  0.3636
 7650TIP3    H144441   3.782   3.559   6.450 -0.8310  1.4596  0.6215
 7650TIP3    H244442   3.898   3.531   6.543  0.0376 -1.1790 -1.2102
 7651TIP3   OH244443   3.657   0.378   2.267  0.4141  0.3113  0.0781
 7651TIP3    H144444   3.637   0.412   2.354 -1.8476 -0.5428 -0.0745
 7651TIP3    H244445   3.573   0.378   2.221  1.3207 -0.5625 -1.6491
 7652TIP3   OH244446   1.571   6.315   0.984  0.8256 -0.0923  0.3129
 7652TIP3    H144447   1.519   6.329   0.904  1.8021  0.3666 -0.2549
 7652TIP3    H244448   1.518   6.256   1.037  0.0748 -0.2553 -0.6007
 7653TIP3   OH244449   1.268   2.719  10.810 -0.0798 -0.0341 -0.2203
 7653TIP3    H144450   1.334   2.740  10.876  0.3176 -0.4470 -0.4847
 7653TIP3    H244451   1.241   2.804  10.775 -0.8852  0.2395  1.0471
 7654TIP3   OH244452   3.233   0.574  16.307 -0.2752  0.7284 -0.3184
 7654TIP3    H144453   3.185   0.574  16.390 -1.6234 -2.7070 -1.0104
 7654TIP3    H244454   3.311   0.521  16.324 -0.8594 -0.5048 -1.3642
 7655TIP3   OH244455   6.084   3.354   5.760  0.1049 -0.2618 -0.2719
 7655TIP3    H144456   6.022   3.324   5.827 -0.2100 -2.5084 -1.4953
 7655TIP3    H244457   6.163   3.304   5.776  0.9437  1.1489  0.0540
 7656TIP3   OH244458   2.225   0.283   1.409 -0.0303  0.1827  0.4172
 7656TIP3    H144459   2.275   0.334   1.346 -0.2228  0.6424  0.6319
 7656TIP3    H244460   2.287   0.217   1.441 -0.2095 -0.6386 -0.9299
 7657TIP3   OH244461   0.189   0.184   1.783 -0.2504 -0.0566  0.2666
 7657TIP3    H144462   0.194   0.170   1.878  0.4002 -1.5691  0.0371
 7657TIP3    H244463   0.257   0.249   1.765  0.1123 -0.2931  0.7614
 7658TIP3   OH244464   3.643   1.865  16.898  0.1513  0.5888  0.6664
 7658TIP3    H144465   3.679   1.836  16.814  0.6429  1.0540  0.7128
 7658TIP3    H244466   3.607   1.785  16.937  0.7848  0.1853  0.4425
 7659TIP3   OH244467   6.603   1.199   5.433 -0.0110  0.4253  0.7263
 7659TIP3    H144468   6.517   1.221   5.397  0.3346  1.0078  0.2676
 7659TIP3    H244469   6.665   1.244   5.377  0.5760  0.4318  1.3768
 7660TIP3   OH244470   5.541   0.356   1.369 -0.2711  0.0164  0.2633
 7660TIP3    H144471   5.467   0.362   1.430  0.3899 -0.3184  1.0994
 7660TIP3    H244472   5.611   0.314   1.419 -0.1548 -1.5250 -1.1134
 7661TIP3   OH244473   2.378   1.832  14.805 -0.4000 -0.0433  0.2074
 7661TIP3    H144474   2.337   1.777  14.738  0.5159 -0.7500  0.2129
 7661TIP3    H244475   2.398   1.771  14.876  2.6828 -0.1589 -0.7011
 7662TIP3   OH244476   4.380   6.323  14.123  0.4677  0.0272  0.6529
 7662TIP3    H144477   4.342   6.360  14.043  1.6324 -2.0045 -0.8992
 7662TIP3    H244478   4.419   6.398  14.169 -0.4262  1.2491 -0.5613
 7663TIP3   OH244479   1.947   6.057  13.638  0.1468  0.4998 -0.1735
 7663TIP3    H144480   1.928   5.994  13.708  2.7432 -0.7499 -0.5486
 7663TIP3    H244481   2.033   6.093  13.660  0.4434  1.0146 -2.0745
 7664TIP3   OH244482   3.380   3.894  17.183  0.3934  0.4607 -0.2274
 7664TIP3    H144483   3.361   3.916  17.274 -0.8153  2.9509 -1.0329
 7664TIP3    H244484   3.470   3.860  17.184  1.0063  2.1032  1.6346
 7665TIP3   OH244485   4.076   4.570   0.571 -0.3219  0.1150  0.2609
 7665TIP3    H144486   4.060   4.593   0.662 -0.0926 -2.1140  0.9056
 7665TIP3    H244487   3.994   4.589   0.526 -1.1007 -0.6385  1.3381
 7666TIP3   OH244488   1.804   2.761   5.130 -0.2354  0.3761 -0.5440
 7666TIP3    H144489   1.775   2.782   5.219  0.4875 -0.2414 -0.1537
 7666TIP3    H244490   1.899   2.757   5.137 -0.0478  2.2090 -1.7584
 7667TIP3   OH244491   0.552   5.772  12.761 -0.2779 -0.0206  0.0289
 7667TIP3    H144492   0.583   5.723  12.685 -0.7732 -1.1187  0.5315
 7667TIP3    H244493   0.457   5.768  12.755 -0.3159 -0.0627  0.6879
 7668TIP3   OH244494   0.388   5.696   0.521  0.4436 -0.2400  0.0219
 7668TIP3    H144495   0.396   5.625   0.585 -1.2465 -0.4167  0.0575
 7668TIP3    H244496   0.330   5.759   0.563  1.5616  0.9519 -0.2086
 7669TIP3   OH244497   5.732   4.527   3.356 -0.3153  0.0768  0.1065
 7669TIP3    H144498   5.722   4.498   3.446  1.2903  1.8497  0.8690
 7669TIP3    H244499   5.818   4.568   3.352  0.2875 -1.2987 -2.6076
 7670TIP3   OH244500   2.502   6.623  12.970  0.1146  0.1853 -0.0671
 7670TIP3    H144501   2.526   6.681  13.042  2.2723  1.7810 -1.9991
 7670TIP3    H244502   2.439   6.674  12.918 -0.5108 -0.4906  0.0219
 7671TIP3   OH244503   0.783   6.557   1.719  0.3153  0.3021  0.2461
 7671TIP3    H144504   0.861   6.524   1.763 -0.0090 -0.7022  0.0894
 7671TIP3    H244505   0.778   6.506   1.638 -1.5755 -1.0569  1.1717
 7672TIP3   OH244506   0.993   3.480   5.523  0.2850 -0.2384 -0.0533
 7672TIP3    H144507   1.037   3.550   5.571 -1.2883  0.3571  0.5275
 7672TIP3    H244508   0.983   3.513   5.434  1.0367 -0.3954 -0.2018
 7673TIP3   OH244509   1.100   3.387  13.735  0.1232 -0.6851 -0.7242
 7673TIP3    H144510   1.118   3.348  13.649  0.3009 -1.1071 -0.5007
 7673TIP3    H244511   1.129   3.478  13.727 -0.2480 -0.6094 -1.2381
 7674TIP3   OH244512   3.717   3.859  15.627  0.3616  0.2500  0.3399
 7674TIP3    H144513   3.732   3.796  15.557  1.0543  1.3949 -0.5634
 7674TIP3    H244514   3.776   3.832  15.697  0.7683 -0.0119 -0.1039
 7675TIP3   OH244515   1.359   0.118   1.565 -0.1628  0.0290  0.0312
 7675TIP3    H144516   1.283   0.122   1.507 -0.6331  0.5426  0.6799
 7675TIP3    H244517   1.344   0.187   1.630  2.1722  1.9788 -1.4059
 7676TIP3   OH244518   2.504   6.065   4.083 -0.0961  0.3765 -0.3763
 7676TIP3    H144519   2.482   5.976   4.111  0.0809  0.4120 -0.1209
 7676TIP3    H244520   2.518   6.113   4.165 -0.4518  0.7084 -0.5091
 7677TIP3   OH244521   2.665   1.327   6.567 -0.2581  0.0717 -0.2759
 7677TIP3    H144522   2.603   1.327   6.494 -2.4687 -2.7850  1.4361
 7677TIP3    H244523   2.742   1.281   6.534  0.2435  1.9972 -1.8683
 7678TIP3   OH244524   3.283   6.513   1.383  0.3590 -0.5530  0.2105
 7678TIP3    H144525   3.333   6.443   1.344 -0.9334 -1.3828  0.0109
 7678TIP3    H244526   3.284   6.583   1.318  3.3898  0.4635  1.2401
 7679TIP3   OH244527   2.407   4.868   0.704  0.3622 -0.6326 -0.4824
 7679TIP3    H144528   2.438   4.835   0.620  2.4046  0.3432 -0.1307
 7679TIP3    H244529   2.412   4.963   0.695 -1.0755 -0.4786  0.1541
 7680TIP3   OH244530   4.469   3.342   2.039 -0.5753  0.1821  0.1743
 7680TIP3    H144531   4.424   3.347   1.955 -1.1663 -0.5476  0.4407
 7680TIP3    H244532   4.519   3.423   2.045 -0.8625  0.4242 -0.6934
 7681TIP3   OH244533   1.217   1.078   2.368 -0.5845  0.2231 -0.3162
 7681TIP3    H144534   1.227   1.034   2.283 -0.8190  0.4414 -0.4582
 7681TIP3    H244535   1.149   1.028   2.413  1.2984 -1.4287  0.7605
 7682TIP3   OH244536   3.532   6.588   5.432 -0.3917 -0.8242 -0.2708
 7682TIP3    H144537   3.590   6.535   5.486 -1.6237 -3.1549 -1.1384
 7682TIP3    H244538   3.461   6.615   5.490 -0.0506 -0.5955  0.0388
 7683TIP3   OH244539   5.989   1.249  14.799 -0.2866  0.0264  0.5649
 7683TIP3    H144540   6.083   1.266  14.808  0.1236 -1.2349 -0.9801
 7683TIP3    H244541   5.984   1.174  14.740 -2.2568 -0.3285  1.1405
 7684TIP3   OH244542   3.994   3.195  15.009 -0.1777  0.4065 -1.0978
 7684TIP3    H144543   3.980   3.256  14.937  0.9447 -0.0085 -1.6838
 7684TIP3    H244544   4.016   3.112  14.966 -0.6171 -0.1348 -0.2963
 7685TIP3   OH244545   0.846   3.074  13.615 -0.0281 -0.1281  0.0219
 7685TIP3    H144546   0.841   3.167  13.640 -1.0311 -0.5959  1.6088
 7685TIP3    H244547   0.755   3.048  13.600  0.1154 -1.2121  0.9625
 7686TIP3   OH244548   2.387   1.703  16.295  0.1223 -0.3931 -0.2181
 7686TIP3    H144549   2.387   1.677  16.387 -0.9204 -0.9707 -0.3643
 7686TIP3    H244550   2.437   1.784  16.293 -1.3356  0.5754  1.1418
 7687TIP3   OH244551   4.392   1.924   1.347  0.2187  0.0131 -0.0892
 7687TIP3    H144552   4.406   2.016   1.369 -1.1097  0.4922 -1.1515
 7687TIP3    H244553   4.316   1.898   1.398  0.5498 -0.4694  0.1539
 7688TIP3   OH244554   4.505   5.387  13.508  0.0312  0.4726 -0.1125
 7688TIP3    H144555   4.534   5.450  13.442  0.7201  0.9293  0.6243
 7688TIP3    H244556   4.466   5.440  13.577  2.2886  0.2626  1.3792
 7689TIP3   OH244557   5.749   2.280  14.962  0.0138 -0.2242 -0.0836
 7689TIP3    H144558   5.770   2.187  14.971 -2.4546 -0.6936  1.0511
 7689TIP3    H244559   5.739   2.293  14.867 -1.6540 -1.5747 -0.1031
 7690TIP3   OH244560   1.704   1.486   3.902 -0.1879 -0.7004 -0.3504
 7690TIP3    H144561   1.742   1.404   3.870  2.5342  0.1066  0.6521
 7690TIP3    H244562   1.777   1.548   3.902 -2.1359  1.6693 -0.8207
 7691TIP3   OH244563   5.608   3.031   3.484  0.1628  0.4240  0.3148
 7691TIP3    H144564   5.535   2.992   3.532 -0.9380  2.0975  0.0674
 7691TIP3    H244565   5.662   2.957   3.457 -2.4042 -0.9975 -1.0424
 7692TIP3   OH244566   0.118   6.229   2.328  0.0234  0.1276  0.5713
 7692TIP3    H144567   0.124   6.307   2.272  1.2560  0.5645  1.2901
 7692TIP3    H244568   0.209   6.202   2.341 -0.3096 -0.5407  1.5695
 7693TIP3   OH244569   2.120   4.489  16.758  0.7522  0.2727  0.1441
 7693TIP3    H144570   2.094   4.575  16.792 -0.1300 -0.0393  0.2829
 7693TIP3    H244571   2.044   4.433  16.774  1.1600 -0.4308 -0.3353
 7694TIP3   OH244572   2.758   6.016   5.029 -0.1667 -0.2044  0.3913
 7694TIP3    H144573   2.699   5.999   4.956 -1.4034 -0.1518  1.3669
 7694TIP3    H244574   2.819   6.083   4.996 -2.7035  2.2070  0.4354
 7695TIP3   OH244575   3.608   0.666  15.909 -0.0831  0.0656 -0.2206
 7695TIP3    H144576   3.613   0.749  15.863 -0.5191  0.0767 -0.2547
 7695TIP3    H244577   3.519   0.663  15.943  0.0224 -0.2546  0.0305
 7696TIP3   OH244578   3.414   2.024  16.298 -0.3150 -0.1023 -0.8018
 7696TIP3    H144579   3.357   2.101  16.298 -1.3503 -0.8622 -1.0883
 7696TIP3    H244580   3.429   2.006  16.390 -1.6521 -0.7057 -0.6875
 7697TIP3   OH244581   3.840   3.800  15.882  0.7406  0.4256 -0.3310
 7697TIP3    H144582   3.923   3.848  15.878  1.5249 -0.9843 -1.2779
 7697TIP3    H244583   3.865   3.708  15.878 -0.7809 -0.0725  1.0298
 7698TIP3   OH244584   0.921   2.645  12.138 -0.3235 -0.1624  0.3088
 7698TIP3    H144585   0.908   2.740  12.140 -0.7215 -0.2301  0.9155
 7698TIP3    H244586   1.005   2.634  12.093  0.7155  0.5879  2.0148
 7699TIP3   OH244587   1.777   1.930   4.691 -0.7071 -0.3192  0.6287
 7699TIP3    H144588   1.803   1.937   4.599 -1.7715  0.9220  0.4160
 7699TIP3    H244589   1.859   1.942   4.740 -0.3372  0.2239 -0.1115
 7700TIP3   OH244590   5.260   3.057  17.162  0.5342 -0.1568  0.4944
 7700TIP3    H144591   5.215   3.124  17.214 -1.5089 -0.1365 -1.2359
 7700TIP3    H244592   5.297   2.998  17.228 -0.7853  0.6392  2.0070
 7701TIP3   OH244593   3.896   2.290   5.795  0.0760 -0.4050 -0.1924
 7701TIP3    H144594   3.853   2.368   5.759 -0.2055 -0.1062  0.7750
 7701TIP3    H244595   3.855   2.277   5.880  0.7439 -1.1015  0.0315
 7702TIP3   OH244596   2.823   3.356   3.983  0.3019  0.1169  0.0030
 7702TIP3    H144597   2.903   3.326   4.026 -0.9514 -0.7170  1.7785
 7702TIP3    H244598   2.770   3.277   3.973 -1.8604  1.2131  2.2498
 7703TIP3   OH244599   5.932   1.194   3.746 -0.1173 -0.0505  0.0065
 7703TIP3    H144600   5.933   1.147   3.829 -2.0480  1.0492  0.7068
 7703TIP3    H244601   5.889   1.278   3.768  1.3274  1.1354 -1.6312
 7704TIP3   OH244602   2.301   2.127  15.653  0.1765  0.6981 -0.5192
 7704TIP3    H144603   2.387   2.104  15.686  0.4282 -0.5342 -2.0026
 7704TIP3    H244604   2.244   2.122  15.729  0.6790 -2.4610 -0.2910
 7705TIP3   OH244605   5.867   6.308  14.464  0.6257 -0.2103  0.0960
 7705TIP3    H144606   5.906   6.346  14.543  0.5942 -0.7193  0.3644
 7705TIP3    H244607   5.873   6.377  14.398 -0.6978  0.7583  0.9551
 7706TIP3   OH244608   6.541   1.866   1.300  0.1383 -0.6140  0.2719
 7706TIP3    H144609   6.544   1.857   1.204  3.2561 -0.1508  0.2716
 7706TIP3    H244610   6.499   1.786   1.330 -0.1342 -1.1446 -1.4515
 7707TIP3   OH244611   6.366   1.405   3.230 -0.0409 -0.1014 -0.0993
 7707TIP3    H144612   6.312   1.396   3.309 -0.2843  0.5156 -0.1921
 7707TIP3    H244613   6.304   1.430   3.162  0.1280 -0.8827 -0.5496
 7708TIP3   OH244614   1.551   3.351   5.287  0.5813 -0.4629 -0.2858
 7708TIP3    H144615   1.517   3.268   5.320  0.2743 -1.1847 -2.3345
 7708TIP3    H244616   1.645   3.336   5.276  0.5739 -0.4386 -0.3816
 7709TIP3   OH244617   5.820   4.595  12.389  0.0978  0.1415  0.5855
 7709TIP3    H144618   5.786   4.508  12.368  0.9026 -0.4855  1.7963
 7709TIP3    H244619   5.787   4.652  12.319 -0.4060 -1.1414 -0.2331
 7710TIP3   OH244620   1.179   3.430  17.106 -0.2725 -0.1731  0.2171
 7710TIP3    H144621   1.141   3.420  17.193 -1.8042 -1.3197 -0.5647
 7710TIP3    H244622   1.273   3.441  17.122 -0.8957  2.8755  2.1884
 7711TIP3   OH244623   1.928   1.260  13.043 -0.5430  0.2158  0.1097
 7711TIP3    H144624   1.981   1.199  13.095 -1.0739 -0.8812 -0.6185
 7711TIP3    H244625   1.842   1.220  13.039 -1.0571  1.3088  0.1001
 7712TIP3   OH244626   3.363   4.219   4.559  0.3908 -0.0315  0.0819
 7712TIP3    H144627   3.433   4.165   4.524  0.4737  0.5891 -0.7155
 7712TIP3    H244628   3.302   4.230   4.487 -0.2026 -0.0176  0.5799
 7713TIP3   OH244629   2.649   4.570  16.275  0.1156  0.1620  0.1263
 7713TIP3    H144630   2.564   4.608  16.252 -0.5639 -1.9297 -0.9610
 7713TIP3    H244631   2.691   4.552  16.191  2.1132  2.1370  0.6640
 7714TIP3   OH244632   3.367   1.365   0.194 -0.5578 -0.3427  0.3999
 7714TIP3    H144633   3.389   1.459   0.191  0.3422 -0.5390  0.6892
 7714TIP3    H244634   3.287   1.358   0.143  0.1211  0.3819 -0.7953
 7715TIP3   OH244635   2.997   4.845  12.106 -0.0650  0.1401 -0.6103
 7715TIP3    H144636   2.914   4.873  12.069  0.3596 -0.2429 -1.8983
 7715TIP3    H244637   2.982   4.754  12.133 -0.6083  0.6758  0.9143
 7716TIP3   OH244638   2.105   2.528  12.719 -0.1905  0.4813  0.6655
 7716TIP3    H144639   2.064   2.541  12.804 -0.0938 -0.9240  0.9488
 7716TIP3    H244640   2.055   2.583  12.659 -2.3753 -1.0133  1.0344
 7717TIP3   OH244641   2.916   4.635   0.904  0.1687 -0.5367  0.0954
 7717TIP3    H144642   2.908   4.667   0.814 -0.9921 -1.1603 -0.0318
 7717TIP3    H244643   2.926   4.540   0.896 -0.2528 -0.6299  0.6352
 7718TIP3   OH244644   4.191   3.410  13.116  0.3413  0.3515 -0.0462
 7718TIP3    H144645   4.147   3.399  13.200  3.0228 -0.0372  1.3676
 7718TIP3    H244646   4.184   3.503  13.096 -0.3744  0.4261  0.5559
 7719TIP3   OH244647   6.540   0.914  14.641 -0.3033 -0.0175  0.5190
 7719TIP3    H144648   6.577   0.946  14.559  0.7411 -2.1522  0.1275
 7719TIP3    H244649   6.480   0.844  14.615 -0.9422  0.1540  1.4901
 7720TIP3   OH244650   1.499   4.026  14.548 -0.3984  0.4786 -0.2256
 7720TIP3    H144651   1.512   4.046  14.640 -0.9954  2.0531 -0.4680
 7720TIP3    H244652   1.583   3.991  14.519 -0.7270 -1.6671  1.3071
 7721TIP3   OH244653   6.397   1.893   2.331  0.2232 -0.3207 -0.7547
 7721TIP3    H144654   6.399   1.985   2.357 -0.0285 -0.1383 -1.3589
 7721TIP3    H244655   6.305   1.876   2.309 -0.3369 -1.5858  2.3776
 7722TIP3   OH244656   4.134   1.388   4.395  0.3258  0.1446 -0.3344
 7722TIP3    H144657   4.107   1.300   4.368  0.0603  0.6588 -1.8229
 7722TIP3    H244658   4.208   1.409   4.338 -1.0023  1.7355 -1.5432
 7723TIP3   OH244659   0.629   2.567  12.795 -0.6755 -0.4392  0.0691
 7723TIP3    H144660   0.600   2.645  12.842 -1.4637 -0.8975  0.3508
 7723TIP3    H244661   0.696   2.529  12.852 -1.1902 -0.6549  0.5426
 7724TIP3   OH244662   4.686   0.167  17.101  0.5033 -0.6087  0.2547
 7724TIP3    H144663   4.624   0.160  17.173  0.1931 -1.5712 -0.0900
 7724TIP3    H244664   4.631   0.177  17.023  0.8348  0.4376  0.1444
 7725TIP3   OH244665   5.178   3.175   6.062  0.1643  0.4825 -0.0142
 7725TIP3    H144666   5.144   3.181   6.151  0.1495  1.0381 -0.0533
 7725TIP3    H244667   5.196   3.082   6.049 -2.0265  0.0628 -0.2380
 7726TIP3   OH244668   4.812   0.040   1.951  0.2348  0.4142 -0.4562
 7726TIP3    H144669   4.844   0.130   1.942 -2.3499  1.6496  2.0376
 7726TIP3    H244670   4.730   0.040   1.902 -0.7732 -0.0279  1.2306
 7727TIP3   OH244671   2.438   1.521  13.770  0.0351 -0.4001 -0.2230
 7727TIP3    H144672   2.417   1.489  13.682 -1.3823 -0.9392  0.2864
 7727TIP3    H244673   2.449   1.442  13.822  0.7928 -0.0778  0.1039
 7728TIP3   OH244674   0.558   3.748  17.162 -0.3685  0.5105 -0.3906
 7728TIP3    H144675   0.627   3.706  17.113 -1.9661 -0.7426 -1.5956
 7728TIP3    H244676   0.533   3.824  17.109  0.0624  0.9652  0.0481
 7729TIP3   OH244677   0.601   0.620   4.113 -0.3743 -0.4628  0.1396
 7729TIP3    H144678   0.552   0.701   4.102  1.1008  0.2703 -1.2651
 7729TIP3    H244679   0.664   0.639   4.183 -0.4997 -0.6330  0.3004
 7730TIP3   OH244680   3.364   0.779   4.070  0.2292  0.4542 -0.0302
 7730TIP3    H144681   3.333   0.726   3.996  2.3812  0.3222 -0.8601
 7730TIP3    H244682   3.313   0.748   4.145 -1.1379 -0.2305 -1.2184
 7731TIP3   OH244683   0.376   3.995  12.591 -0.5642  0.3367  0.1050
 7731TIP3    H144684   0.391   4.065  12.655 -2.2141  1.0296 -0.2574
 7731TIP3    H244685   0.409   4.031  12.508 -1.3320  0.6462 -0.0642
 7732TIP3   OH244686   1.869   5.798  16.992  0.2362 -0.5547  0.4552
 7732TIP3    H144687   1.903   5.739  16.925  1.5335 -1.4750  1.8901
 7732TIP3    H244688   1.823   5.740  17.054  0.8063  0.0356  1.4371
 7733TIP3   OH244689   4.904   2.498   4.385  0.0142 -0.5772 -0.3817
 7733TIP3    H144690   4.945   2.415   4.409  0.1209  0.1546  2.1048
 7733TIP3    H244691   4.974   2.547   4.342  0.1748 -1.4527 -1.1336
 7734TIP3   OH244692   5.537   2.107  14.648 -0.4130 -0.5346 -0.1939
 7734TIP3    H144693   5.629   2.128  14.633  0.0558 -0.6910  2.3532
 7734TIP3    H244694   5.492   2.190  14.634  0.2882 -0.1055  0.0691
 7735TIP3   OH244695   2.573   2.585  12.947 -0.1382 -0.9679  0.3865
 7735TIP3    H144696   2.553   2.652  13.012  0.2354 -1.3187  0.8663
 7735TIP3    H244697   2.555   2.502  12.992  2.3752 -1.3073  0.8549
 7736TIP3   OH244698   2.331   3.046  13.902  0.5161 -0.6645  0.2901
 7736TIP3    H144699   2.378   2.993  13.966  0.9236 -1.7846 -0.9128
 7736TIP3    H244700   2.399   3.085  13.848  0.1141 -2.1332 -1.3350
 7737TIP3   OH244701   0.023   2.175  13.638 -0.0664 -0.2278  0.0422
 7737TIP3    H144702  -0.006   2.190  13.549  0.4153 -0.3652 -0.1402
 7737TIP3    H244703  -0.053   2.195  13.692 -0.1399  0.5831 -0.3539
 7738TIP3   OH244704   4.892   0.250  16.048  0.1064  0.3448  0.6954
 7738TIP3    H144705   4.899   0.302  16.128 -2.5117 -0.0510  1.2378
 7738TIP3    H244706   4.814   0.285  16.004  1.2967  0.3070 -1.5110
 7739TIP3   OH244707   4.057   1.555  14.759  0.1648  0.5695 -0.7733
 7739TIP3    H144708   4.130   1.585  14.813  0.8848 -1.8836 -0.3110
 7739TIP3    H244709   4.095   1.545  14.671  1.2162 -3.5149  0.0655
 7740TIP3   OH244710   2.560   2.520  16.306 -0.0261 -0.2295  0.2469
 7740TIP3    H144711   2.536   2.611  16.319  0.7274 -0.1311  0.9790
 7740TIP3    H244712   2.553   2.507  16.211 -0.2437  0.5568  0.1538
 7741TIP3   OH244713   3.257   3.666  12.560 -0.6683  0.4066  0.1105
 7741TIP3    H144714   3.234   3.643  12.470 -0.2897  0.1789  0.0714
 7741TIP3    H244715   3.174   3.681  12.604 -0.8818 -0.3718 -0.0383
 7742TIP3   OH244716   4.762   1.927   3.543  0.1695  1.0558  0.2550
 7742TIP3    H144717   4.757   1.890   3.454 -1.3897  0.1042  0.7210
 7742TIP3    H244718   4.675   1.964   3.558 -0.4943 -1.2708  2.4340
 7743TIP3   OH244719   5.912   1.064   1.254 -0.1901 -0.1577 -0.2789
 7743TIP3    H144720   5.822   1.056   1.222 -1.4887  0.3666  3.0362
 7743TIP3    H244721   5.940   1.151   1.227 -1.2606  0.2752 -0.0190
 7744TIP3   OH244722   6.678   3.627   2.963  0.3051 -0.2907 -0.4136
 7744TIP3    H144723   6.742   3.577   3.013 -1.0854 -0.2551  1.4300
 7744TIP3    H244724   6.719   3.713   2.950  1.5498 -0.9867 -1.2269
 7745TIP3   OH244725   0.770   3.424   0.912  0.4524 -0.0196  0.3660
 7745TIP3    H144726   0.744   3.383   0.829  1.0475 -0.4024  0.3664
 7745TIP3    H244727   0.776   3.352   0.974  1.4188  0.0709  0.3907
 7746TIP3   OH244728   2.476   5.958  15.791 -0.5044 -0.8609 -0.3306
 7746TIP3    H144729   2.567   5.938  15.770 -0.3611 -0.5096 -0.0271
 7746TIP3    H244730   2.453   6.030  15.732 -0.8756 -1.5849 -1.0812
 7747TIP3   OH244731   4.648   1.485  16.430 -0.5818 -0.7170 -0.1775
 7747TIP3    H144732   4.681   1.462  16.517  0.9967  0.6179 -0.3986
 7747TIP3    H244733   4.676   1.412  16.374 -0.6138 -1.0299  0.2118
 7748TIP3   OH244734   0.474   3.939  15.795  0.0847  0.0553  0.0335
 7748TIP3    H144735   0.470   4.006  15.727 -0.8564 -0.6597 -0.6240
 7748TIP3    H244736   0.405   3.876  15.772 -0.0555 -0.3506  1.4776
 7749TIP3   OH244737   5.776   6.292   0.179  0.0480  0.2454 -0.4082
 7749TIP3    H144738   5.765   6.325   0.268  0.5290  2.2039 -1.0404
 7749TIP3    H244739   5.865   6.256   0.179  0.1415  0.4630 -0.1496
 7750TIP3   OH244740   0.323   6.433  15.105  0.3036  0.4680  0.2747
 7750TIP3    H144741   0.257   6.372  15.138  1.0418 -0.8363 -0.6237
 7750TIP3    H244742   0.321   6.506  15.167 -0.0636 -0.8060  1.7983
 7751TIP3   OH244743   2.720   5.857   4.479 -0.2666 -0.0765  0.1175
 7751TIP3    H144744   2.718   5.951   4.497  0.2099  0.2099 -1.2861
 7751TIP3    H244745   2.809   5.840   4.449 -0.6940 -0.7572 -0.7786
 7752TIP3   OH244746   5.690   6.435  15.994  0.2313 -0.6682  0.2400
 7752TIP3    H144747   5.667   6.342  16.000 -0.8621 -0.2639  3.9465
 7752TIP3    H244748   5.780   6.439  16.028 -0.6051 -0.1226  2.4790
 7753TIP3   OH244749   1.073   5.155   3.959  0.4585  0.4048  0.1079
 7753TIP3    H144750   1.132   5.082   3.942  0.0844 -0.0265  0.6559
 7753TIP3    H244751   1.110   5.198   4.036  1.1016  1.2468 -0.6598
 7754TIP3   OH244752   3.309   2.910   5.438  0.1441  0.4176 -0.1603
 7754TIP3    H144753   3.290   2.906   5.345  0.9497 -1.5321 -0.2606
 7754TIP3    H244754   3.360   2.831   5.456 -0.7307  0.3231  2.1011
 7755TIP3   OH244755   5.813   0.750  12.861 -0.3650  0.3108  0.0014
 7755TIP3    H144756   5.909   0.746  12.864 -0.4019 -0.7699  0.0747
 7755TIP3    H244757   5.786   0.738  12.952 -0.5460  1.4996  0.1034
 7756TIP3   OH244758   3.758   3.449  12.745 -0.8798  0.2953  0.3852
 7756TIP3    H144759   3.841   3.401  12.750 -0.8140  0.4128  0.4200
 7756TIP3    H244760   3.738   3.471  12.836 -0.2620  1.4462  0.2550
 7757TIP3   OH244761   0.266   2.010  11.064  0.0980 -0.1900 -0.0456
 7757TIP3    H144762   0.268   1.966  10.979  0.2175  0.1175 -0.2046
 7757TIP3    H244763   0.220   2.093  11.047 -1.8488 -1.0934  0.6532
 7758TIP3   OH244764   3.284   6.454  10.508  0.4924 -0.7010  0.2520
 7758TIP3    H144765   3.277   6.412  10.594  0.0319 -0.7504  0.1893
 7758TIP3    H244766   3.206   6.426  10.461  0.8652 -0.8606 -0.2648
 7759TIP3   OH244767   2.565   2.805   4.948  0.2923 -0.2650  0.2184
 7759TIP3    H144768   2.530   2.763   4.870 -0.9284 -1.7572  1.5242
 7759TIP3    H244769   2.514   2.885   4.958 -0.1046 -0.4867 -0.0463
 7760TIP3   OH244770   1.806   5.925   4.898 -0.2384 -0.2428 -0.1215
 7760TIP3    H144771   1.855   5.843   4.906  0.2817 -0.1130 -1.7975
 7760TIP3    H244772   1.744   5.908   4.827 -0.8630  0.4576  0.2624
 7761TIP3   OH244773   3.672   0.485  14.246 -0.7194  0.0605  0.1859
 7761TIP3    H144774   3.767   0.487  14.231 -0.4362 -0.7236  1.7447
 7761TIP3    H244775   3.650   0.575  14.272 -0.4458  0.3079 -0.4405
 7762TIP3   OH244776   2.211   0.610   1.501  0.2441  0.1060 -0.0032
 7762TIP3    H144777   2.272   0.541   1.475  0.8976  0.5744  0.2562
 7762TIP3    H244778   2.165   0.574   1.576 -0.3004 -0.5210 -0.6326
 7763TIP3   OH244779   0.938   4.804  12.457 -0.2497  0.0972 -0.3117
 7763TIP3    H144780   0.990   4.830  12.381  2.8353  2.0728  2.3177
 7763TIP3    H244781   0.847   4.818  12.430  0.6899 -0.3549 -3.9660
 7764TIP3   OH244782   1.473   5.646  12.640 -0.1764  0.7977  0.1284
 7764TIP3    H144783   1.472   5.740  12.622  2.5138  0.9479  0.5148
 7764TIP3    H244784   1.533   5.636  12.714 -0.1363 -1.2545 -0.1459
 7765TIP3   OH244785   5.452   1.939  17.030  0.3668 -0.5936  0.7226
 7765TIP3    H144786   5.540   1.959  16.997  1.0848 -0.0419  2.9193
 7765TIP3    H244787   5.458   1.952  17.124 -1.7190 -1.9152  1.0690
 7766TIP3   OH244788   2.232   0.850  14.067 -0.0549 -0.5950 -0.6620
 7766TIP3    H144789   2.232   0.910  13.992 -0.9610  0.5962  0.2493
 7766TIP3    H244790   2.146   0.807  14.063 -0.0166 -0.6907 -0.4503
 7767TIP3   OH244791   2.000   4.973  16.632  0.8196  0.0783 -0.1195
 7767TIP3    H144792   2.018   5.044  16.693 -0.8631  0.0441  0.4628
 7767TIP3    H244793   1.969   5.017  16.552 -2.3809  0.0194  0.9873
 7768TIP3   OH244794   6.517   3.050   0.135  0.0422 -0.2925  0.6807
 7768TIP3    H144795   6.599   3.088   0.103  0.0143 -0.0011  0.9530
 7768TIP3    H244796   6.467   3.124   0.167 -0.3429 -0.4679  0.4896
 7769TIP3   OH244797   2.523   2.695  14.309  0.3107 -0.1594  0.0699
 7769TIP3    H144798   2.489   2.605  14.309 -0.1878  0.0274  1.2853
 7769TIP3    H244799   2.574   2.702  14.389  2.8694 -0.2791 -1.4840
 7770TIP3   OH244800   2.324   3.294  15.370  0.2871 -0.2354 -0.2482
 7770TIP3    H144801   2.343   3.224  15.431  1.0556 -0.2274 -0.4812
 7770TIP3    H244802   2.307   3.370  15.425  1.8304 -0.0156 -0.0640
 7771TIP3   OH244803   5.315   4.952  11.222  0.4409  0.2953 -0.3596
 7771TIP3    H144804   5.363   4.971  11.303 -0.3243  1.3596 -0.1357
 7771TIP3    H244805   5.293   5.039  11.187 -0.4803 -0.1710 -0.9469
 7772TIP3   OH244806   1.885   2.623   1.996  0.1926 -0.0236 -1.0073
 7772TIP3    H144807   1.857   2.551   1.940 -1.3031  0.8344 -1.3815
 7772TIP3    H244808   1.805   2.669   2.017  0.9497  0.5756  0.5801
 7773TIP3   OH244809   2.211   1.312   0.917  0.2914 -0.6202  0.5212
 7773TIP3    H144810   2.305   1.298   0.906  0.2675  0.3963 -1.1091
 7773TIP3    H244811   2.193   1.282   1.006  2.4892  0.9109  1.5285
 7774TIP3   OH244812   1.562   1.746   3.074  0.1702  0.1280 -0.2588
 7774TIP3    H144813   1.602   1.820   3.028  0.2451  0.3199  0.1140
 7774TIP3    H244814   1.562   1.772   3.166 -0.3203 -0.0996 -0.1938
 7775TIP3   OH244815   5.360   0.486  12.993  0.1480  0.0400  0.0981
 7775TIP3    H144816   5.427   0.514  12.930  0.4855  1.6211  1.1286
 7775TIP3    H244817   5.405   0.488  13.078 -0.9492  0.2207  0.6805
 7776TIP3   OH244818   3.887   3.374  10.507 -0.8617 -0.3875 -0.2290
 7776TIP3    H144819   3.930   3.391  10.424 -0.2723 -0.5699  0.0339
 7776TIP3    H244820   3.861   3.460  10.539  3.0041  0.2115  1.5754
 7777TIP3   OH244821   1.058   2.942  15.771 -0.3944 -0.0421  0.0410
 7777TIP3    H144822   1.144   2.965  15.736  0.4175 -2.8099  0.0966
 7777TIP3    H244823   1.038   2.857  15.733 -0.9085 -1.7105  3.8069
 7778TIP3   OH244824   4.019   1.428   0.674  0.1139 -0.5137 -0.0107
 7778TIP3    H144825   4.061   1.400   0.592 -0.3395  0.0973 -0.4575
 7778TIP3    H244826   4.086   1.413   0.741  1.3052  1.0739 -0.8204
 7779TIP3   OH244827   0.040   4.343   1.497 -0.5884  0.4271 -0.3841
 7779TIP3    H144828  -0.041   4.300   1.471 -0.5994 -0.4293  1.0279
 7779TIP3    H244829   0.099   4.272   1.521  0.2118  1.0899 -0.3586
 7780TIP3   OH244830   3.501   1.640   5.888  0.0366  0.0818  0.2023
 7780TIP3    H144831   3.508   1.559   5.838 -0.6591 -0.7555  1.4532
 7780TIP3    H244832   3.557   1.626   5.965  1.2870  1.4456 -0.4217
 7781TIP3   OH244833   0.650   6.159   2.936  0.4655  0.4639 -0.0987
 7781TIP3    H144834   0.716   6.150   3.004  0.8552  1.0200 -0.4054
 7781TIP3    H244835   0.613   6.246   2.950 -0.3370  0.0828  0.1928
 7782TIP3   OH244836   6.528   5.433   5.126 -0.4452 -0.1993  0.0903
 7782TIP3    H144837   6.578   5.352   5.136 -1.0922 -0.5856  0.2485
 7782TIP3    H244838   6.551   5.486   5.203  1.7813  0.7684 -1.1848
 7783TIP3   OH244839   2.275   5.286  11.724 -0.2998  0.0259 -0.2475
 7783TIP3    H144840   2.243   5.227  11.792  1.4387 -0.2664  0.3461
 7783TIP3    H244841   2.293   5.229  11.649  0.6523 -0.0763  0.0637
 7784TIP3   OH244842   0.926   6.208   1.942 -0.0657 -0.1308 -0.0319
 7784TIP3    H144843   1.022   6.214   1.940 -0.0617 -0.3187 -0.8878
 7784TIP3    H244844   0.899   6.269   2.010  0.6361  0.3760 -0.2036
 7785TIP3   OH244845   2.141   6.662   1.640  0.4190 -0.3045 -0.2090
 7785TIP3    H144846   2.211   6.706   1.593 -1.4283  1.9962 -0.8669
 7785TIP3    H244847   2.172   6.571   1.649  2.7847  0.2999 -1.7974
 7786TIP3   OH244848   5.862   6.412   1.059  0.2967  0.4528 -0.0707
 7786TIP3    H144849   5.769   6.418   1.039  0.3091  1.1617  0.0381
 7786TIP3    H244850   5.902   6.378   0.979 -0.2474 -1.4206  0.4280
 7787TIP3   OH244851   0.091   4.742  12.954  0.1916  0.3572 -0.3250
 7787TIP3    H144852   0.065   4.833  12.967  1.0700  0.3274  2.0360
 7787TIP3    H244853   0.176   4.736  12.998 -0.7355 -2.0474  1.2338
 7788TIP3   OH244854   4.022   1.204   1.550 -0.4277  0.0483  0.2292
 7788TIP3    H144855   4.043   1.222   1.459 -0.0283 -0.0879  0.2933
 7788TIP3    H244856   4.044   1.111   1.562  0.2228  0.2554  0.6600
 7789TIP3   OH244857   5.642   1.224   5.513 -0.0948 -0.2081 -0.1676
 7789TIP3    H144858   5.647   1.155   5.580 -0.7990  1.1498  1.3213
 7789TIP3    H244859   5.726   1.270   5.521 -1.0408  1.3035  1.2992
 7790TIP3   OH244860   1.153   6.594  10.749 -0.8040 -0.4144 -0.3418
 7790TIP3    H144861   1.143   6.619  10.840 -3.2735 -1.9564 -0.1597
 7790TIP3    H244862   1.163   6.499  10.750 -2.6010 -0.6554 -1.7699
 7791TIP3   OH244863   3.610   0.195  13.005  0.3507 -0.3774  0.2756
 7791TIP3    H144864   3.554   0.132  13.052  0.3665 -0.2987  0.3977
 7791TIP3    H244865   3.584   0.280  13.039  0.5070 -0.3365  0.2898
 7792TIP3   OH244866   1.764   6.338   0.085  0.6943 -0.1697  0.1568
 7792TIP3    H144867   1.813   6.392   0.023  0.2124 -1.1116 -1.0777
 7792TIP3    H244868   1.779   6.248   0.055 -2.6674 -0.4242 -0.9700
 7793TIP3   OH244869   4.049   0.173   2.821 -0.6780 -0.0838 -0.5988
 7793TIP3    H144870   4.033   0.255   2.774 -1.0738  0.3400  0.2637
 7793TIP3    H244871   4.062   0.108   2.752 -0.5803  0.6622 -1.2918
 7794TIP3   OH244872   2.775   0.985   1.074  0.0098 -0.0651  0.1825
 7794TIP3    H144873   2.817   1.069   1.060 -0.2468 -0.2694 -1.9537
 7794TIP3    H244874   2.827   0.923   1.023  0.0235 -1.1667  1.4960
 7795TIP3   OH244875   1.400   3.516   5.514 -0.2516  0.0705 -0.1434
 7795TIP3    H144876   1.327   3.453   5.522 -1.0487  1.0595  0.5200
 7795TIP3    H244877   1.469   3.467   5.471 -0.8045 -1.3341  0.5293
 7796TIP3   OH244878   0.624   1.527  12.739  0.2750 -0.4679  0.3910
 7796TIP3    H144879   0.661   1.533  12.651  1.3187 -0.4167  0.8288
 7796TIP3    H244880   0.618   1.618  12.769  0.0939 -0.4989  0.4533
 7797TIP3   OH244881   5.753   1.614   5.191 -0.7016 -0.1790  0.0616
 7797TIP3    H144882   5.790   1.660   5.116 -0.8011 -0.2251 -0.0153
 7797TIP3    H244883   5.685   1.673   5.223 -0.0034  0.2807  0.7076
 7798TIP3   OH244884   2.992   0.501  11.464  0.6623 -0.4076  0.4604
 7798TIP3    H144885   2.902   0.493  11.495  0.8095 -0.9094  0.7699
 7798TIP3    H244886   3.042   0.442  11.521  1.3243  0.5365  0.8821
 7799TIP3   OH244887   1.007   1.670  16.913 -0.0948 -0.1432  0.3064
 7799TIP3    H144888   1.049   1.667  16.827 -1.6382  0.3451 -0.4834
 7799TIP3    H244889   1.008   1.763  16.937  1.0499 -0.3754  1.1824
 7800TIP3   OH244890   3.162   4.503   2.666 -0.3652  0.1840  0.3802
 7800TIP3    H144891   3.244   4.487   2.713 -1.0885  0.2012  1.6840
 7800TIP3    H244892   3.190   4.533   2.579  1.0183  0.7972  1.0074
 7801TIP3   OH244893   0.015   0.282  14.253  0.1462  0.1438  0.7066
 7801TIP3    H144894  -0.068   0.295  14.207  0.0537 -0.6361  0.6458
 7801TIP3    H244895   0.027   0.187  14.253  1.9976  0.3501 -0.9816
 7802TIP3   OH244896   5.133   6.323  15.666 -0.2791 -0.3836 -0.3328
 7802TIP3    H144897   5.150   6.407  15.622 -0.5794  0.4456  1.1169
 7802TIP3    H244898   5.167   6.335  15.754  0.8889 -2.2647 -0.5046
 7803TIP3   OH244899   4.437   0.090   1.427  0.3889  0.3739  0.1094
 7803TIP3    H144900   4.445   0.051   1.340 -0.5580 -1.7511  0.9441
 7803TIP3    H244901   4.363   0.150   1.419 -1.1698 -1.5310  0.0357
 7804TIP3   OH244902   3.715   1.479   4.362 -0.0071 -0.3719 -0.1598
 7804TIP3    H144903   3.781   1.462   4.295 -0.4311  2.8871 -1.4857
 7804TIP3    H244904   3.696   1.393   4.399  0.3421 -2.2825 -4.1570
 7805TIP3   OH244905   2.600   3.200  10.402  0.3173  0.1820  0.3988
 7805TIP3    H144906   2.676   3.256  10.415 -0.0819  1.1172 -1.1161
 7805TIP3    H244907   2.525   3.258  10.415 -0.1383 -0.6555  1.5541
 7806TIP3   OH244908   1.662   4.385  15.456  0.1058  0.2755 -0.9347
 7806TIP3    H144909   1.589   4.439  15.483  0.5001  0.0328  0.6379
 7806TIP3    H244910   1.672   4.403  15.362  1.3143  4.2193 -0.1485
 7807TIP3   OH244911   1.823   2.918   5.383 -0.0661 -0.1252  0.7608
 7807TIP3    H144912   1.737   2.956   5.400  0.1414 -0.0496  1.6870
 7807TIP3    H244913   1.885   2.987   5.406  0.2932 -0.8308  1.9532
 7808TIP3   OH244914   6.687   5.184  14.222 -0.6762 -0.3059 -0.2951
 7808TIP3    H144915   6.711   5.266  14.267  0.3594 -0.3335 -0.7913
 7808TIP3    H244916   6.591   5.184  14.223 -0.6989  1.3686 -1.0934
 7809TIP3   OH244917   2.527   4.337  16.080 -0.1753  0.4553 -0.1337
 7809TIP3    H144918   2.456   4.352  16.142 -0.7892 -1.2132 -0.4181
 7809TIP3    H244919   2.484   4.328  15.995  0.2803 -1.3795 -0.1883
 7810TIP3   OH244920   0.051   6.307  15.154  0.1006  0.4627  0.1017
 7810TIP3    H144921   0.045   6.239  15.087  1.1414 -0.1296  0.5924
 7810TIP3    H244922  -0.024   6.365  15.137 -0.0937 -0.1213 -1.0724
 7811TIP3   OH244923   6.135   0.925  13.420  0.2296 -0.2874  0.1257
 7811TIP3    H144924   6.083   1.000  13.391 -1.3738 -1.2464  0.4516
 7811TIP3    H244925   6.109   0.911  13.511  1.0159 -0.8392  0.2757
 7812TIP3   OH244926   2.187   2.636   3.795  0.0523  0.1551  0.4031
 7812TIP3    H144927   2.214   2.648   3.705  0.9039 -1.3730  0.4344
 7812TIP3    H244928   2.131   2.558   3.793 -1.7038  1.3669  0.8593
 7813TIP3   OH244929   4.932   2.034  16.455 -0.2147 -0.6703 -0.8539
 7813TIP3    H144930   4.888   1.986  16.525 -0.7251 -1.5885 -1.7880
 7813TIP3    H244931   4.907   1.988  16.375  1.9587 -0.8520 -1.4636
 7814TIP3   OH244932   4.887   3.241  13.498  0.2552 -0.0079  0.9337
 7814TIP3    H144933   4.981   3.230  13.483  0.2595  0.1967  0.8087
 7814TIP3    H244934   4.881   3.285  13.582  0.3522  2.1036 -0.1365
 7815TIP3   OH244935   1.369   1.392   4.375 -0.2002 -0.8316  0.1171
 7815TIP3    H144936   1.454   1.356   4.399 -0.3433 -2.1108 -1.2182
 7815TIP3    H244937   1.377   1.486   4.391  1.0052 -1.1218  1.2851
 7816TIP3   OH244938   3.774   6.260  13.674  0.2842  0.6913 -0.3492
 7816TIP3    H144939   3.864   6.277  13.702  0.7513 -2.3988  0.1689
 7816TIP3    H244940   3.770   6.295  13.584  1.5799  2.0059  0.0750
 7817TIP3   OH244941   4.444   3.549   5.466  0.4914  0.5809  0.3908
 7817TIP3    H144942   4.508   3.593   5.409  1.0798 -1.1333 -0.2987
 7817TIP3    H244943   4.483   3.463   5.484 -1.4601 -0.3515  0.2456
 7818TIP3   OH244944   4.443   3.030  16.148  0.1663  0.2366 -0.3008
 7818TIP3    H144945   4.403   3.074  16.222  0.9529 -1.8415  1.4090
 7818TIP3    H244946   4.449   2.938  16.174 -0.0416 -0.6603 -3.1474
 7819TIP3   OH244947   2.032   3.240  16.817  0.3994 -0.0875 -0.2740
 7819TIP3    H144948   2.009   3.173  16.881 -1.6984  0.5677 -0.3087
 7819TIP3    H244949   1.949   3.265  16.776  1.1882  2.1830 -0.6106
 7820TIP3   OH244950   0.825   2.733  17.149  0.0605  0.2118  0.7743
 7820TIP3    H144951   0.732   2.757  17.149  0.2063  0.7846  2.2395
 7820TIP3    H244952   0.871   2.815  17.134  0.3779  0.0709  0.9831
 7821TIP3   OH244953   0.297   5.498   1.648  0.7136 -0.3680  0.8312
 7821TIP3    H144954   0.249   5.575   1.678 -0.1083 -0.7131  0.4150
 7821TIP3    H244955   0.267   5.426   1.703  0.4628 -0.6612  0.3198
 7822TIP3   OH244956   4.278   3.997  11.657  0.4871  0.8192  0.2757
 7822TIP3    H144957   4.205   3.938  11.641  0.3970  0.8664  0.5030
 7822TIP3    H244958   4.344   3.972  11.592 -0.0918  1.4014 -0.5389
 7823TIP3   OH244959   3.851   0.043   1.617 -0.1598 -0.2749  0.7093
 7823TIP3    H144960   3.768   0.063   1.574  0.1237 -0.3258  0.1275
 7823TIP3    H244961   3.850  -0.052   1.630  1.0101 -0.6823 -1.8732
 7824TIP3   OH244962   6.260   0.465  16.841  0.0179  0.0975  0.0952
 7824TIP3    H144963   6.189   0.439  16.899  0.0817  0.7896  0.4894
 7824TIP3    H244964   6.248   0.412  16.762  0.2213 -1.2135  0.9293
 7825TIP3   OH244965   2.264   2.765   4.790 -0.1203 -0.0257  0.1301
 7825TIP3    H144966   2.241   2.678   4.823 -0.5535 -0.2898 -0.8252
 7825TIP3    H244967   2.330   2.749   4.723 -1.9715  0.1255 -1.8076
 7826TIP3   OH244968   5.475   3.252  15.471  0.0033 -0.2436  0.2452
 7826TIP3    H144969   5.547   3.314  15.456 -0.6891  0.4060 -0.4036
 7826TIP3    H244970   5.514   3.185  15.527  2.2552 -1.8974 -3.0647
 7827TIP3   OH244971   2.123   1.698   2.425 -0.2124 -0.0326  0.1688
 7827TIP3    H144972   2.178   1.620   2.416 -0.0880 -0.0343  0.9009
 7827TIP3    H244973   2.114   1.710   2.520  1.0831  1.7746  0.0795
 7828TIP3   OH244974   2.252   0.999  11.492 -0.3580  0.2516 -0.0698
 7828TIP3    H144975   2.274   1.092  11.493 -0.8127  0.3620  1.3746
 7828TIP3    H244976   2.311   0.961  11.427  1.2571  1.2211  0.7990
 7829TIP3   OH244977   3.597   5.833  14.732 -0.0763  0.2976 -0.2834
 7829TIP3    H144978   3.563   5.755  14.688  0.0250  0.9135 -1.4912
 7829TIP3    H244979   3.547   5.840  14.813 -0.3058 -0.8365 -0.3225
 7830TIP3   OH244980   4.322   1.711  13.505 -0.4277 -0.5939  0.3648
 7830TIP3    H144981   4.325   1.806  13.520 -0.0870 -0.5705  0.1456
 7830TIP3    H244982   4.335   1.701  13.411  0.3843 -0.9063  0.5037
 7831TIP3   OH244983   5.594   6.417  10.988  0.3580  0.4687  0.0660
 7831TIP3    H144984   5.554   6.394  10.904  2.0819 -0.8046 -0.4168
 7831TIP3    H244985   5.684   6.440  10.966  1.0753 -0.7523  1.6895
 7832TIP3   OH244986   0.694   5.624   4.026  0.3969 -0.8063 -0.6207
 7832TIP3    H144987   0.778   5.609   3.982  0.5560 -1.0346 -0.2386
 7832TIP3    H244988   0.688   5.719   4.034  2.4118 -0.9022  2.8185
 7833TIP3   OH244989   6.293   5.574  14.013  0.5975 -0.2774 -0.3260
 7833TIP3    H144990   6.281   5.662  13.979  0.8913 -1.2161 -2.9873
 7833TIP3    H244991   6.386   5.555  13.998  1.0064 -0.3226  2.0720
 7834TIP3   OH244992   5.103   5.098   1.027 -0.2848  0.7735 -0.2939
 7834TIP3    H144993   5.033   5.050   1.072 -0.2121  1.2826  0.3728
 7834TIP3    H244994   5.063   5.128   0.945 -1.1453  1.8658  0.5084
 7835TIP3   OH244995   1.752   5.068   5.055  0.1339  0.1254  0.4300
 7835TIP3    H144996   1.754   5.133   4.984 -2.2950  0.1079  0.3044
 7835TIP3    H244997   1.764   4.984   5.011 -0.4977  0.1884  0.1228
 7836TIP3   OH244998   1.175   6.584  10.289 -0.4975  0.4637 -0.0185
 7836TIP3    H144999   1.234   6.599  10.363 -2.2740  0.2505  1.4989
 7836TIP3    H245000   1.101   6.536  10.327 -1.3610  0.1921 -1.9809
 7837TIP3   OH245001   5.076   1.853   0.897 -0.4414  0.5956 -0.5263
 7837TIP3    H145002   5.115   1.906   0.967  0.7335 -0.1319 -0.6249
 7837TIP3    H245003   5.066   1.914   0.824  1.8621  0.4918 -0.9850
 7838TIP3   OH245004   2.841   2.158   3.995 -0.0342  0.0636 -0.0472
 7838TIP3    H145005   2.931   2.173   3.966 -0.3605  1.6738 -0.2597
 7838TIP3    H245006   2.803   2.100   3.928  0.6797 -0.1945 -0.2307
 7839TIP3   OH245007   2.157   1.778  12.118 -0.2008  0.3229  0.5198
 7839TIP3    H145008   2.163   1.846  12.051  0.4547  0.0936  0.3473
 7839TIP3    H245009   2.204   1.813  12.193 -0.7750  0.5015  0.8011
 7840TIP3   OH245010   0.718   0.040  15.289  0.3159 -0.3387  0.4084
 7840TIP3    H145011   0.670   0.043  15.372 -0.0125 -0.9314  0.2459
 7840TIP3    H245012   0.803   0.003  15.313  0.4725  0.1487  0.5992
 7841TIP3   OH245013   6.563   5.789  12.336  0.7344 -0.6406 -0.0796
 7841TIP3    H145014   6.511   5.855  12.382 -0.2500 -1.8758  0.6387
 7841TIP3    H245015   6.644   5.833  12.312 -0.9838  1.5837 -1.9749
 7842TIP3   OH245016   3.123   3.427  11.278 -0.4662  0.1244 -0.4524
 7842TIP3    H145017   3.104   3.347  11.328 -1.2247  1.4693  1.4300
 7842TIP3    H245018   3.038   3.466  11.262  0.0851  1.8209  0.7183
 7843TIP3   OH245019   6.760   0.093   0.915  0.2580 -1.2341 -0.0039
 7843TIP3    H145020   6.760   0.159   0.984  1.6002 -1.0806 -0.1401
 7843TIP3    H245021   6.698   0.027   0.945 -1.1750  0.1346  0.0807
 7844TIP3   OH245022   5.500   3.575   5.018 -0.2583  0.1068 -0.6263
 7844TIP3    H145023   5.474   3.660   5.054 -2.5121 -0.8986  0.1874
 7844TIP3    H245024   5.549   3.597   4.939 -0.1116  2.1820  0.0023
 7845TIP3   OH245025   5.013   6.438  11.973 -0.4459  0.1863  0.4232
 7845TIP3    H145026   5.016   6.464  11.881  2.7749  0.6916  0.6392
 7845TIP3    H245027   5.020   6.520  12.022 -1.5030 -0.1338  1.1387
 7846TIP3   OH245028   0.499   6.425   0.031 -0.0499 -0.4777 -0.1953
 7846TIP3    H145029   0.414   6.412   0.074 -0.6287  1.4780 -0.6771
 7846TIP3    H245030   0.562   6.383   0.089 -1.4441 -2.9442 -0.3873
 7847TIP3   OH245031   1.257   3.729  12.823 -0.4790 -0.2909  0.1411
 7847TIP3    H145032   1.331   3.685  12.864 -2.8085 -1.4496  3.3580
 7847TIP3    H245033   1.197   3.659  12.798 -1.9141  0.7408  0.5686
 7848TIP3   OH245034   5.953   2.039  12.217 -0.0078  0.5027 -0.5324
 7848TIP3    H145035   5.866   2.076  12.233 -0.0314  0.3989 -0.4250
 7848TIP3    H245036   6.009   2.079  12.284 -0.2022 -0.2837  0.0932
 7849TIP3   OH245037   0.767   6.783  13.305 -0.5957 -0.4853  0.5175
 7849TIP3    H145038   0.862   6.792  13.318 -0.4934 -0.7989 -0.0153
 7849TIP3    H245039   0.741   6.866  13.264 -0.6589 -0.1411  1.2410
 7850TIP3   OH245040   5.507   3.794  14.752 -0.0389  0.5901 -0.1408
 7850TIP3    H145041   5.573   3.839  14.805 -0.0659 -0.0964  0.4888
 7850TIP3    H245042   5.504   3.843  14.670  0.6884  1.0979  0.1330
 7851TIP3   OH245043   3.352   2.413   2.969 -0.3781 -0.3645 -0.1685
 7851TIP3    H145044   3.342   2.319   2.987 -0.5036 -0.3428 -0.1260
 7851TIP3    H245045   3.392   2.417   2.882  2.0619 -0.5170  0.8991
 7852TIP3   OH245046   3.722   5.469   2.664  0.3435 -0.4317 -0.5590
 7852TIP3    H145047   3.727   5.375   2.682  0.7228 -0.0058  1.6776
 7852TIP3    H245048   3.793   5.485   2.601 -0.5152 -1.8361 -1.9311
 7853TIP3   OH245049   2.057   1.155  14.259 -0.2668 -0.1789 -0.4800
 7853TIP3    H145050   2.057   1.109  14.175  0.6179  1.9407 -1.6714
 7853TIP3    H245051   2.118   1.105  14.313 -0.3079 -1.1490 -1.3041
 7854TIP3   OH245052   5.030   0.774   4.170  0.4601 -0.8092 -0.0444
 7854TIP3    H145053   4.992   0.724   4.242 -1.3402  2.0121  1.0644
 7854TIP3    H245054   4.955   0.813   4.125  1.6853 -0.7786 -2.1337
 7855TIP3   OH245055   5.113   2.500   2.267  0.9269 -0.0528 -0.1804
 7855TIP3    H145056   5.082   2.504   2.176  2.1535 -1.8259 -0.7028
 7855TIP3    H245057   5.034   2.488   2.319  0.3523 -0.5397 -1.1505
 7856TIP3   OH245058   2.001   6.177   5.480 -0.0392 -0.2205 -0.1074
 7856TIP3    H145059   1.916   6.212   5.507  0.6866  0.4133  1.4234
 7856TIP3    H245060   2.008   6.093   5.526  0.5221  0.1241  0.4432
 7857TIP3   OH245061   2.528   3.495   4.469 -0.5902 -0.1247  0.2187
 7857TIP3    H145062   2.595   3.563   4.476 -0.0576 -0.7539  1.4705
 7857TIP3    H245063   2.533   3.464   4.379  0.8901 -0.2359  0.3245
 7858TIP3   OH245064   2.658   6.344  14.615  0.2115  0.0579  0.1496
 7858TIP3    H145065   2.652   6.256  14.651 -0.3975  0.3108  0.6934
 7858TIP3    H245066   2.567   6.371  14.601  0.4510 -0.0819 -1.7367
 7859TIP3   OH245067   0.219   6.710   3.358 -0.5690  0.0553  0.5370
 7859TIP3    H145068   0.313   6.731   3.354 -0.8008  1.3120  1.2729
 7859TIP3    H245069   0.216   6.617   3.382  0.5336  0.9021  4.4101
 7860TIP3   OH245070   6.439   5.004   3.896  0.0391  0.4299  0.7147
 7860TIP3    H145071   6.400   5.022   3.811 -0.3919 -0.0520  0.8102
 7860TIP3    H245072   6.409   5.076   3.952 -0.6056  0.1353  0.7535
 7861TIP3   OH245073   4.746   5.294   1.530 -0.1842 -0.1571  0.1563
 7861TIP3    H145074   4.740   5.294   1.625  1.1201 -1.1199  0.2432
 7861TIP3    H245075   4.839   5.285   1.511 -0.4748 -0.3986 -1.2138
 7862TIP3   OH245076   0.897   0.439   3.058  0.0423 -0.0278  0.2089
 7862TIP3    H145077   0.874   0.513   3.001  0.4775  0.5093  0.7253
 7862TIP3    H245078   0.878   0.470   3.147  1.7228  0.0429  0.5599
 7863TIP3   OH245079   2.984   3.001   6.383 -0.2423 -0.8622 -0.2312
 7863TIP3    H145080   3.047   3.032   6.318 -0.5706 -1.8681 -1.0307
 7863TIP3    H245081   2.931   2.936   6.337 -1.9256  0.0253  0.3924
 7864TIP3   OH245082   6.622   3.167   2.541 -0.4229 -0.6447 -0.5849
 7864TIP3    H145083   6.584   3.102   2.483  0.4924 -1.9266  0.2297
 7864TIP3    H245084   6.707   3.130   2.566 -0.2994  0.4280  0.6246
 7865TIP3   OH245085   2.876   2.977  13.232 -0.0071 -0.3077  0.7962
 7865TIP3    H145086   2.946   3.018  13.283  1.1231 -0.7103 -0.3972
 7865TIP3    H245087   2.913   2.968  13.144 -1.2938 -1.2077  0.3363
 7866TIP3   OH245088   3.987   3.508  16.534  0.3841 -0.1770  0.0251
 7866TIP3    H145089   4.043   3.465  16.598  1.4774  1.0808 -0.0638
 7866TIP3    H245090   4.022   3.597  16.527  0.7428 -0.5017 -2.8615
 7867TIP3   OH245091   5.382   6.641  15.362  0.5217  0.3772  0.1580
 7867TIP3    H145092   5.416   6.584  15.293  0.1124 -0.0540  0.3042
 7867TIP3    H245093   5.427   6.725  15.349  0.9418  0.0947 -0.2150
 7868TIP3   OH245094   1.519   2.734  16.008  0.0841 -0.0629 -0.1272
 7868TIP3    H145095   1.547   2.653  15.965  0.4096 -0.4596  0.8093
 7868TIP3    H245096   1.441   2.707  16.058 -0.5697  0.4963 -0.8377
 7869TIP3   OH245097   2.107   2.837   2.924 -0.2137 -0.4097 -0.1824
 7869TIP3    H145098   2.125   2.924   2.888  0.7792 -0.2161  0.7798
 7869TIP3    H245099   2.193   2.795   2.931 -0.6402 -1.2969 -0.1996
 7870TIP3   OH245100   3.628   5.127   5.154  0.2931 -0.7130 -0.9806
 7870TIP3    H145101   3.713   5.164   5.178 -0.8857  0.4050  1.7537
 7870TIP3    H245102   3.600   5.080   5.233 -1.9628 -0.3613 -1.5327
 7871TIP3   OH245103   2.089   3.526   3.833 -0.0410  0.1362 -0.5021
 7871TIP3    H145104   2.177   3.488   3.837  0.1217  0.4609 -0.9567
 7871TIP3    H245105   2.040   3.469   3.775 -0.1580 -0.0996 -0.1717
 7872TIP3   OH245106   3.892   4.689   1.055 -0.0239 -0.1226  0.3936
 7872TIP3    H145107   3.827   4.756   1.034 -0.0845 -0.0857  0.6912
 7872TIP3    H245108   3.935   4.670   0.972 -0.8737 -0.6317  0.0733
 7873TIP3   OH245109   3.200   2.655  13.177  0.2118  0.7608  0.2225
 7873TIP3    H145110   3.256   2.579  13.188 -0.6551  0.1199  0.2914
 7873TIP3    H245111   3.253   2.718  13.128  1.3634  0.5935  1.2205
 7874TIP3   OH245112   0.606   4.210  15.025 -0.2345 -0.3907 -0.6186
 7874TIP3    H145113   0.570   4.236  15.110  0.6321 -1.1084 -0.0214
 7874TIP3    H245114   0.540   4.152  14.987 -0.7666  0.1845 -0.5773
 7875TIP3   OH245115   2.973   2.076  16.581 -0.0657  0.5647  0.1746
 7875TIP3    H145116   3.030   2.111  16.513  0.5536 -2.0251 -0.6827
 7875TIP3    H245117   3.019   2.095  16.663  1.2707 -0.0868 -0.4130
 7876TIP3   OH245118   1.149   0.246   5.642  0.0704 -0.2501 -0.3648
 7876TIP3    H145119   1.148   0.293   5.726 -0.9458 -0.8501 -0.0290
 7876TIP3    H245120   1.241   0.247   5.615  0.7389 -1.6554  1.6800
 7877TIP3   OH245121   6.457   5.817   0.804 -0.0346  0.4003 -0.1376
 7877TIP3    H145122   6.407   5.739   0.778 -1.6369  1.3085  0.1296
 7877TIP3    H245123   6.422   5.840   0.890  2.3767 -0.1823  1.0338
 7878TIP3   OH245124   3.048   4.872   5.826 -0.0176  0.2767 -0.1381
 7878TIP3    H145125   3.100   4.802   5.785 -1.6520  0.2793 -2.2710
 7878TIP3    H245126   3.025   4.836   5.912 -1.5787 -2.2644 -1.5269
 7879TIP3   OH245127   0.496   0.897  16.195 -0.3351 -0.0168  0.0123
 7879TIP3    H145128   0.537   0.852  16.269  0.6690  1.2831  0.2741
 7879TIP3    H245129   0.413   0.928  16.229  0.1727  0.6709  0.6327
 7880TIP3   OH245130   4.048   4.349  15.115  0.0671  0.0607 -0.1674
 7880TIP3    H145131   4.025   4.389  15.031 -1.7632 -1.3789 -0.3874
 7880TIP3    H245132   3.964   4.334  15.159  0.9139 -0.5041  1.3078
 7881TIP3   OH245133   4.330   3.303   3.491 -0.0904  0.6640  0.1763
 7881TIP3    H145134   4.377   3.262   3.418  2.4562  0.7396  1.7450
 7881TIP3    H245135   4.295   3.229   3.541  0.8426  0.5099  0.6122
 7882TIP3   OH245136   4.270   0.165  15.532 -0.0768 -0.2930 -0.0126
 7882TIP3    H145137   4.248   0.080  15.495  0.0476 -0.0615 -0.6349
 7882TIP3    H245138   4.359   0.182  15.501 -0.6670  0.7592 -1.2064
 7883TIP3   OH245139   2.434   1.839  11.862 -0.5647  0.1657  0.4662
 7883TIP3    H145140   2.407   1.756  11.902 -3.0603  0.4292 -0.5844
 7883TIP3    H245141   2.456   1.816  11.772  1.2331  0.2268  0.8826
 7884TIP3   OH245142   2.981   4.461   3.853  0.2940 -0.5251  0.3126
 7884TIP3    H145143   3.006   4.553   3.865  0.5423 -0.6872  1.0477
 7884TIP3    H245144   2.913   4.447   3.919  0.8694 -1.1109  0.7886
 7885TIP3   OH245145   2.268   0.733  13.033 -0.9388 -0.0380  0.2128
 7885TIP3    H145146   2.182   0.746  13.073 -1.1860  0.8716 -0.5959
 7885TIP3    H245147   2.277   0.806  12.972  0.4276 -0.1170  0.3204
 7886TIP3   OH245148   2.870   1.455  12.845  0.5066 -0.0350  0.2434
 7886TIP3    H145149   2.918   1.538  12.844 -0.9648  0.8200 -0.5457
 7886TIP3    H245150   2.913   1.401  12.778  2.2436 -0.3920  1.6000
 7887TIP3   OH245151   1.132   6.299  12.479 -0.3630 -0.3858 -0.3163
 7887TIP3    H145152   1.061   6.321  12.419  0.4631 -0.7764 -1.4567
 7887TIP3    H245153   1.207   6.348  12.445 -0.2069  0.4626  1.1933
 7888TIP3   OH245154   3.422   0.688  14.202  0.5395 -0.1241 -1.1628
 7888TIP3    H145155   3.391   0.607  14.243 -1.9403  1.2436 -0.2401
 7888TIP3    H245156   3.506   0.706  14.245 -0.5330 -0.3684  1.1022
 7889TIP3   OH245157   0.785   0.201   1.008  0.2800  0.1122 -0.0129
 7889TIP3    H145158   0.770   0.223   1.100  0.8602 -2.4604  0.7234
 7889TIP3    H245159   0.876   0.172   1.005  0.0976 -0.3354 -1.2865
 7890TIP3   OH245160   5.122   5.096  10.857 -0.4066  0.7340  0.1952
 7890TIP3    H145161   5.120   5.183  10.896  1.7160  0.2664  1.4230
 7890TIP3    H245162   5.206   5.092  10.811 -1.2494 -0.0686 -1.3122
 7891TIP3   OH245163   6.483   3.211   2.026  0.5925 -0.1620  0.0327
 7891TIP3    H145164   6.415   3.169   2.080  0.6740  0.3588  0.5458
 7891TIP3    H245165   6.491   3.299   2.062 -0.7301  0.8560 -2.0915
 7892TIP3   OH245166   2.392   0.973   4.561 -0.0743 -0.2338  0.2487
 7892TIP3    H145167   2.332   0.933   4.498 -1.8792  0.2872  1.5817
 7892TIP3    H245168   2.478   0.943   4.535 -1.0432 -2.0598 -0.9561
 7893TIP3   OH245169   3.620   2.407  12.153  0.4470  0.1400  0.1168
 7893TIP3    H145170   3.597   2.416  12.246  0.9687  0.4847  0.2156
 7893TIP3    H245171   3.716   2.413  12.152  0.4186  0.4667 -0.4798
 7894TIP3   OH245172   6.614   0.087  12.792 -0.0683 -0.0274 -0.2089
 7894TIP3    H145173   6.687   0.150  12.789  0.2371 -0.3088  0.7914
 7894TIP3    H245174   6.651   0.011  12.838 -1.0419 -0.1098  0.4377
 7895TIP3   OH245175   0.430   0.889   1.505  0.9278  0.3385  0.4419
 7895TIP3    H145176   0.475   0.934   1.434  0.4913  0.9928  0.5728
 7895TIP3    H245177   0.357   0.844   1.462  1.4521 -0.3857  0.2894
 7896TIP3   OH245178   4.606   5.058   4.756 -0.5432  0.1219  0.5338
 7896TIP3    H145179   4.678   5.070   4.694  0.6143 -0.1127  1.7936
 7896TIP3    H245180   4.606   5.139   4.807 -1.1550  0.1096  0.5499
 7897TIP3   OH245181   4.249   3.089   2.519 -0.6605  0.4889 -0.0315
 7897TIP3    H145182   4.221   3.159   2.577 -0.8561  0.2484  0.1690
 7897TIP3    H245183   4.233   3.122   2.431 -2.8373 -0.1609  0.0961
 7898TIP3   OH245184   4.775   4.505   5.413  0.5632 -0.1261  0.3899
 7898TIP3    H145185   4.689   4.547   5.409  1.0167  0.7598 -0.1375
 7898TIP3    H245186   4.770   4.448   5.490 -1.1062 -1.4484 -0.6742
 7899TIP3   OH245187   4.774   6.566   3.467  0.3044 -0.2181  0.2046
 7899TIP3    H145188   4.741   6.594   3.552  0.0927 -0.5008  0.2188
 7899TIP3    H245189   4.712   6.498   3.439 -0.1194  0.4810 -0.5608
 7900TIP3   OH245190   4.315   0.731  11.357 -0.0774 -0.0409 -0.5421
 7900TIP3    H145191   4.333   0.643  11.323  0.4392  0.8708 -2.6721
 7900TIP3    H245192   4.244   0.764  11.303  1.5471  1.8769 -1.5925
 7901TIP3   OH245193   1.113   2.335  14.390 -0.0205 -0.0579  0.0752
 7901TIP3    H145194   1.184   2.272  14.401 -1.5952 -1.6765  1.3774
 7901TIP3    H245195   1.139   2.388  14.315  2.3612 -0.8581  0.2818
 7902TIP3   OH245196   4.880   2.156   0.104  0.2828 -0.0751  0.0709
 7902TIP3    H145197   4.947   2.118   0.048  1.5881  1.7739  0.3111
 7902TIP3    H245198   4.845   2.082   0.154  1.6373 -1.1906 -0.5930
 7903TIP3   OH245199   5.466   5.144   4.625 -0.2932 -0.3399  0.1897
 7903TIP3    H145200   5.522   5.209   4.668 -1.1672  0.8276 -0.3935
 7903TIP3    H245201   5.487   5.151   4.532 -1.1962 -0.0658 -0.0074
 7904TIP3   OH245202   3.275   5.892  12.144  0.5129 -0.6289  0.1477
 7904TIP3    H145203   3.256   5.798  12.137 -0.1190 -0.5254  0.4302
 7904TIP3    H245204   3.243   5.916  12.230  2.6110 -0.5902  0.9460
 7905TIP3   OH245205   3.934   1.177  15.961  0.0896  0.4024 -0.1119
 7905TIP3    H145206   4.005   1.158  16.022  0.6189  1.0394 -0.5168
 7905TIP3    H245207   3.946   1.114  15.890 -0.6879 -0.5125  0.5752
 7906TIP3   OH245208   6.237   1.957   1.533  0.8405  1.0343 -0.2508
 7906TIP3    H145209   6.193   2.031   1.492 -0.7909 -0.6318 -1.6125
 7906TIP3    H245210   6.201   1.953   1.622 -2.2924 -0.6016 -1.4859
 7907TIP3   OH245211   3.195   0.925  14.100 -0.8820 -0.2281 -0.0098
 7907TIP3    H145212   3.212   1.018  14.083  1.4173 -0.4903  0.6041
 7907TIP3    H245213   3.135   0.926  14.175 -1.0668  0.7736 -0.1539
 7908TIP3   OH245214   3.283   1.187  16.476  0.0878 -0.5804  0.3612
 7908TIP3    H145215   3.216   1.187  16.407  0.3793  1.2886  0.0479
 7908TIP3    H245216   3.339   1.262  16.454 -0.5393  0.8140  3.3228
 7909TIP3   OH245217   5.837   5.606  15.989 -0.3418 -0.5131 -0.2995
 7909TIP3    H145218   5.800   5.524  16.024 -1.0685 -0.5590 -1.1615
 7909TIP3    H245219   5.784   5.674  16.030 -0.1362 -0.4919 -0.0632
 7910TIP3   OH245220   4.626   5.927  15.117  0.0837 -0.4888 -0.6899
 7910TIP3    H145221   4.653   5.972  15.037  0.4862  0.0059 -0.2790
 7910TIP3    H245222   4.704   5.880  15.146 -0.3344 -1.4653 -1.1216
 7911TIP3   OH245223   4.709   6.403   4.147  0.1106 -0.3207  0.2630
 7911TIP3    H145224   4.733   6.384   4.237 -0.0623 -1.6593  0.0444
 7911TIP3    H245225   4.613   6.407   4.148  0.1870  1.6401  0.5033
 7912TIP3   OH245226   2.109   2.891   2.619  0.6288 -0.4636 -0.1063
 7912TIP3    H145227   2.081   2.948   2.691 -2.1841  0.4685 -1.8466
 7912TIP3    H245228   2.186   2.934   2.582  1.1501 -0.1339  1.3206
 7913TIP3   OH245229   0.303   6.427  13.938 -0.0270 -0.0296  0.0813
 7913TIP3    H145230   0.262   6.432  14.024  0.5791  0.4689  0.3434
 7913TIP3    H245231   0.229   6.423  13.877 -0.4745  1.3930  0.5185
 7914TIP3   OH245232   1.725   4.613  12.027  0.2004 -0.1616  0.0322
 7914TIP3    H145233   1.706   4.521  12.008  1.3071 -0.4092  0.0349
 7914TIP3    H245234   1.736   4.653  11.940  0.8743 -0.3019  0.0470
 7915TIP3   OH245235   6.107   1.188  15.101  0.2645 -0.1891  0.2559
 7915TIP3    H145236   6.190   1.167  15.143  1.1235  1.5998 -0.4823
 7915TIP3    H245237   6.089   1.114  15.044  2.0719  0.0276 -0.6316
 7916TIP3   OH245238   4.451   6.479   2.739  0.1620  0.7204 -0.1916
 7916TIP3    H145239   4.367   6.454   2.702  1.4060 -3.3196 -0.5216
 7916TIP3    H245240   4.445   6.453   2.831  0.8930  0.8347 -0.1095
 7917TIP3   OH245241   4.361   2.711   0.376  0.5430  0.0184 -0.2105
 7917TIP3    H145242   4.432   2.739   0.434 -0.9310  1.2051  1.0941
 7917TIP3    H245243   4.338   2.790   0.327 -0.9338  0.0949  0.5569
 7918TIP3   OH245244   2.457   5.897   5.470  0.2779 -0.1689 -0.3532
 7918TIP3    H145245   2.499   5.974   5.432  0.5659 -0.2072 -0.1163
 7918TIP3    H245246   2.376   5.929   5.508  0.2114 -0.0494 -0.5963
 7919TIP3   OH245247   1.021   2.559  13.111 -0.0061  0.4395 -0.3436
 7919TIP3    H145248   1.103   2.601  13.086 -0.1215  0.6921 -0.2975
 7919TIP3    H245249   0.993   2.605  13.190 -0.5749  0.8510 -0.7762
 7920TIP3   OH245250   3.916   1.729   1.934 -0.1003 -0.2175 -0.1108
 7920TIP3    H145251   3.976   1.742   2.007 -0.2536 -1.6079  0.2869
 7920TIP3    H245252   3.928   1.806   1.878  0.1819  0.7481  1.2621
 7921TIP3   OH245253   0.626   6.255  15.000  0.0442  0.0458  0.3273
 7921TIP3    H145254   0.616   6.256  14.905 -2.2177  1.1094  0.5459
 7921TIP3    H245255   0.568   6.184  15.029 -0.7660  0.9740  1.0277
 7922TIP3   OH245256   0.493   1.601  14.610  0.2495 -0.2746 -0.1707
 7922TIP3    H145257   0.414   1.571  14.565  0.3315  0.1916 -0.6319
 7922TIP3    H245258   0.461   1.637  14.693 -0.1084  0.6170 -0.6856
 7923TIP3   OH245259   5.666   0.703  12.614 -0.1082 -0.2678  0.3123
 7923TIP3    H145260   5.606   0.775  12.595  2.2034  1.7743  0.5164
 7923TIP3    H245261   5.706   0.726  12.698  0.1558 -2.1745  0.7545
 7924TIP3   OH245262   2.250   4.111   0.701 -0.0537  0.0675  0.5088
 7924TIP3    H145263   2.198   4.083   0.625  1.9589 -1.4869 -0.3724
 7924TIP3    H245264   2.322   4.048   0.704  1.0873  1.4211  2.4250
 7925TIP3   OH245265   0.178   2.138   0.528 -0.3841 -0.5405 -0.0661
 7925TIP3    H145266   0.204   2.155   0.619 -0.3954 -0.9097  0.0108
 7925TIP3    H245267   0.178   2.223   0.486  2.5438 -0.7154 -0.4873
 7926TIP3   OH245268   2.192   6.384  14.791 -0.6548  0.0307 -0.3363
 7926TIP3    H145269   2.185   6.290  14.774  0.2394 -0.2713  0.8696
 7926TIP3    H245270   2.237   6.389  14.875  0.2543  1.5587 -0.8997
 7927TIP3   OH245271   1.513   5.565  16.580  0.2135 -0.5244  0.7302
 7927TIP3    H145272   1.427   5.529  16.560 -0.4208  1.1157  0.4267
 7927TIP3    H245273   1.514   5.572  16.676 -0.4486  0.5037  0.6744
 7928TIP3   OH245274   4.028   0.840  13.212  0.2900 -0.1959 -0.5257
 7928TIP3    H145275   4.107   0.862  13.262 -2.0919  2.9234  2.0846
 7928TIP3    H245276   4.042   0.879  13.126  2.3147 -1.2756 -0.7327
 7929TIP3   OH245277   4.908   1.553   4.915  0.1871 -0.6748 -0.6167
 7929TIP3    H145278   4.992   1.599   4.913  0.4899 -1.1382  0.6944
 7929TIP3    H245279   4.914   1.496   4.991 -1.1725 -1.0076 -0.7429
 7930TIP3   OH245280   6.213   5.694  15.904  0.6806  0.3143 -0.1639
 7930TIP3    H145281   6.218   5.790  15.911 -0.4131  0.4078 -0.6306
 7930TIP3    H245282   6.193   5.665  15.993  0.9200  0.5198 -0.0420
 7931TIP3   OH245283   5.546   6.033   6.394 -0.7328  0.1295 -0.4705
 7931TIP3    H145284   5.635   6.068   6.390 -0.9734  0.9755  1.0824
 7931TIP3    H245285   5.497   6.083   6.328 -0.3851  0.6538 -0.3329
 7932TIP3   OH245286   5.684   0.565  17.017  0.1742  0.0069  0.2536
 7932TIP3    H145287   5.600   0.609  17.033 -1.1080 -2.2561  0.0335
 7932TIP3    H245288   5.674   0.480  17.060  1.8456 -0.8399 -0.9988
 7933TIP3   OH245289   3.563   5.020   5.708  0.0354  0.5736 -0.3169
 7933TIP3    H145290   3.508   4.957   5.662  1.4986  0.2722 -1.6874
 7933TIP3    H245291   3.621   4.967   5.762 -1.1696  0.9008  1.3619
 7934TIP3   OH245292   5.362   5.977   0.898  0.3452  0.1531  0.1783
 7934TIP3    H145293   5.376   5.953   0.807  2.7164  2.9795 -0.2606
 7934TIP3    H245294   5.293   6.043   0.895  0.6612  0.4945  0.3913
 7935TIP3   OH245295   6.336   6.797  17.235  0.0490 -0.0296  0.0430
 7935TIP3    H145296   6.331   6.773  17.142 -1.0055  1.0899 -0.1933
 7935TIP3    H245297   6.380   6.722  17.276 -0.1905 -0.8897 -1.2241
 7936TIP3   OH245298   1.099   0.916   2.979  0.8485 -0.5675 -0.0069
 7936TIP3    H145299   1.179   0.874   2.948  0.4722 -1.0459 -0.3552
 7936TIP3    H245300   1.128   0.991   3.029  1.5118 -0.6641 -0.2487
 7937TIP3   OH245301   4.856   2.501  14.309  0.3996 -0.0772 -0.1132
 7937TIP3    H145302   4.879   2.413  14.339  2.0980  1.6608  4.1271
 7937TIP3    H245303   4.773   2.520  14.353  1.0628  1.1467  0.6518
 7938TIP3   OH245304   1.842   5.745  11.789 -0.2873 -0.6777 -0.4918
 7938TIP3    H145305   1.882   5.765  11.873  2.1793  0.1014 -1.7865
 7938TIP3    H245306   1.827   5.651  11.791  0.0228 -0.7015  0.7220
 7939TIP3   OH245307   4.702   0.714   3.839  0.1055 -0.4369 -0.6960
 7939TIP3    H145308   4.739   0.780   3.780 -1.9149 -0.9597 -2.6171
 7939TIP3    H245309   4.634   0.760   3.887  1.0369 -0.2816  0.5015
 7940TIP3   OH245310   1.720   1.972   1.935  0.1616 -0.8230  0.4617
 7940TIP3    H145311   1.637   1.979   1.982  0.1768 -0.7150  0.4727
 7940TIP3    H245312   1.754   2.061   1.933 -0.6935 -0.5064 -1.2972
 7941TIP3   OH245313   4.968   0.058   3.924  0.3806 -0.1021 -0.9859
 7941TIP3    H145314   4.971   0.072   4.019  1.4133  0.4533 -1.0884
 7941TIP3    H245315   4.915  -0.021   3.913 -0.1276  0.0858  0.0223
 7942TIP3   OH245316   4.327   2.925   4.608  0.1272 -0.6955 -0.3454
 7942TIP3    H145317   4.352   3.018   4.610  1.1614 -0.9845 -0.0362
 7942TIP3    H245318   4.410   2.877   4.611 -0.4002 -1.6364 -0.5816
 7943TIP3   OH245319   5.889   5.878  17.040  0.3378 -0.4639 -0.1133
 7943TIP3    H145320   5.845   5.880  16.955  0.6528 -0.0872 -0.2684
 7943TIP3    H245321   5.966   5.934  17.029  1.0689 -1.4289  0.0350
 7944TIP3   OH245322   0.130   5.405   1.240  0.0093 -0.3546  0.5589
 7944TIP3    H145323   0.085   5.381   1.321  0.9224 -0.2866  1.0871
 7944TIP3    H245324   0.192   5.334   1.225 -2.0021 -1.7631 -1.5524
 7945TIP3   OH245325   1.442   3.298  15.045  0.2108 -0.1725 -0.1883
 7945TIP3    H145326   1.469   3.314  15.136 -0.9959 -0.2471  0.1909
 7945TIP3    H245327   1.347   3.304  15.047  0.2585  1.2085 -1.7321
 7946TIP3   OH245328   2.054   6.722   0.483 -0.0358 -0.4754  0.4090
 7946TIP3    H145329   2.063   6.730   0.388 -0.0518 -0.7089  0.3882
 7946TIP3    H245330   2.144   6.722   0.516 -0.0377 -0.1223  0.4165
 7947TIP3   OH245331   1.178   2.043  15.644  0.1408  0.2715  0.4599
 7947TIP3    H145332   1.199   2.036  15.737  1.9066 -0.8872 -0.0123
 7947TIP3    H245333   1.092   2.001  15.636  0.4174 -0.4968  1.4090
 7948TIP3   OH245334   6.557   5.412   0.494  0.2046 -0.6751 -0.5243
 7948TIP3    H145335   6.538   5.366   0.412 -0.1326 -0.8396 -0.3561
 7948TIP3    H245336   6.519   5.357   0.562  4.8402 -3.1281  0.2722
 7949TIP3   OH245337   6.701   4.134   3.946 -0.1116 -0.0538 -0.0782
 7949TIP3    H145338   6.774   4.084   3.911  0.3848  0.9067 -0.4424
 7949TIP3    H245339   6.695   4.108   4.038  0.0989 -0.8174 -0.2834
 7950TIP3   OH245340   6.063   6.209   0.918 -0.6343 -0.1349  0.8242
 7950TIP3    H145341   6.138   6.230   0.863 -0.2281  0.8474  1.7406
 7950TIP3    H245342   6.102   6.174   0.999 -1.2063 -1.0217  0.7252
 7951TIP3   OH245343   5.997   5.813   4.440 -0.5512  0.0451 -0.3309
 7951TIP3    H145344   5.938   5.818   4.515  1.3599  0.4552  1.2016
 7951TIP3    H245345   6.040   5.899   4.438 -1.5035  0.5097 -2.7023
 7952TIP3   OH245346   5.621   3.998   5.530 -0.4661 -0.5709 -0.1295
 7952TIP3    H145347   5.618   3.990   5.625 -1.5778  0.1274 -0.1066
 7952TIP3    H245348   5.715   3.999   5.509 -0.1606  2.7757  1.2375
 7953TIP3   OH245349   0.367   1.701  15.139 -0.1756  0.2147  0.6515
 7953TIP3    H145350   0.347   1.788  15.172  1.3136  1.1864 -0.8943
 7953TIP3    H245351   0.461   1.690  15.157 -0.2452 -0.8638  0.3840
 7954TIP3   OH245352   6.435   1.304  16.851  0.1009  0.1000  0.3167
 7954TIP3    H145353   6.495   1.309  16.925  0.8997 -0.5109 -0.2791
 7954TIP3    H245354   6.492   1.292  16.775 -0.7890 -0.8472 -0.2157
 7955TIP3   OH245355   1.240   4.024   4.719  0.2061 -0.1879  0.0892
 7955TIP3    H145356   1.334   4.035   4.706  0.0882  0.9921  0.1926
 7955TIP3    H245357   1.233   3.962   4.791  0.8990 -0.2380  0.1175
 7956TIP3   OH245358   0.180   0.210   4.650  0.1652 -0.5687  0.3694
 7956TIP3    H145359   0.183   0.254   4.735 -1.9251  0.0872  0.1119
 7956TIP3    H245360   0.170   0.117   4.672  1.2351 -0.5850  0.8460
 7957TIP3   OH245361   1.733   2.952  14.834 -0.0950  0.1571  0.2042
 7957TIP3    H145362   1.640   2.977  14.831  0.0299  0.8078  1.5338
 7957TIP3    H245363   1.779   3.034  14.851  0.7909 -0.0610 -1.0253
 7958TIP3   OH245364   6.600   6.228   1.434  0.0804  0.2515  0.1858
 7958TIP3    H145365   6.556   6.219   1.349 -0.4816 -0.0458  0.5038
 7958TIP3    H245366   6.689   6.255   1.412 -0.4214  1.4446 -0.4365
 7959TIP3   OH245367   0.567   6.726   1.720 -0.0844 -0.2510 -0.2312
 7959TIP3    H145368   0.526   6.745   1.805  0.4248  1.0101 -0.2697
 7959TIP3    H245369   0.661   6.726   1.739  0.0547  0.6746 -0.9324
 7960TIP3   OH245370   6.820   0.459  13.522  0.2588  0.2347  0.2485
 7960TIP3    H145371   6.908   0.445  13.557 -0.2676 -1.1327  1.0589
 7960TIP3    H245372   6.834   0.491  13.433  1.5614 -1.3649 -0.1395
 7961TIP3   OH245373   6.026   6.223  14.008 -0.5176  0.3208 -0.4643
 7961TIP3    H145374   5.940   6.225  14.050 -0.0711 -0.3451  0.4912
 7961TIP3    H245375   6.006   6.213  13.914 -1.4707 -0.5776 -0.1796
 7962TIP3   OH245376   3.204   5.629  13.561  0.4964  0.1697 -0.4029
 7962TIP3    H145377   3.209   5.724  13.552  0.8967  0.2166  0.3531
 7962TIP3    H245378   3.165   5.600  13.478 -2.0867  1.2170  0.3767
 7963TIP3   OH245379   0.785   5.802  15.480  0.0265  0.0638 -0.2313
 7963TIP3    H145380   0.707   5.852  15.454 -2.8506 -3.0171  2.1229
 7963TIP3    H245381   0.806   5.835  15.567  1.3468  0.8074 -0.8162
 7964TIP3   OH245382   3.747   2.529  15.055  0.8661 -0.0774  0.5060
 7964TIP3    H145383   3.718   2.482  14.977  1.1069 -0.8080  0.8509
 7964TIP3    H245384   3.783   2.461  15.112  0.0437  0.3403  1.5565
 7965TIP3   OH245385   5.120   6.112  14.541 -0.1153  0.3338  0.0186
 7965TIP3    H145386   5.086   6.134  14.454 -0.1878  0.6339  0.1213
 7965TIP3    H245387   5.172   6.188  14.566  0.9047 -0.2680 -0.2770
 7966TIP3   OH245388   4.262   0.816   5.110 -0.4488  0.2227 -0.2812
 7966TIP3    H145389   4.242   0.896   5.158 -1.0433  0.3777 -0.7774
 7966TIP3    H245390   4.358   0.811   5.109 -0.4295  0.1212  1.0650
 7967TIP3   OH245391   4.784   4.207  15.751  0.4374 -0.3301 -0.6198
 7967TIP3    H145392   4.744   4.228  15.835 -0.4192 -1.1157 -0.8305
 7967TIP3    H245393   4.752   4.275  15.692  1.8890  0.8584 -0.0831
 7968TIP3   OH245394   1.852   5.416  16.803 -0.0251 -0.5512  0.3458
 7968TIP3    H145395   1.837   5.411  16.709  0.1249  0.8569  0.2350
 7968TIP3    H245396   1.788   5.355  16.841 -2.7102  1.7082 -0.4195
 7969TIP3   OH245397   0.676   0.254  11.861 -0.1572 -0.1854 -0.4167
 7969TIP3    H145398   0.610   0.256  11.793 -1.0258  1.2422  0.4336
 7969TIP3    H245399   0.635   0.210  11.935 -0.7181  2.0285  0.6343
 7970TIP3   OH245400   2.506   0.178   1.207  0.4390 -0.3901 -0.2272
 7970TIP3    H145401   2.428   0.229   1.185  0.9905  1.2775  1.5589
 7970TIP3    H245402   2.542   0.152   1.122 -0.9458  0.5184 -1.1198
 7971TIP3   OH245403   1.528   2.904  14.621  0.3276  0.3124 -0.9028
 7971TIP3    H145404   1.502   2.881  14.532  0.4033 -1.7763 -0.4032
 7971TIP3    H245405   1.575   2.827  14.653 -1.5881  0.1837  1.7177
 7972TIP3   OH245406   5.347   2.715  11.712  0.0580  0.4470 -0.1420
 7972TIP3    H145407   5.272   2.685  11.660  1.1623 -0.9501 -0.9450
 7972TIP3    H245408   5.362   2.805  11.682  0.1406 -0.0500 -1.6147
 7973TIP3   OH245409   1.966   6.078   2.006  0.2424  0.5204  0.1303
 7973TIP3    H145410   2.021   6.000   1.997 -2.2863 -1.6356  2.7371
 7973TIP3    H245411   1.886   6.057   1.957  0.6864  2.6841 -1.6013
 7974TIP3   OH245412   3.962   3.970  15.310 -0.1986 -0.1818  0.1105
 7974TIP3    H145413   3.966   4.000  15.219 -0.4655  0.6059  0.3474
 7974TIP3    H245414   3.911   3.889  15.307 -0.6986  0.1504 -0.3698
 7975TIP3   OH245415   4.152   3.003  15.676  0.0957  0.0022  0.3417
 7975TIP3    H145416   4.164   3.098  15.676  0.8956 -0.0933 -0.3057
 7975TIP3    H245417   4.131   2.981  15.586  0.6688 -0.5216  0.3264
 7976TIP3   OH245418   2.440   0.517  13.047 -0.1083 -0.2038  0.0653
 7976TIP3    H145419   2.376   0.448  13.032 -1.2745  1.1981 -1.4875
 7976TIP3    H245420   2.392   0.599  13.036  1.9811  0.8860 -1.3929
 7977TIP3   OH245421   5.127   1.003  15.190 -0.0554  0.2983 -0.1418
 7977TIP3    H145422   5.075   1.079  15.214  1.9570  1.3070  1.1261
 7977TIP3    H245423   5.100   0.934  15.251 -1.2486  0.2294 -0.7334
 7978TIP3   OH245424   3.708   2.515  11.651 -0.4077 -0.2612  0.8029
 7978TIP3    H145425   3.703   2.550  11.740  1.1249 -0.3544  0.9464
 7978TIP3    H245426   3.665   2.581  11.597  0.8110  0.9670  1.3123
 7979TIP3   OH245427   5.047   6.185   2.445 -0.7526  0.1668  0.0012
 7979TIP3    H145428   4.990   6.231   2.384 -0.3103 -0.7650 -1.1432
 7979TIP3    H245429   5.070   6.103   2.400 -0.2339 -0.4348  1.3214
 7980TIP3   OH245430   3.834   4.938   3.225 -0.2903 -0.0112 -0.5392
 7980TIP3    H145431   3.870   5.024   3.244  0.6543 -0.4108 -0.4894
 7980TIP3    H245432   3.896   4.899   3.164  0.8774 -1.7995  1.7178
 7981TIP3   OH245433   3.106   4.460   0.338 -0.4774  0.1930  0.4201
 7981TIP3    H145434   3.172   4.435   0.273 -0.6353 -0.2324  0.4235
 7981TIP3    H245435   3.034   4.496   0.286 -0.7554 -0.4864  0.3363
 7982TIP3   OH245436   3.536   2.875  11.803 -0.5563 -0.4720  0.0719
 7982TIP3    H145437   3.599   2.808  11.828 -0.9693 -0.7207  0.4594
 7982TIP3    H245438   3.579   2.958  11.826  0.4911 -0.5274 -1.6147
 7983TIP3   OH245439   0.022   3.287  12.671  0.2321  0.2070 -0.2455
 7983TIP3    H145440   0.083   3.213  12.665  1.3081  0.8103  2.5119
 7983TIP3    H245441   0.065   3.357  12.622  1.0282  0.1312  0.3233
 7984TIP3   OH245442   5.077   6.014   0.258 -0.3262 -1.1048 -0.2154
 7984TIP3    H145443   5.020   6.082   0.294  1.2783 -0.5253  1.2918
 7984TIP3    H245444   5.019   5.961   0.203 -1.4927  1.8283 -1.9141
 7985TIP3   OH245445   0.911   4.143  14.561  0.5394 -0.3578  0.2088
 7985TIP3    H145446   0.825   4.155  14.522  0.4244  0.0368  0.5804
 7985TIP3    H245447   0.931   4.050  14.547  0.3051 -0.3221 -0.3769
 7986TIP3   OH245448   4.648   3.524  12.089 -0.3744  0.1928  0.4119
 7986TIP3    H145449   4.657   3.513  12.184 -1.6108 -0.5301  0.4609
 7986TIP3    H245450   4.589   3.454  12.063  0.3949  0.0515 -0.9870
 7987TIP3   OH245451   4.337   4.242   4.064  0.1250  0.2830 -0.0290
 7987TIP3    H145452   4.361   4.262   3.974  0.0161  0.5798  0.0089
 7987TIP3    H245453   4.256   4.192   4.057  0.9869 -1.1481 -0.1876
 7988TIP3   OH245454   4.859   3.085  10.609 -0.0008 -0.0941  0.1956
 7988TIP3    H145455   4.946   3.120  10.628  1.3141 -2.3185 -1.4547
 7988TIP3    H245456   4.863   3.058  10.517 -2.4551 -0.1601  0.0819
 7989TIP3   OH245457   2.682   4.449  16.958 -0.1068 -0.4555 -0.0557
 7989TIP3    H145458   2.719   4.511  17.021  0.3335 -1.9095  1.1441
 7989TIP3    H245459   2.756   4.394  16.933 -0.7586 -1.2707 -0.1793
 7990TIP3   OH245460   4.247   3.346  14.418 -0.3385  0.0079 -0.2773
 7990TIP3    H145461   4.224   3.411  14.485 -0.7137  1.9788 -2.2741
 7990TIP3    H245462   4.339   3.325  14.437 -0.4767  0.4321  0.9425
 7991TIP3   OH245463   3.992   1.090   2.828  0.1341 -0.2377 -0.8702
 7991TIP3    H145464   4.040   1.168   2.859  0.6024  0.0061 -2.1747
 7991TIP3    H245465   3.931   1.124   2.763 -1.0104 -0.7168 -0.0498
 7992TIP3   OH245466   0.856   5.554  12.879  0.8225  0.2292  0.3710
 7992TIP3    H145467   0.844   5.634  12.828 -0.5806  0.8012  1.5492
 7992TIP3    H245468   0.795   5.563  12.952  0.5176 -2.0026  0.4299
 7993TIP3   OH245469   0.900   2.249  10.249  0.0949  0.4736  0.4261
 7993TIP3    H145470   0.926   2.287  10.333 -0.0476 -0.8131  1.0614
 7993TIP3    H245471   0.813   2.286  10.233 -0.5822 -0.5407  1.6603
 7994TIP3   OH245472   3.652   4.808  14.673  0.0750 -0.6204 -0.2717
 7994TIP3    H145473   3.707   4.797  14.596  1.2728  2.3909  0.0902
 7994TIP3    H245474   3.686   4.743  14.735 -0.5401 -2.6850 -2.0395
 7995TIP3   OH245475   2.062   5.397  11.570  1.0091  0.0196  0.0871
 7995TIP3    H145476   2.126   5.369  11.635  0.0432  0.3245  1.2105
 7995TIP3    H245477   2.007   5.320  11.555  1.5190 -0.1853 -0.7205
 7996TIP3   OH245478   4.552   4.899   3.333  0.1752  0.4737  0.9837
 7996TIP3    H145479   4.497   4.977   3.333 -0.9097 -0.2491 -1.0109
 7996TIP3    H245480   4.641   4.932   3.343  0.2262  2.3887 -4.3732
 7997TIP3   OH245481   4.900   6.594  12.237 -0.1615  0.1916  0.3670
 7997TIP3    H145482   4.938   6.664  12.290  0.3800  0.5813 -0.5133
 7997TIP3    H245483   4.869   6.639  12.158  2.9766 -0.9675 -1.6100
 7998TIP3   OH245484   1.687   0.611  13.966  0.8497 -0.2536  0.8146
 7998TIP3    H145485   1.652   0.694  13.999 -0.8224 -0.8378  0.5893
 7998TIP3    H245486   1.746   0.637  13.895  0.6913  0.7658  1.0423
 7999TIP3   OH245487   0.337   3.931   5.724 -0.2124  0.2981  0.2301
 7999TIP3    H145488   0.248   3.966   5.722  0.0435  0.9396  0.0918
 7999TIP3    H245489   0.391   4.002   5.758  0.5157  0.5197 -1.3082
 8000TIP3   OH245490   6.325   0.152   1.668  0.1643  0.5046  0.0075
 8000TIP3    H145491   6.407   0.175   1.712 -0.3427  1.6125  0.3876
 8000TIP3    H245492   6.284   0.236   1.649 -0.5488 -0.0304 -0.8302
 8001TIP3   OH245493   2.033   4.474   6.432 -0.4191  0.3522  0.0101
 8001TIP3    H145494   1.963   4.517   6.480 -0.0145 -0.3869  1.2838
 8001TIP3    H245495   2.061   4.402   6.489  1.4268  0.6871 -0.4389
 8002TIP3   OH245496   2.929   3.871   4.133 -0.4683 -0.1273  0.1659
 8002TIP3    H145497   2.914   3.945   4.192  1.6470 -1.2976  2.2810
 8002TIP3    H245498   3.006   3.896   4.082  0.7996 -1.1862  1.5147
 8003TIP3   OH245499   1.387   6.293   4.376  0.2051  0.0630  0.4011
 8003TIP3    H145500   1.453   6.321   4.439 -0.1520 -0.1106  0.8521
 8003TIP3    H245501   1.373   6.370   4.320  1.0893 -0.0285  0.0416
 8004TIP3   OH245502   2.145   5.966   6.068 -0.0245  0.2506 -0.0560
 8004TIP3    H145503   2.234   5.958   6.105  0.1237  1.3568 -0.1653
 8004TIP3    H245504   2.111   5.877   6.071  0.7794 -0.0464  0.7873
 8005TIP3   OH245505   5.314   6.803   5.123 -0.1836  0.0287  0.1000
 8005TIP3    H145506   5.226   6.768   5.135 -0.0394 -0.6529 -0.7479
 8005TIP3    H245507   5.303   6.879   5.067 -0.2469  0.0066  0.0830
 8006TIP3   OH245508   0.277   0.053   1.352  0.2565 -0.0776 -0.2755
 8006TIP3    H145509   0.223   0.034   1.429 -0.7806  0.7382 -0.7906
 8006TIP3    H245510   0.264   0.147   1.336  0.4857 -0.2344 -1.4355
 8007TIP3   OH245511   4.437   5.045  13.142 -0.1832  0.1139  0.2150
 8007TIP3    H145512   4.455   5.139  13.150 -1.5051  0.2881  1.3343
 8007TIP3    H245513   4.387   5.036  13.061  1.6147  0.1113 -0.9151
 8008TIP3   OH245514   1.635   3.762  13.973  0.2668  0.3866 -0.1295
 8008TIP3    H145515   1.674   3.774  13.887  0.6141 -2.8900 -0.4771
 8008TIP3    H245516   1.684   3.690  14.012 -0.0316  1.6648  2.7443
 8009TIP3   OH245517   0.455   1.286   2.485  0.2911  0.0622 -0.0951
 8009TIP3    H145518   0.416   1.266   2.400 -0.7999  1.4166  0.0774
 8009TIP3    H245519   0.547   1.261   2.475  0.2579  0.5435 -1.7835
 8010TIP3   OH245520   0.454   0.095   5.261  0.2598  0.3219 -0.0004
 8010TIP3    H145521   0.411   0.068   5.342  1.6152 -1.0142  0.2991
 8010TIP3    H245522   0.525   0.032   5.249  0.1577  0.5679 -2.1715
 8011TIP3   OH245523   4.947   0.709   0.535  0.2099 -0.2540  0.6575
 8011TIP3    H145524   4.863   0.737   0.573 -0.1431  0.8848 -0.9120
 8011TIP3    H245525   5.009   0.777   0.561  1.1795 -2.1426  3.5926
 8012TIP3   OH245526   4.269   0.229  15.203  0.1277  0.1946 -0.1615
 8012TIP3    H145527   4.353   0.226  15.248 -0.8032  0.1136  1.6271
 8012TIP3    H245528   4.208   0.261  15.269 -1.3761 -0.4127 -1.2281
 8013TIP3   OH245529   4.748   6.017   3.843 -0.2124 -0.1705 -0.0558
 8013TIP3    H145530   4.746   5.931   3.885 -1.5878  0.2677  0.8232
 8013TIP3    H245531   4.790   6.002   3.758  1.2022 -1.3617  0.8211
 8014TIP3   OH245532   4.524   1.218   3.889 -0.1687  0.3221 -0.1073
 8014TIP3    H145533   4.594   1.277   3.918 -0.0846 -0.1565  0.6819
 8014TIP3    H245534   4.511   1.240   3.797  0.2783  1.1561  0.0256
 8015TIP3   OH245535   5.843   2.397  14.461 -0.7722  0.2738  0.0611
 8015TIP3    H145536   5.918   2.406  14.520  0.7514  0.5862 -1.8773
 8015TIP3    H245537   5.849   2.474  14.403 -0.8956 -1.2079 -1.9638
 8016TIP3   OH245538   1.377   3.001   1.578 -0.3543  0.0503 -0.4605
 8016TIP3    H145539   1.374   2.988   1.483 -1.0575  2.8483 -0.8767
 8016TIP3    H245540   1.286   3.001   1.605 -0.2574  1.2449 -0.1063
 8017TIP3   OH245541   2.563   3.138  13.392  0.0854  0.1052 -0.4597
 8017TIP3    H145542   2.624   3.106  13.459 -0.5701 -0.7873 -0.2774
 8017TIP3    H245543   2.597   3.223  13.367  1.6097 -0.5376 -0.6081
 8018TIP3   OH245544   6.170   1.575   2.949 -0.6096 -0.1569  0.1644
 8018TIP3    H145545   6.145   1.660   2.913 -1.9867 -1.0487 -1.0229
 8018TIP3    H245546   6.114   1.512   2.903 -0.0139 -1.6461  1.4534
 8019TIP3   OH245547   1.829   3.638  13.172 -0.2974  0.5227 -0.4868
 8019TIP3    H145548   1.865   3.586  13.243  0.7934 -0.3407 -1.6459
 8019TIP3    H245549   1.736   3.617  13.172 -0.3929  0.8780  0.9531
 8020TIP3   OH245550   0.023   0.981   3.914  0.5111 -0.3207  0.2996
 8020TIP3    H145551  -0.057   0.959   3.867  1.0528 -1.5543 -0.0528
 8020TIP3    H245552   0.092   0.932   3.870  1.0193 -1.5735  2.3893
 8021TIP3   OH245553   6.680   5.835  13.726 -0.1724  0.0385  0.2285
 8021TIP3    H145554   6.707   5.819  13.635  0.4830  0.7434  0.2970
 8021TIP3    H245555   6.761   5.857  13.771 -0.4094 -0.9276  1.1258
 8022TIP3   OH245556   4.140   0.892   5.834  0.2075 -0.2246 -0.6782
 8022TIP3    H145557   4.175   0.826   5.775 -1.4797 -0.8359 -1.0421
 8022TIP3    H245558   4.089   0.843   5.898  1.6623  0.4781  1.0577
 8023TIP3   OH245559   0.862   0.125  15.640 -0.3468  0.2095 -0.4610
 8023TIP3    H145560   0.854   0.164  15.554 -0.5759  0.0564 -0.5120
 8023TIP3    H245561   0.850   0.198  15.701  1.3750  0.5987 -0.5608
 8024TIP3   OH245562   4.700   5.261   6.121 -0.1603 -0.0976  0.2560
 8024TIP3    H145563   4.742   5.342   6.150  1.0826 -0.6191 -0.0427
 8024TIP3    H245564   4.691   5.271   6.026  0.5255 -0.5349  0.1377
 8025TIP3   OH245565   5.339   2.326  13.455 -0.4917 -0.1341 -0.0980
 8025TIP3    H145566   5.337   2.366  13.368  0.9061 -0.7447 -0.4200
 8025TIP3    H245567   5.385   2.391  13.509  0.8953 -0.8455 -0.3983
 8026TIP3   OH245568   1.307   2.602   5.794 -0.5895 -0.0349  0.0676
 8026TIP3    H145569   1.391   2.649   5.797 -0.8193  0.3691  0.1267
 8026TIP3    H245570   1.307   2.549   5.874 -0.3273 -0.1399 -0.0021
 8027TIP3   OH245571   2.806   0.743   5.575  0.4246 -0.3608  0.6010
 8027TIP3    H145572   2.880   0.721   5.632  0.2201  0.6232  1.2605
 8027TIP3    H245573   2.729   0.716   5.625  0.2596  0.2365  0.6673
 8028TIP3   OH245574   0.510   1.989   5.110  0.2293  0.5682  0.2451
 8028TIP3    H145575   0.561   1.975   5.031 -0.2021  0.4865 -0.0201
 8028TIP3    H245576   0.534   2.077   5.139 -2.3274  2.1017 -2.0145
 8029TIP3   OH245577   5.156   5.881   4.383  0.0823 -0.3889 -0.4011
 8029TIP3    H145578   5.227   5.832   4.340  0.5140 -0.2499  0.1462
 8029TIP3    H245579   5.133   5.949   4.320 -0.1750 -0.9814 -0.9553
 8030TIP3   OH245580   5.082   5.570  10.773 -0.0740 -0.7945 -0.5547
 8030TIP3    H145581   5.043   5.573  10.685 -0.9186 -1.8764 -0.2227
 8030TIP3    H245582   5.145   5.643  10.773 -1.4514  0.4172 -1.3960
 8031TIP3   OH245583   0.001   1.465   2.385  0.0258 -0.5798  0.1563
 8031TIP3    H145584   0.096   1.475   2.383  0.0196 -0.7067 -1.1772
 8031TIP3    H245585  -0.026   1.469   2.293 -1.6850  3.1798  0.7235
 8032TIP3   OH245586   5.360   6.211   4.591 -0.1684 -0.0655  0.1953
 8032TIP3    H145587   5.393   6.191   4.504 -1.0964  2.0786 -0.6838
 8032TIP3    H245588   5.270   6.240   4.577 -0.2651  0.5021  1.8351
 8033TIP3   OH245589   0.347   5.794  17.201  0.2305  1.0162 -0.1705
 8033TIP3    H145590   0.348   5.747  17.117  1.0249 -0.3768  0.5889
 8033TIP3    H245591   0.387   5.878  17.182 -1.3458  1.4646 -1.6030
 8034TIP3   OH245592   4.175   1.272  13.408 -0.1350  0.5158  0.2962
 8034TIP3    H145593   4.221   1.320  13.339 -0.6830  0.3994 -0.1552
 8034TIP3    H245594   4.188   1.324  13.487 -0.3261  1.1567 -0.0934
 8035TIP3   OH245595   4.375   0.903  13.592 -0.0080 -0.2402 -0.3017
 8035TIP3    H145596   4.378   0.820  13.640  0.5750  0.1572  0.3545
 8035TIP3    H245597   4.466   0.919  13.567 -0.0793  0.3319 -0.1956
 8036TIP3   OH245598   1.848   0.533  16.524  0.4450  0.3861 -0.3125
 8036TIP3    H145599   1.915   0.601  16.517  0.6572  0.1051 -1.0488
 8036TIP3    H245600   1.816   0.522  16.435  1.9628 -2.0406 -0.6032
 8037TIP3   OH245601   0.983   6.770  15.311  0.0479 -0.5859  0.5760
 8037TIP3    H145602   1.066   6.797  15.351  0.1800  0.5069 -0.4235
 8037TIP3    H245603   1.002   6.684  15.272  1.4693  0.8021 -1.9299
 8038TIP3   OH245604   0.208   0.221  12.078  0.4514 -0.3250 -0.7613
 8038TIP3    H145605   0.213   0.164  12.155 -1.6109  0.1610 -0.2237
 8038TIP3    H245606   0.205   0.309  12.114 -0.4695 -0.0926 -1.3896
 8039TIP3   OH245607   3.142   4.470   6.737  0.3574 -0.0644  0.1627
 8039TIP3    H145608   3.137   4.404   6.668  1.3961 -0.5902  0.5836
 8039TIP3    H245609   3.228   4.457   6.777  0.8146  1.9359 -0.1211
 8040TIP3   OH245610   0.166   2.220  14.775 -0.3637  0.5075  0.9041
 8040TIP3    H145611   0.204   2.220  14.687  0.7668  0.9151  1.3979
 8040TIP3    H245612   0.107   2.144  14.774 -0.7566  0.8049 -0.3726
 8041TIP3   OH245613   2.316   0.386  15.105 -0.1877  0.6818 -0.2443
 8041TIP3    H145614   2.342   0.477  15.116 -0.2304  0.5690  0.8775
 8041TIP3    H245615   2.228   0.382  15.143 -0.1026  0.1352 -0.1001
 8042TIP3   OH245616   1.560   2.566  16.819  0.1762 -0.3927  0.5334
 8042TIP3    H145617   1.623   2.596  16.753 -0.2831 -0.6106 -0.0086
 8042TIP3    H245618   1.489   2.528  16.768  0.3446 -1.6106  1.1905
 8043TIP3   OH245619   1.420   5.678   4.719 -0.2466  0.4458  0.0522
 8043TIP3    H145620   1.453   5.719   4.640  1.1307  1.9344  1.3558
 8043TIP3    H245621   1.327   5.663   4.702  0.2786 -0.3431 -2.2587
 8044TIP3   OH245622   4.226   2.398   2.264 -0.4264  0.0161 -0.3138
 8044TIP3    H145623   4.222   2.436   2.351  1.0280  1.1252 -0.7017
 8044TIP3    H245624   4.246   2.305   2.279 -3.3268 -0.5146  0.6138
 8045TIP3   OH245625   1.345   6.278  13.399  0.3885  0.1784  0.4888
 8045TIP3    H145626   1.394   6.337  13.341 -0.1591  2.7327  2.5363
 8045TIP3    H245627   1.412   6.226  13.443  1.0005  0.6257  0.0933
 8046TIP3   OH245628   2.805   6.234  15.591  0.4769 -0.3371  0.2996
 8046TIP3    H145629   2.793   6.325  15.618  2.3210  0.2629 -0.8033
 8046TIP3    H245630   2.826   6.240  15.497  0.3934 -1.9217  0.1645
 8047TIP3   OH245631   2.390   1.135  11.890 -0.3735 -0.5585  0.3652
 8047TIP3    H145632   2.461   1.091  11.842 -1.2006  0.4456 -1.8522
 8047TIP3    H245633   2.320   1.069  11.893  0.2063 -1.1327  1.5004
 8048TIP3   OH245634   1.405   1.121  11.538 -0.0811 -0.5439 -0.3167
 8048TIP3    H145635   1.414   1.177  11.614 -0.5145  0.8938 -1.3001
 8048TIP3    H245636   1.334   1.161  11.487 -0.1768 -1.7964 -1.2013
 8049TIP3   OH245637   3.187   1.866  16.042  0.2149 -0.0223 -0.2862
 8049TIP3    H145638   3.234   1.783  16.032  0.8232  0.5072 -1.9175
 8049TIP3    H245639   3.143   1.880  15.959  1.5921  2.1772 -0.7043
 8050TIP3   OH245640   4.863   6.468  15.490 -0.8489 -0.1356 -0.2903
 8050TIP3    H145641   4.841   6.546  15.541 -1.2526 -1.3559  1.4511
 8050TIP3    H245642   4.955   6.480  15.465  0.0627 -0.5570  2.7072
 8051TIP3   OH245643   3.672   3.247   2.116 -0.2914  0.5274  0.2106
 8051TIP3    H145644   3.710   3.302   2.185 -0.4726  0.3465  0.4576
 8051TIP3    H245645   3.723   3.267   2.038  0.2264  0.3796  0.5113
 8052TIP3   OH245646   1.112   1.991   0.684  0.2126 -0.5964 -0.0259
 8052TIP3    H145647   1.102   1.994   0.780  0.0188  1.2134 -0.0840
 8052TIP3    H245648   1.206   1.976   0.671  0.7617  2.0575  0.4793
 8053TIP3   OH245649   3.595   6.689  17.192 -0.3799 -0.5494  0.3595
 8053TIP3    H145650   3.665   6.630  17.167 -1.1431 -1.7383  0.9442
 8053TIP3    H245651   3.575   6.739  17.113 -0.7109 -2.1137 -0.5675
 8054TIP3   OH245652   2.016   4.976   2.531 -0.4590  0.2401  0.6376
 8054TIP3    H145653   1.921   4.965   2.533 -0.2132 -2.7256 -0.8342
 8054TIP3    H245654   2.038   4.979   2.438  1.0192 -0.5304  0.9428
 8055TIP3   OH245655   4.013   3.636   4.599 -0.0477  0.5457  0.2926
 8055TIP3    H145656   3.937   3.578   4.610 -0.2278 -0.0054 -3.3054
 8055TIP3    H245657   3.976   3.724   4.602 -0.6633  0.3120 -0.2117
 8056TIP3   OH245658   2.686   2.989   0.433  0.1992  0.2063 -0.2954
 8056TIP3    H145659   2.653   3.030   0.353 -1.9589  0.1379  0.5233
 8056TIP3    H245660   2.693   3.061   0.496  1.3270  0.1545 -0.3396
 8057TIP3   OH245661   0.706   1.059  16.761 -0.3835  0.2976 -0.2607
 8057TIP3    H145662   0.697   1.153  16.745 -0.7386  0.5758  1.5438
 8057TIP3    H245663   0.666   1.044  16.846 -0.1828 -1.4763 -0.4422
 8058TIP3   OH245664   1.001   5.465  12.173 -0.2952 -0.0912 -0.5475
 8058TIP3    H145665   1.063   5.416  12.119 -0.0691 -1.0435  0.5629
 8058TIP3    H245666   0.925   5.478  12.115  0.1016 -0.7423 -1.2282
 8059TIP3   OH245667   2.418   3.136  15.907 -0.4594  0.4029  0.1205
 8059TIP3    H145668   2.411   3.204  15.840 -0.5812  2.1505  1.8510
 8059TIP3    H245669   2.333   3.094  15.908 -0.8227  1.1302 -0.0539
 8060TIP3   OH245670   4.649   1.773   0.178  0.4527 -0.4053  0.3005
 8060TIP3    H145671   4.668   1.728   0.096 -0.3269 -0.0245 -0.0911
 8060TIP3    H245672   4.574   1.726   0.215 -0.7165  0.8671 -0.3762
 8061TIP3   OH245673   3.329   4.887   5.177  0.8675 -0.3468  0.1581
 8061TIP3    H145674   3.403   4.894   5.236  0.3605  0.4596  0.7178
 8061TIP3    H245675   3.355   4.939   5.100  0.9630 -0.2302  0.2698
 8062TIP3   OH245676   2.640   5.238  15.386 -0.1177 -0.2409  0.0426
 8062TIP3    H145677   2.719   5.251  15.439  1.0401 -0.8909 -1.5147
 8062TIP3    H245678   2.568   5.243  15.450  1.1466  0.5799  1.4431
 8063TIP3   OH245679   2.861   3.007  11.697  0.2124 -0.6839 -0.3105
 8063TIP3    H145680   2.900   2.928  11.659 -1.3131 -1.0886 -1.0973
 8063TIP3    H245681   2.914   3.079  11.662  1.4232 -1.3250  0.1607
 8064TIP3   OH245682   5.064   2.353  13.496  0.1180  0.3789 -0.0501
 8064TIP3    H145683   5.076   2.386  13.585 -0.5035 -0.6389  0.4198
 8064TIP3    H245684   5.152   2.331  13.466  0.1892 -0.4343  0.7646
 8065TIP3   OH245685   3.480   6.074  16.535  0.1377 -0.4433  0.0473
 8065TIP3    H145686   3.518   6.143  16.589 -1.0241 -2.7822  4.0655
 8065TIP3    H245687   3.417   6.120  16.478  1.1531  2.0648  0.8858
 8066TIP3   OH245688   4.636   5.630   5.209 -0.7314 -0.4305 -0.5465
 8066TIP3    H145689   4.563   5.641   5.271 -0.4070 -0.0286 -0.2320
 8066TIP3    H245690   4.643   5.715   5.165  0.1262 -0.1862  0.0562
 8067TIP3   OH245691   4.254   2.524  15.022  0.8689  0.2156 -0.7789
 8067TIP3    H145692   4.181   2.479  14.979  0.0737  0.9707 -0.2315
 8067TIP3    H245693   4.254   2.612  14.985 -1.4367  1.7060  2.5631
 8068TIP3   OH245694   0.460   3.722  12.658 -0.2120  0.3368  0.3360
 8068TIP3    H145695   0.430   3.813  12.653  0.6423  0.5610 -0.7220
 8068TIP3    H245696   0.555   3.728  12.653 -0.1671 -0.6363  0.0303
 8069TIP3   OH245697   2.310   0.944  12.095 -0.5205 -0.2383 -0.6738
 8069TIP3    H145698   2.217   0.940  12.119 -0.5700 -0.3792 -0.8885
 8069TIP3    H245699   2.355   0.961  12.178 -0.6646 -1.0834 -0.4172
 8070TIP3   OH245700   1.285   3.060   5.719 -0.0427  0.2273 -0.1139
 8070TIP3    H145701   1.233   2.992   5.763 -1.5783  0.3544 -1.6702
 8070TIP3    H245702   1.327   3.013   5.646  1.5929  0.2523  0.7910
 8071TIP3   OH245703   4.496   0.381  16.347  0.0889 -0.6057  0.2775
 8071TIP3    H145704   4.418   0.326  16.343  0.2697 -0.8685  0.3190
 8071TIP3    H245705   4.549   0.352  16.272 -0.1702  0.0571 -0.1679
 8072TIP3   OH245706   4.066   1.398   5.948  0.1937 -0.1194 -0.3508
 8072TIP3    H145707   4.136   1.353   5.994 -1.6801 -1.0183  1.7085
 8072TIP3    H245708   4.045   1.341   5.874  0.0898 -1.0020  0.3484
 8073TIP3   OH245709   3.806   5.883  12.621 -0.6675 -0.6982  0.3375
 8073TIP3    H145710   3.741   5.953  12.628 -3.3722 -2.9265 -1.3750
 8073TIP3    H245711   3.793   5.831  12.700  0.4833  0.0160  1.0041
 8074TIP3   OH245712   4.014   5.124  10.909  0.2519  0.1814  0.2760
 8074TIP3    H145713   3.958   5.199  10.932 -0.7612 -0.4124 -0.2231
 8074TIP3    H245714   3.983   5.097  10.823  0.8023 -0.6423  0.3342
 8075TIP3   OH245715   3.320   5.184   0.504 -0.0778 -0.2103 -0.2933
 8075TIP3    H145716   3.360   5.221   0.426  1.3135 -0.3696  0.3181
 8075TIP3    H245717   3.365   5.100   0.516  0.6125  0.3602  1.3497
 8076TIP3   OH245718   1.382   5.970   5.933  0.2995 -0.1522 -0.1634
 8076TIP3    H145719   1.385   5.881   5.969 -0.9356 -0.5557 -1.0269
 8076TIP3    H245720   1.331   6.020   5.996 -0.8659 -0.5811 -0.7597
 8077TIP3   OH245721   0.920   0.781   0.585  0.3251  0.4237  0.1377
 8077TIP3    H145722   0.912   0.873   0.608 -0.2681  0.0329  1.5804
 8077TIP3    H245723   0.849   0.765   0.524  0.7762  1.0470 -0.5583
 8078TIP3   OH245724   2.808   2.163   0.966  0.2222 -0.0069  0.1953
 8078TIP3    H145725   2.809   2.100   1.038  1.7721 -0.3277 -0.0914
 8078TIP3    H245726   2.859   2.120   0.897 -0.2033  0.8263 -0.6450
 8079TIP3   OH245727   6.524   6.762  16.362 -0.2437  0.5141  0.7260
 8079TIP3    H145728   6.592   6.751  16.295  0.7327 -0.5725  1.8595
 8079TIP3    H245729   6.445   6.725  16.322  0.1029  0.7361 -0.1877
 8080TIP3   OH245730   3.491   4.388  14.060  0.1505 -0.0594 -0.1370
 8080TIP3    H145731   3.434   4.418  13.990  0.8799  1.0605 -0.2621
 8080TIP3    H245732   3.446   4.413  14.141  0.4360  0.7512 -0.2338
 8081TIP3   OH245733   3.046   3.168   0.519 -0.4879 -0.2350 -0.3988
 8081TIP3    H145734   3.079   3.084   0.487 -0.8304 -0.7824  0.6500
 8081TIP3    H245735   3.074   3.172   0.611 -2.0376 -0.0638  0.0962
 8082TIP3   OH245736   3.923   6.159  15.628  0.1179  0.2030 -0.1865
 8082TIP3    H145737   3.987   6.171  15.698 -0.7888  0.1125  0.6654
 8082TIP3    H245738   3.956   6.213  15.556 -0.5355  2.7784  1.3628
 8083TIP3   OH245739   5.953   4.265  15.436  0.3282  0.9453  0.0927
 8083TIP3    H145740   5.962   4.260  15.341 -0.9901 -0.6220  0.0153
 8083TIP3    H245741   5.985   4.352  15.460  0.6189  1.3637 -1.7915
 8084TIP3   OH245742   1.214   2.932   2.038 -0.0985  0.1597  0.3354
 8084TIP3    H145743   1.210   2.842   2.008 -1.2909  0.6815 -1.1390
 8084TIP3    H245744   1.228   2.925   2.133  0.0936 -1.5582  0.1948
 8085TIP3   OH245745   2.735   5.983   2.491  0.2824 -0.0417 -0.3023
 8085TIP3    H145746   2.657   6.038   2.500 -2.4925 -3.5270 -1.9850
 8085TIP3    H245747   2.764   5.996   2.401  0.5897 -0.0862 -0.2112
 8086TIP3   OH245748   2.246   1.519  12.019  0.1342 -0.2929 -1.0762
 8086TIP3    H145749   2.204   1.528  11.934 -2.5761 -0.8283  0.1535
 8086TIP3    H245750   2.230   1.602  12.063 -1.8069 -1.3507  0.3061
 8087TIP3   OH245751   5.828   2.764  11.366 -0.1746  0.1395  0.0306
 8087TIP3    H145752   5.794   2.782  11.278  2.3390  0.5759 -0.8901
 8087TIP3    H245753   5.817   2.670  11.377  1.7878 -0.3361 -1.7846
 8088TIP3   OH245754   1.033   2.887   5.054 -0.3676 -0.3330  0.4282
 8088TIP3    H145755   1.074   2.959   5.007  0.7600 -0.7858  0.6949
 8088TIP3    H245756   0.946   2.878   5.014 -0.3992  0.9506  0.1808
 8089TIP3   OH245757   2.067   1.831   1.871  0.0798 -0.2660 -0.0730
 8089TIP3    H145758   2.058   1.903   1.934  0.0088 -1.4188  1.2622
 8089TIP3    H245759   1.987   1.835   1.818 -0.2159  0.2549  0.4045
 8090TIP3   OH245760   6.063   0.302  11.731 -0.3181  0.5373 -0.0960
 8090TIP3    H145761   5.992   0.367  11.731 -0.7250  0.1117 -1.5000
 8090TIP3    H245762   6.031   0.231  11.787  0.2907  1.6987  1.7690
 8091TIP3   OH245763   4.330   3.840  16.458  0.2047 -0.3460 -0.2873
 8091TIP3    H145764   4.297   3.927  16.435 -0.2110 -0.9198 -1.9870
 8091TIP3    H245765   4.302   3.826  16.548 -1.1459  0.6278 -0.5409
 8092TIP3   OH245766   0.756   5.631   2.394 -0.3398  0.1383 -0.7101
 8092TIP3    H145767   0.783   5.539   2.388 -1.4696 -0.2425 -0.1408
 8092TIP3    H245768   0.834   5.678   2.423  0.2893 -0.6233 -1.1771
 8093TIP3   OH245769   2.220   2.198   5.068  0.6015  0.2216  0.0978
 8093TIP3    H145770   2.295   2.184   5.010  0.3879 -0.0037 -0.1236
 8093TIP3    H245771   2.230   2.132   5.136  0.1071 -0.3997 -0.4321
 8094TIP3   OH245772   3.153   3.639  12.308 -0.3760 -0.0901 -0.1502
 8094TIP3    H145773   3.174   3.560  12.260  0.5503 -0.0970  0.2635
 8094TIP3    H245774   3.168   3.711  12.246 -1.2564 -0.2308 -0.5373
 8095TIP3   OH245775   4.554   4.398   3.421 -0.1693 -0.2856  0.0408
 8095TIP3    H145776   4.495   4.323   3.427 -1.1157  0.2846 -1.7931
 8095TIP3    H245777   4.497   4.474   3.428  0.3457  0.2714 -1.6914
 8096TIP3   OH245778   4.091   3.114  14.639 -0.4905  0.2314 -0.2068
 8096TIP3    H145779   4.166   3.172  14.626  0.2399 -0.2558  1.6305
 8096TIP3    H245780   4.106   3.042  14.577  0.5313  0.1748  0.0899
 8097TIP3   OH245781   6.515   4.931  13.671  0.2404  0.0284 -0.8236
 8097TIP3    H145782   6.535   4.931  13.578 -2.0752 -1.6007 -1.3740
 8097TIP3    H245783   6.424   4.961  13.677 -0.2553 -1.6234  0.7101
 8098TIP3   OH245784   1.008   4.143  12.412  0.0258 -0.8643  1.2336
 8098TIP3    H145785   1.067   4.070  12.393  0.9311 -0.1666  1.3082
 8098TIP3    H245786   0.985   4.132  12.505  2.2056  0.3542  1.9649
 8099TIP3   OH245787   4.119   4.498   3.353  0.3692  0.8456 -0.0364
 8099TIP3    H145788   4.123   4.462   3.441  0.9496 -0.0911 -0.4306
 8099TIP3    H245789   4.032   4.538   3.347  1.1196  2.8333  1.6658
 8100TIP3   OH245790   5.972   4.460  15.650  0.5389 -0.0824 -0.5887
 8100TIP3    H145791   5.879   4.480  15.651  0.0606 -2.1261 -1.3232
 8100TIP3    H245792   5.981   4.385  15.708  1.7091 -0.0109 -0.6718
 8101TIP3   OH245793   2.728   1.880  12.389  0.0869 -0.0909  0.2065
 8101TIP3    H145794   2.717   1.965  12.430 -0.2890  0.2392 -0.5697
 8101TIP3    H245795   2.659   1.825  12.428 -0.8028  0.4517 -0.5934
 8102TIP3   OH245796   5.137   3.702  12.538 -0.2666 -0.5637  0.5368
 8102TIP3    H145797   5.062   3.757  12.561  0.5172  0.0964  1.5841
 8102TIP3    H245798   5.103   3.613  12.539 -1.0845 -0.2560  0.8390
 8103TIP3   OH245799   2.304   2.299  16.538 -0.4231 -0.2671  0.2607
 8103TIP3    H145800   2.275   2.379  16.494  0.3822  0.0750  0.3449
 8103TIP3    H245801   2.312   2.234  16.468  1.3868  0.4200 -0.2153
 8104TIP3   OH245802   0.575   4.011  17.035 -0.3137 -0.5000 -0.1582
 8104TIP3    H145803   0.659   4.012  16.988 -0.9224  0.2560 -1.2200
 8104TIP3    H245804   0.578   4.089  17.091 -0.1700 -0.6589  0.0592
 8105TIP3   OH245805   5.227   3.871   4.130  0.4610  0.2646  0.6266
 8105TIP3    H145806   5.194   3.786   4.103  1.1317 -0.7212  2.8135
 8105TIP3    H245807   5.174   3.934   4.081 -1.5629 -1.3479  0.6830
 8106TIP3   OH245808   0.753   1.574   5.479  0.9924  0.1294 -0.6965
 8106TIP3    H145809   0.671   1.598   5.438  0.1919  0.2249  0.9161
 8106TIP3    H245810   0.818   1.632   5.440  0.4179 -0.3822 -2.4394
 8107TIP3   OH245811   2.550   0.850  11.977 -0.1979 -0.0937 -0.2892
 8107TIP3    H145812   2.478   0.893  12.024 -1.3184 -2.3275  0.1079
 8107TIP3    H245813   2.510   0.817  11.897  1.1244  1.3597 -1.5968
 8108TIP3   OH245814   4.079   1.830   4.694  0.6062  0.4114  0.2191
 8108TIP3    H145815   4.142   1.762   4.668  1.0577  1.0894 -0.4939
 8108TIP3    H245816   4.132   1.898   4.734  0.1724  0.4232  0.7748
 8109TIP3   OH245817   2.000   0.650  14.788  0.2572 -0.2876  0.5712
 8109TIP3    H145818   2.017   0.571  14.737 -0.0821  0.6591 -1.0631
 8109TIP3    H245819   1.957   0.619  14.867 -1.9173 -1.5676 -1.0553
 8110TIP3   OH245820   3.023   4.235  13.472  0.4560  0.2244 -0.4650
 8110TIP3    H145821   3.102   4.289  13.471  0.1430  0.6973  0.3940
 8110TIP3    H245822   2.970   4.270  13.543 -0.7046  0.1579 -1.2837
 8111TIP3   OH245823   1.727   6.028   1.108 -0.7644  0.1042 -0.3491
 8111TIP3    H145824   1.757   6.062   1.192 -1.5809  3.2600 -1.2518
 8111TIP3    H245825   1.643   5.987   1.126 -0.7582  0.4451  0.4480
 8112TIP3   OH245826   4.665   3.902  16.376 -0.2434  0.3239  0.1296
 8112TIP3    H145827   4.619   3.906  16.292 -2.6403 -0.7810  1.3131
 8112TIP3    H245828   4.652   3.989  16.414  1.3214  1.0070 -0.8491
 8113TIP3   OH245829   5.207   4.681   2.892 -0.7612 -0.1176  0.0695
 8113TIP3    H145830   5.143   4.613   2.868  0.7137 -0.5915 -2.7962
 8113TIP3    H245831   5.286   4.632   2.913 -0.4179  0.6132  0.4802
 8114TIP3   OH245832   5.930   3.704   5.916  0.0725 -0.1990  0.2238
 8114TIP3    H145833   5.882   3.699   5.998 -0.5111 -0.1887 -0.1137
 8114TIP3    H245834   5.910   3.622   5.872  1.1028 -0.5910  0.4847
 8115TIP3   OH245835   5.686   5.911  11.619 -0.0364 -0.3821  0.1489
 8115TIP3    H145836   5.685   5.960  11.702  2.9705 -1.9417  1.2104
 8115TIP3    H245837   5.623   5.841  11.632 -1.2114  0.6704  0.2514
 8116TIP3   OH245838   0.150   1.992   2.505 -0.2039  0.2310  0.0301
 8116TIP3    H145839   0.095   1.914   2.504 -0.8230  0.6673 -0.1777
 8116TIP3    H245840   0.232   1.964   2.465  0.1933 -0.7573  1.4668
 8117TIP3   OH245841   4.068   5.090  15.572  0.0502  0.1842 -0.0113
 8117TIP3    H145842   4.006   5.042  15.516  0.2052  0.2870 -0.2693
 8117TIP3    H245843   4.062   5.181  15.541 -0.1999  0.3232  0.4405
 8118TIP3   OH245844   6.264   1.931  12.473 -0.0748 -0.4576  0.6655
 8118TIP3    H145845   6.347   1.888  12.493 -0.0465  0.0940  1.7487
 8118TIP3    H245846   6.202   1.892  12.534 -0.4922 -0.4370  0.2593
 8119TIP3   OH245847   1.015   0.114  14.414 -0.1262 -0.0759 -0.2115
 8119TIP3    H145848   1.008   0.055  14.489 -2.2935 -1.6597 -1.6231
 8119TIP3    H245849   1.092   0.083  14.366  0.8021  0.4572  0.9119
 8120TIP3   OH245850   6.240   6.381   3.176 -0.1784 -0.2560  0.1096
 8120TIP3    H145851   6.258   6.475   3.174 -1.2883 -0.0609 -1.5594
 8120TIP3    H245852   6.146   6.374   3.190 -0.0638 -1.1310  0.4946
 8121TIP3   OH245853   4.737   2.435  15.446 -0.5564  0.5293 -0.5376
 8121TIP3    H145854   4.662   2.412  15.502 -0.5114  1.1910 -0.1985
 8121TIP3    H245855   4.719   2.525  15.418  0.1592  0.7260 -0.3735
 8122TIP3   OH245856   2.172   1.624   6.289 -0.6857 -0.2166  0.2311
 8122TIP3    H145857   2.152   1.717   6.305 -0.3108  0.0397 -0.7543
 8122TIP3    H245858   2.106   1.577   6.339 -2.1858  0.6047 -0.8983
 8123TIP3   OH245859   5.889   0.728  14.896 -0.9572  0.0566  0.6719
 8123TIP3    H145860   5.893   0.715  14.991 -0.0138 -0.5416  0.5633
 8123TIP3    H245861   5.929   0.648  14.860 -0.9573  0.4539 -0.2119
 8124TIP3   OH245862   4.565   5.685  12.294  0.0113  0.4287 -0.7225
 8124TIP3    H145863   4.553   5.768  12.249  1.0232 -0.5715 -2.9321
 8124TIP3    H245864   4.481   5.640  12.284 -0.3820  0.9661  0.0666
 8125TIP3   OH245865   4.072   4.782  13.179 -0.9693 -0.5210  0.5552
 8125TIP3    H145866   4.072   4.865  13.130 -0.7746  0.5125  2.2541
 8125TIP3    H245867   4.004   4.793  13.245  0.2323 -1.0216  1.9130
 8126TIP3   OH245868   6.776   1.928   5.985 -0.2163 -0.6037  0.7048
 8126TIP3    H145869   6.852   1.880   5.954  0.6129  0.6214  0.8197
 8126TIP3    H245870   6.769   1.903   6.078 -0.1090 -0.9179  0.6292
 8127TIP3   OH245871   5.197   3.696  14.465  0.6285  0.0608  0.9543
 8127TIP3    H145872   5.220   3.672  14.555  1.3879  0.0341  0.7565
 8127TIP3    H245873   5.245   3.634  14.411 -0.7520 -0.6906  0.5510
 8128TIP3   OH245874   2.935   6.346   4.253 -0.5271  0.4333  0.3014
 8128TIP3    H145875   2.841   6.345   4.234 -0.8391  2.5156  1.5799
 8128TIP3    H245876   2.958   6.439   4.259  1.7953 -0.0161 -0.7608
 8129TIP3   OH245877   5.082   2.317  12.760 -0.3865  0.4981  0.4166
 8129TIP3    H145878   5.072   2.313  12.665 -3.4554  3.7838  0.5292
 8129TIP3    H245879   5.025   2.248  12.793  0.3951 -0.3969 -0.0480
 8130TIP3   OH245880   3.340   4.443   3.168 -0.7179  0.2700  0.0267
 8130TIP3    H145881   3.410   4.415   3.110 -0.7114  0.9594 -0.3133
 8130TIP3    H245882   3.355   4.537   3.179 -1.4523  0.3755  0.1369
 8131TIP3   OH245883   1.250   4.729   4.349  0.1430 -0.0787 -0.2063
 8131TIP3    H145884   1.305   4.744   4.272 -2.7765 -1.5669 -2.7237
 8131TIP3    H245885   1.267   4.638   4.373 -0.5903 -0.3121 -0.5316
 8132TIP3   OH245886   1.224   3.884   1.504  0.0750 -0.4125 -0.4032
 8132TIP3    H145887   1.288   3.950   1.480 -0.4446 -0.0634 -0.8351
 8132TIP3    H245888   1.256   3.803   1.462  0.6559 -0.4209  0.0483
 8133TIP3   OH245889   0.750   5.316  14.819 -0.2677 -0.0196  0.1942
 8133TIP3    H145890   0.843   5.320  14.796 -0.1765 -0.6106  0.4401
 8133TIP3    H245891   0.711   5.259  14.753 -0.0458 -1.5440  1.3375
 8134TIP3   OH245892   2.167   2.003  15.432  0.4309 -0.1558  0.4934
 8134TIP3    H145893   2.217   2.025  15.352  0.1527 -0.0043  0.3611
 8134TIP3    H245894   2.224   2.032  15.503  0.7446 -0.4217  0.3540
 8135TIP3   OH245895   1.556   6.797  13.523 -0.3739 -0.7215 -0.0891
 8135TIP3    H145896   1.589   6.887  13.520  0.6324 -1.0442  0.7674
 8135TIP3    H245897   1.492   6.797  13.594 -1.6307 -0.2861 -1.2136
 8136TIP3   OH245898   1.656   1.685   5.196 -0.3771  0.4627  0.2324
 8136TIP3    H145899   1.631   1.711   5.285 -1.3363 -1.4403  0.5482
 8136TIP3    H245900   1.606   1.744   5.139 -1.5263  0.1741  0.9295
 8137TIP3   OH245901   3.926   1.593  17.141 -0.1230 -0.7958 -0.2701
 8137TIP3    H145902   3.957   1.668  17.090  2.9645 -0.7311  1.5686
 8137TIP3    H245903   3.940   1.518  17.084  0.9870 -0.4401 -0.4920
 8138TIP3   OH245904   1.645   5.959  16.663 -0.2758 -0.0226 -0.4562
 8138TIP3    H145905   1.661   5.923  16.750 -0.6704 -2.0147 -1.1696
 8138TIP3    H245906   1.593   6.038  16.679  1.7809  1.0248  1.2439
 8139TIP3   OH245907   1.185   4.979   6.160 -0.4769  0.1533  0.0985
 8139TIP3    H145908   1.182   5.043   6.088  0.7326 -0.7874 -0.8143
 8139TIP3    H245909   1.205   5.031   6.237  0.7616  0.8660 -0.6802
 8140TIP3   OH245910   4.100   2.380  15.922 -0.3916 -0.2729 -0.1056
 8140TIP3    H145911   4.011   2.412  15.934  0.2249  1.4977 -0.0111
 8140TIP3    H245912   4.114   2.318  15.993 -1.3073 -0.0261  0.2897
 8141TIP3   OH245913   4.275   3.077   3.643  0.1728 -0.0651  0.7534
 8141TIP3    H145914   4.193   3.081   3.693 -0.6446 -0.5499 -0.4937
 8141TIP3    H245915   4.344   3.085   3.708 -0.8733  0.0924  1.8635
 8142TIP3   OH245916   5.896   6.717  12.507  0.3760 -0.1550  0.4134
 8142TIP3    H145917   5.890   6.807  12.540 -1.8060 -0.1947  0.1517
 8142TIP3    H245918   5.925   6.727  12.416  0.5751  0.2478  0.5193
 8143TIP3   OH245919   1.527   2.700   0.449 -0.0256  0.2149  0.5036
 8143TIP3    H145920   1.574   2.779   0.477  0.8307 -0.8170  2.0745
 8143TIP3    H245921   1.468   2.680   0.522  1.6624 -2.0840  1.2863
 8144TIP3   OH245922   6.402   0.384  12.924 -0.4525 -0.2530 -0.3690
 8144TIP3    H145923   6.335   0.318  12.906 -0.2824 -0.7406  0.7954
 8144TIP3    H245924   6.363   0.466  12.892 -1.0997 -0.7299 -0.8227
 8145TIP3   OH245925   6.312   6.206   2.961 -0.8103 -0.1203 -0.0524
 8145TIP3    H145926   6.302   6.245   2.874  1.3182 -1.6751 -1.0341
 8145TIP3    H245927   6.282   6.274   3.022 -1.0452  1.4842 -1.9305
 8146TIP3   OH245928   3.766   5.107  13.300 -0.0213 -0.5537  0.4486
 8146TIP3    H145929   3.842   5.101  13.357  0.4684  0.5845 -0.0550
 8146TIP3    H245930   3.785   5.182  13.243 -1.5223 -0.2391  0.3370
 8147TIP3   OH245931   2.357   2.130   4.821 -0.1368  0.0112  0.5469
 8147TIP3    H145932   2.440   2.168   4.851 -1.4933  2.1140  1.7704
 8147TIP3    H245933   2.382   2.075   4.747  2.2562  1.2827  0.3429
 8148TIP3   OH245934   4.688   3.538  12.376  0.0949  0.0461  0.7531
 8148TIP3    H145935   4.684   3.463  12.435 -0.7031 -0.3385  0.2253
 8148TIP3    H245936   4.600   3.573  12.376  0.1896  0.2942  0.1159
 8149TIP3   OH245937   3.348   1.164   5.567 -0.0119  0.1372  0.0003
 8149TIP3    H145938   3.303   1.167   5.482  0.2870  1.2236 -0.1299
 8149TIP3    H245939   3.279   1.165   5.632 -0.2375 -0.4581 -0.2333
 8150TIP3   OH245940   3.220   3.749   5.199  0.0183  0.6025 -0.2197
 8150TIP3    H145941   3.280   3.740   5.125 -1.1666 -0.5972 -1.0646
 8150TIP3    H245942   3.276   3.746   5.276  1.0560 -0.4373 -0.9917
 8151TIP3   OH245943   2.729   2.414   1.071  0.2538  0.1585  0.2484
 8151TIP3    H145944   2.796   2.442   1.133  0.8449 -0.0770 -0.2795
 8151TIP3    H245945   2.772   2.346   1.018 -0.1528  0.5519 -0.6008
 8152TIP3   OH245946   4.813   3.133  14.918  0.5668 -0.9927 -0.2947
 8152TIP3    H145947   4.876   3.181  14.972  0.8868 -0.8869 -0.7596
 8152TIP3    H245948   4.841   3.042  14.926  0.9370 -0.9169 -0.7069
 8153TIP3   OH245949   6.651   2.353  14.660 -0.1722 -0.1334 -0.4328
 8153TIP3    H145950   6.645   2.293  14.734 -3.5099  0.4461 -0.1465
 8153TIP3    H245951   6.640   2.297  14.583 -2.4268 -0.0648 -0.2000
 8154TIP3   OH245952   0.874   4.110  13.110  0.1327 -0.5991  0.7238
 8154TIP3    H145953   0.792   4.093  13.064  1.6771 -1.1261 -1.9827
 8154TIP3    H245954   0.915   4.024  13.119  1.1105 -0.1546  0.6008
 8155TIP3   OH245955   1.209   6.462  11.302 -0.5951 -0.4399 -0.6931
 8155TIP3    H145956   1.220   6.556  11.288  0.6556 -0.4679 -0.0164
 8155TIP3    H245957   1.267   6.442  11.375 -2.3785 -1.3938  0.4909
 8156TIP3   OH245958   4.228   5.001   5.342  0.2741  0.1318 -0.1498
 8156TIP3    H145959   4.261   5.082   5.382  0.3418  0.5750 -1.0901
 8156TIP3    H245960   4.152   5.029   5.290 -0.0941 -0.5076  0.0476
 8157TIP3   OH245961   5.940   3.333  13.976 -0.6297 -0.4961  0.0737
 8157TIP3    H145962   6.022   3.335  13.926 -0.8630  0.8977 -0.2784
 8157TIP3    H245963   5.950   3.403  14.041 -2.0749  0.5879 -0.8457
 8158TIP3   OH245964   3.809   0.523   5.524  0.0824  0.1078  0.1800
 8158TIP3    H145965   3.893   0.476   5.527  0.2039  0.1114 -1.9405
 8158TIP3    H245966   3.758   0.487   5.596  1.2540 -1.1963  0.3740
 8159TIP3   OH245967   5.262   5.171  14.504 -0.2663  0.3073 -0.0007
 8159TIP3    H145968   5.193   5.131  14.452 -0.1720  0.4248 -0.2163
 8159TIP3    H245969   5.216   5.219  14.573 -0.3792 -0.1457  0.2397
 8160TIP3   OH245970   2.643   3.042   4.313  0.4659 -0.0400 -0.3526
 8160TIP3    H145971   2.655   2.956   4.352  0.0468 -0.1390 -0.4389
 8160TIP3    H245972   2.731   3.080   4.311  0.3015  0.5381  1.9949
 8161TIP3   OH245973   3.645   3.844  11.245  0.1100 -0.2556 -0.6484
 8161TIP3    H145974   3.679   3.788  11.176  2.0532 -0.4462  0.4434
 8161TIP3    H245975   3.615   3.923  11.200 -3.1359 -2.2949 -2.2686
 8162TIP3   OH245976   5.783   5.251  13.168 -0.1103  0.0173  0.4249
 8162TIP3    H145977   5.770   5.167  13.125 -0.1800 -0.5754  1.5860
 8162TIP3    H245978   5.878   5.262  13.172 -0.1058  0.7569 -1.1571
 8163TIP3   OH245979   3.923   1.510   2.517  0.0245 -0.7800  0.5829
 8163TIP3    H145980   3.946   1.603   2.508 -2.9019  0.0745  1.3844
 8163TIP3    H245981   3.921   1.495   2.611 -0.8328 -1.3011  0.4845
 8164TIP3   OH245982   5.927   6.505   5.829 -0.3674  0.6040  0.1166
 8164TIP3    H145983   5.836   6.475   5.839 -1.3343  2.3730 -2.7648
 8164TIP3    H245984   5.924   6.599   5.845  1.0483  0.6214  0.3698
 8165TIP3   OH245985   2.686   2.130  13.796 -0.0445  0.0868 -0.1882
 8165TIP3    H145986   2.598   2.164  13.778 -0.6618 -0.4331  1.7667
 8165TIP3    H245987   2.680   2.036  13.779 -0.0734 -0.0731  0.7095
 8166TIP3   OH245988   3.103   0.855   2.206 -0.3128  0.0551  0.1905
 8166TIP3    H145989   3.197   0.852   2.224 -0.3089 -1.4456 -0.0497
 8166TIP3    H245990   3.075   0.764   2.208 -1.8787  0.5335  0.8086
 8167TIP3   OH245991   2.208   0.068  12.109 -0.5151 -0.1504 -0.7670
 8167TIP3    H145992   2.193   0.027  12.194  0.5258 -2.3392 -1.6248
 8167TIP3    H245993   2.271   0.138  12.127  0.6910 -1.4374  0.0398
 8168TIP3   OH245994   2.143   1.686   2.965 -0.1674 -0.1302  0.0609
 8168TIP3    H145995   2.165   1.694   3.057  0.4637  1.5078 -0.2072
 8168TIP3    H245996   2.178   1.601   2.938 -0.7712 -0.8143  1.4291
 8169TIP3   OH245997   3.129   3.546   0.623 -0.0910 -0.2895  0.1613
 8169TIP3    H145998   3.145   3.629   0.577 -0.8255  0.2664  0.8861
 8169TIP3    H245999   3.198   3.488   0.593 -0.5943  0.0323 -1.7083
 8170TIP3   OH246000   0.089   5.701  13.313 -0.6178  0.2451 -0.2917
 8170TIP3    H146001   0.088   5.639  13.386 -0.7607  1.4115  0.6997
 8170TIP3    H246002   0.085   5.645  13.235 -1.9179 -0.9571  0.6075
 8171TIP3   OH246003   3.922   1.943  11.021  0.0768  0.2957  0.2821
 8171TIP3    H146004   3.941   1.875  10.956  2.7144  1.8093 -0.5962
 8171TIP3    H246005   3.923   1.896  11.105 -0.5789 -1.1867 -0.5176
 8172TIP3   OH246006   5.555   4.527  13.922  0.7064 -0.3701 -0.3073
 8172TIP3    H146007   5.520   4.610  13.955 -0.6722 -0.1651 -2.1763
 8172TIP3    H246008   5.511   4.460  13.975  1.2856  0.0586  0.7317
 8173TIP3   OH246009   5.922   2.457   3.361  0.4479  0.6709 -0.2645
 8173TIP3    H146010   6.012   2.475   3.334  0.9261 -1.2816 -0.0505
 8173TIP3    H246011   5.870   2.468   3.281  1.0149  0.8348 -0.6113
 8174TIP3   OH246012   2.670   6.060  13.236  0.0204  0.2532 -0.3703
 8174TIP3    H146013   2.581   6.096  13.233 -0.0283  0.0709 -1.2341
 8174TIP3    H246014   2.670   5.991  13.170  0.5859 -0.2535  0.1496
 8175TIP3   OH246015   3.182   5.619  15.069 -0.0031  0.0239  0.5118
 8175TIP3    H146016   3.168   5.586  15.157  2.2806 -0.7314  0.6220
 8175TIP3    H246017   3.129   5.699  15.064  1.8447  1.5128  3.4517
 8176TIP3   OH246018   3.478   0.906  15.169  0.0026  0.1207 -0.7790
 8176TIP3    H146019   3.498   0.834  15.110 -1.1202  0.5578 -1.7237
 8176TIP3    H246020   3.383   0.900  15.183 -0.0564  1.2337 -0.6492
 8177TIP3   OH246021   5.074   0.379  11.518 -0.3899 -0.0668 -0.1638
 8177TIP3    H146022   5.028   0.452  11.560 -0.4965  0.3134 -0.9394
 8177TIP3    H246023   5.011   0.307  11.519 -0.1587 -0.2636  0.9328
 8178TIP3   OH246024   0.009   3.807   3.607 -0.0729  0.3690 -0.3337
 8178TIP3    H146025  -0.077   3.829   3.643  1.4502  0.2208  3.6462
 8178TIP3    H246026   0.049   3.892   3.586 -1.1192  0.4418 -2.0987
 8179TIP3   OH246027   5.487   2.423  15.010  0.4480 -0.2199 -0.2728
 8179TIP3    H146028   5.483   2.335  14.972  1.0495 -0.4655  0.2214
 8179TIP3    H246029   5.557   2.467  14.961  0.1497 -0.0177 -0.5182
 8180TIP3   OH246030   0.216   4.063  16.454  0.2178 -0.4666  0.4170
 8180TIP3    H146031   0.286   4.038  16.393 -0.6710 -0.3827 -0.6655
 8180TIP3    H246032   0.188   3.981  16.494 -0.1214 -0.7041 -0.3036
 8181TIP3   OH246033   0.919   5.805   1.615  0.1796  0.0631 -0.1753
 8181TIP3    H146034   0.836   5.768   1.645  0.4060 -0.3293 -0.0273
 8181TIP3    H246035   0.938   5.874   1.679 -1.0188  1.4978 -1.3230
 8182TIP3   OH246036   3.298   2.755  11.389 -0.2469  0.1131  0.0713
 8182TIP3    H146037   3.319   2.771  11.297 -0.0891 -2.0241 -0.2884
 8182TIP3    H246038   3.203   2.765  11.394 -0.7973 -3.5244 -1.2074
 8183TIP3   OH246039   5.482   6.573   0.242  0.2315 -1.2012  0.4369
 8183TIP3    H146040   5.422   6.629   0.292  0.3184 -1.1946  0.5324
 8183TIP3    H246041   5.426   6.503   0.208  0.0291 -0.7905 -0.0925
 8184TIP3   OH246042   3.544   0.393   1.617 -0.1295  0.1812 -0.0012
 8184TIP3    H146043   3.520   0.455   1.549 -0.0130  2.0766  1.6389
 8184TIP3    H246044   3.639   0.395   1.620  0.0255 -2.2950 -1.9149
 8185TIP3   OH246045   4.569   2.965  11.758  0.8402  0.1317  0.2219
 8185TIP3    H146046   4.545   2.873  11.774  3.6977 -0.9505 -1.3697
 8185TIP3    H246047   4.519   2.988  11.680 -0.2193  0.0803  0.8760
 8186TIP3   OH246048   2.749   6.267   4.899  0.2216 -0.2055 -0.6012
 8186TIP3    H146049   2.711   6.210   4.832 -1.9296  0.1719  0.2710
 8186TIP3    H246050   2.717   6.354   4.876 -1.0119 -0.1564  1.2486
 8187TIP3   OH246051   2.719   2.889   2.158 -0.0032  0.6171 -0.2793
 8187TIP3    H146052   2.735   2.866   2.249  1.2285 -0.9162 -0.8691
 8187TIP3    H246053   2.802   2.924   2.127 -0.0064 -0.1519 -1.1921
 8188TIP3   OH246054   5.511   5.832   3.790 -0.2243  0.4069  0.0340
 8188TIP3    H146055   5.585   5.888   3.768 -0.5376  0.6756 -0.3492
 8188TIP3    H246056   5.507   5.768   3.719  1.5596 -1.5655  1.6455
 8189TIP3   OH246057   0.712   1.956  12.388 -0.4949 -0.0545  0.5752
 8189TIP3    H146058   0.771   2.027  12.413 -0.4712 -0.0065  0.3789
 8189TIP3    H246059   0.677   1.981  12.303  1.2832 -1.3699 -0.5749
 8190TIP3   OH246060   4.577   6.514   2.466 -0.5307 -0.6369  0.4236
 8190TIP3    H146061   4.548   6.516   2.557  0.5854  0.0168  0.7693
 8190TIP3    H246062   4.597   6.605   2.445 -0.1807 -0.8756 -0.2856
 8191TIP3   OH246063   1.163   3.836  11.863 -0.2343 -1.0775 -0.3928
 8191TIP3    H146064   1.244   3.887  11.866 -0.0852 -1.2383 -1.3255
 8191TIP3    H246065   1.187   3.756  11.816 -0.6109 -1.7504  0.5499
 8192TIP3   OH246066   2.889   2.156   2.682 -0.2380 -0.1804 -0.2101
 8192TIP3    H146067   2.977   2.169   2.646 -0.1358 -2.4665 -0.8186
 8192TIP3    H246068   2.904   2.148   2.777  0.0940  0.2398 -0.2195
 8193TIP3   OH246069   6.591   0.270  17.023  0.2820  0.1545 -0.3197
 8193TIP3    H146070   6.498   0.267  17.042 -0.1532  2.1970 -1.9731
 8193TIP3    H246071   6.598   0.319  16.941  2.8112  0.1262 -0.1867
 8194TIP3   OH246072   1.317   4.506  15.485 -0.3960  0.7333  0.2409
 8194TIP3    H146073   1.307   4.511  15.580  1.0789  2.1277  0.3570
 8194TIP3    H246074   1.281   4.421  15.461 -0.3770  0.1781  2.0980
 8195TIP3   OH246075   2.976   1.177   0.982  0.0919 -0.0715 -0.3079
 8195TIP3    H146076   3.034   1.104   1.006  0.2397  0.6572  1.6440
 8195TIP3    H246077   3.014   1.253   1.026  1.0278  1.6202 -3.8450
 8196TIP3   OH246078   1.181   6.391   1.251  0.2201 -0.0821 -0.4224
 8196TIP3    H146079   1.206   6.470   1.205 -2.0871  1.1232  0.3189
 8196TIP3    H246080   1.201   6.409   1.343 -2.9815  0.8475  0.1688
 8197TIP3   OH246081   0.278   1.216   0.244  0.1744  0.1004  0.2223
 8197TIP3    H146082   0.218   1.201   0.317  1.5253 -0.1478  1.3075
 8197TIP3    H246083   0.278   1.133   0.195 -2.3893  0.9696 -1.3482
 8198TIP3   OH246084   2.066   6.633   5.612 -0.5677 -0.0251 -0.3977
 8198TIP3    H146085   2.091   6.605   5.700 -2.0809  2.6564  0.9620
 8198TIP3    H246086   2.147   6.628   5.561  0.3497 -1.5109  1.1525
 8199TIP3   OH246087   3.571   4.845   3.299  0.2065  0.0627  0.3312
 8199TIP3    H146088   3.608   4.862   3.213  1.4751 -0.9526  0.6684
 8199TIP3    H246089   3.573   4.929   3.344  1.3997  0.1718  0.0706
 8200TIP3   OH246090   3.313   2.138   2.954  0.7493  0.0125 -0.7177
 8200TIP3    H146091   3.365   2.092   3.020  1.6456 -1.0916 -2.1582
 8200TIP3    H246092   3.309   2.078   2.880 -2.2526  0.2513 -0.8118
 8201TIP3   OH246093   3.750   5.147  13.866 -0.3540 -0.7347  0.4122
 8201TIP3    H146094   3.804   5.224  13.887 -1.9725  0.7564 -0.7697
 8201TIP3    H246095   3.714   5.166  13.780 -1.3815 -2.5161  0.4364
 8202TIP3   OH246096   1.807   4.331   5.154 -0.1491  0.0766 -0.8476
 8202TIP3    H146097   1.733   4.289   5.110 -0.3979 -1.3694  0.8945
 8202TIP3    H246098   1.768   4.372   5.232  0.8699 -0.6535  0.0625
 8203TIP3   OH246099   3.574   1.142   6.048 -0.1696  0.0897  0.6656
 8203TIP3    H146100   3.638   1.125   6.118 -0.0325 -0.8196  0.3251
 8203TIP3    H246101   3.519   1.063   6.047  1.5051 -1.1236 -2.0700
 8204TIP3   OH246102   1.052   5.005   4.375 -0.1731  0.3481 -0.2265
 8204TIP3    H146103   0.986   5.048   4.429  1.0782  0.5469  1.1950
 8204TIP3    H246104   1.014   4.921   4.352 -0.2498 -0.2697  2.0350
 8205TIP3   OH246105   1.588   4.424  16.909 -0.1375  0.0591 -0.5594
 8205TIP3    H146106   1.674   4.407  16.947  0.1951 -0.3985 -1.5087
 8205TIP3    H246107   1.533   4.449  16.984  0.8834  0.6227  0.0081
 8206TIP3   OH246108   6.489   6.230  16.924  0.7838  0.0021 -0.0787
 8206TIP3    H146109   6.551   6.246  16.854 -1.0948  0.6231 -1.6590
 8206TIP3    H246110   6.458   6.140  16.909  0.1049  0.2664 -0.2689
 8207TIP3   OH246111   1.500   4.084   6.350  0.0825  0.3044 -0.2127
 8207TIP3    H146112   1.407   4.083   6.372  0.1507  0.5410  0.0987
 8207TIP3    H246113   1.534   4.161   6.395  0.3205  0.5316 -0.7731
 8208TIP3   OH246114   0.877   0.760   1.993 -0.3843  0.1386 -0.0144
 8208TIP3    H146115   0.802   0.716   1.953 -0.9745  0.4527  0.7321
 8208TIP3    H246116   0.884   0.722   2.080 -2.4817  3.2727  1.6110
 8209TIP3   OH246117   1.642   5.467  12.474 -1.1801 -0.3383 -0.1555
 8209TIP3    H146118   1.719   5.460  12.530 -0.7703 -0.4763 -0.7294
 8209TIP3    H246119   1.613   5.557  12.483 -0.6728 -0.1597 -0.2994
 8210TIP3   OH246120   2.916   2.793  12.513 -0.3466 -0.3211  0.4624
 8210TIP3    H146121   2.842   2.768  12.569  0.8466 -1.0763  1.7648
 8210TIP3    H246122   2.894   2.757  12.427 -0.1691 -3.1411  1.5339
 8211TIP3   OH246123   2.892   2.988  11.257 -0.4098 -0.0174 -0.0716
 8211TIP3    H146124   2.894   2.904  11.303 -1.8414  0.7130  1.3859
 8211TIP3    H246125   2.823   2.977  11.190 -0.9408  0.1467  0.4434
 8212TIP3   OH246126   2.948   6.786   0.197  0.7749  0.4326  0.4253
 8212TIP3    H146127   3.026   6.736   0.220  1.1751  0.0337 -1.6605
 8212TIP3    H246128   2.929   6.839   0.275  1.8162 -1.0916  1.7405
 8213TIP3   OH246129   0.843   2.909  13.037  0.2425  0.0048  0.1365
 8213TIP3    H146130   0.845   2.862  13.120 -0.2090 -0.2812 -0.0132
 8213TIP3    H246131   0.795   2.852  12.978 -0.2807  0.6407 -0.0577
 8214TIP3   OH246132   1.903   0.064   1.498  0.3165 -0.4043 -0.1975
 8214TIP3    H146133   1.901  -0.005   1.564  2.3417  0.3656  0.6932
 8214TIP3    H246134   1.907   0.146   1.548  2.7363  0.1478 -1.2313
 8215TIP3   OH246135   6.201   1.456  16.280  0.0790  0.3262  0.3805
 8215TIP3    H146136   6.113   1.474  16.248  1.1252  2.5983 -1.3166
 8215TIP3    H246137   6.224   1.370  16.243  0.0558  1.4832 -2.3944
 8216TIP3   OH246138   3.695   5.406   2.216 -0.0873 -0.1959  0.3208
 8216TIP3    H146139   3.773   5.403   2.271  0.8058 -0.5724 -0.9430
 8216TIP3    H246140   3.646   5.328   2.239 -0.0840  0.0318  1.1116
 8217TIP3   OH246141   1.478   4.752  12.838 -0.3961 -0.5474  0.3337
 8217TIP3    H146142   1.427   4.672  12.821  0.7454 -0.9981 -1.1067
 8217TIP3    H246143   1.569   4.723  12.836 -0.0038  0.6295  0.7967
 8218TIP3   OH246144   3.242   2.324  15.188 -0.2748  0.2427 -0.4360
 8218TIP3    H146145   3.234   2.373  15.106 -0.7036  1.3403  0.2438
 8218TIP3    H246146   3.321   2.358  15.230 -1.3847  1.4463  0.7355
 8219TIP3   OH246147   4.463   4.405  16.679  0.1869 -0.8125  0.5039
 8219TIP3    H146148   4.395   4.435  16.739 -1.7999 -3.6897 -0.2103
 8219TIP3    H246149   4.440   4.448  16.596  1.4250  1.1023  1.1131
 8220TIP3   OH246150   6.688   2.063   3.709 -0.2571 -0.3725 -0.1628
 8220TIP3    H146151   6.755   2.125   3.680 -1.6154  1.2376  0.0623
 8220TIP3    H246152   6.738   1.988   3.741  1.5138  1.2666  1.0863
 8221TIP3   OH246153   4.275   2.371  12.127 -0.2104 -0.5214  0.0744
 8221TIP3    H146154   4.251   2.397  12.215 -0.9504 -1.4279  0.1455
 8221TIP3    H246155   4.261   2.276  12.124  0.4704 -0.6140 -0.8035
 8222TIP3   OH246156   4.660   2.061  15.422 -0.5079 -0.2686 -0.1049
 8222TIP3    H146157   4.684   1.978  15.380 -0.4241  0.1466 -0.9005
 8222TIP3    H246158   4.724   2.073  15.492 -1.5806 -1.7460  1.1711
 8223TIP3   OH246159   6.190   3.105  12.989 -0.7312  0.0732 -0.1508
 8223TIP3    H146160   6.158   3.043  12.924 -1.7089  1.2888 -0.8503
 8223TIP3    H246161   6.145   3.080  13.070 -1.8643  0.4441 -0.6486
 8224TIP3   OH246162   5.578   2.149   1.776 -0.0434  0.2590  0.3168
 8224TIP3    H146163   5.616   2.234   1.752  0.0754 -0.3798 -1.8652
 8224TIP3    H246164   5.649   2.086   1.760 -0.8105 -0.5026 -0.1083
 8225TIP3   OH246165   5.387   4.759  11.049 -0.1606 -0.1671 -0.3854
 8225TIP3    H146166   5.364   4.690  11.111 -0.7752  0.2053 -0.1890
 8225TIP3    H246167   5.382   4.840  11.100 -0.7288  0.1467 -0.9293
 8226TIP3   OH246168   4.671   3.748  11.937  0.4154 -0.5249 -0.3450
 8226TIP3    H146169   4.670   3.671  11.994 -0.3286 -0.0559  0.2918
 8226TIP3    H246170   4.596   3.736  11.879 -0.2520  0.1642  0.3663
 8227TIP3   OH246171   4.232   3.533  13.841 -0.4065 -0.0096  0.0571
 8227TIP3    H146172   4.206   3.478  13.767  1.4703  0.3698 -0.9080
 8227TIP3    H246173   4.183   3.614  13.828 -3.1580 -1.3712  1.4635
 8228TIP3   OH246174   1.996   6.156   0.251 -0.3907 -0.2856  0.1543
 8228TIP3    H146175   2.000   6.094   0.178  1.6929 -2.4753  2.0254
 8228TIP3    H246176   2.039   6.235   0.218  1.2299 -1.5204 -0.7891
 8229TIP3   OH246177   1.059   4.617   3.005  0.1032 -0.1812 -0.1333
 8229TIP3    H146178   0.980   4.669   2.992 -0.4321 -0.7046  0.9833
 8229TIP3    H246179   1.088   4.639   3.094  0.8210 -0.5239 -0.2750
 8230TIP3   OH246180   1.633   4.812   1.165 -0.4035  0.0322 -0.3562
 8230TIP3    H146181   1.678   4.753   1.103 -0.0785 -1.0117  0.8381
 8230TIP3    H246182   1.703   4.846   1.220 -0.6493  1.2397 -0.7699
 8231TIP3   OH246183   1.934   3.962   3.395  0.0062  0.1193  0.0179
 8231TIP3    H146184   1.865   3.970   3.330  1.0221 -1.3316 -1.2600
 8231TIP3    H246185   1.887   3.955   3.479 -1.6536 -4.8081 -1.1318
 8232TIP3   OH246186   5.637   6.069  10.728  0.1569  0.4315  0.0919
 8232TIP3    H146187   5.630   6.062  10.633  0.8184 -1.3977  0.1590
 8232TIP3    H246188   5.561   6.022  10.762  0.7362 -0.2453  0.4746
 8233TIP3   OH246189   3.248   1.228   5.093  0.2655 -0.5779  0.6692
 8233TIP3    H146190   3.295   1.218   5.175  1.0967 -0.5704  0.2004
 8233TIP3    H246191   3.306   1.188   5.028 -0.1073 -0.0413  0.0023
 8234TIP3   OH246192   1.530   0.868  11.869  0.1261  0.1942  0.2714
 8234TIP3    H146193   1.609   0.921  11.877  0.5531 -0.2437 -1.0051
 8234TIP3    H246194   1.471   0.903  11.936  0.7747  1.6144  0.1114
 8235TIP3   OH246195   3.906   2.343   4.268  0.0511 -1.1905  0.3993
 8235TIP3    H146196   3.929   2.356   4.176 -0.3034 -1.4113  0.2802
 8235TIP3    H246197   3.811   2.353   4.271  0.1059 -0.8006  0.8068
 8236TIP3   OH246198   2.174   1.877  14.394  0.3475 -0.1500  0.0622
 8236TIP3    H146199   2.235   1.841  14.329 -0.6827  1.8968 -2.1123
 8236TIP3    H246200   2.218   1.953  14.430 -0.5907  0.9114 -0.9895
 8237TIP3   OH246201   0.591   2.847  15.148 -0.4329  0.4339 -0.0369
 8237TIP3    H146202   0.675   2.888  15.133 -0.7324  1.3463  0.7346
 8237TIP3    H246203   0.574   2.795  15.069  1.0064 -0.0469 -0.0376
 8238TIP3   OH246204   2.017   3.260   0.934  0.2141  0.7059 -0.2306
 8238TIP3    H146205   1.984   3.318   1.003 -1.2612 -0.9245  0.4922
 8238TIP3    H246206   1.940   3.211   0.906  1.0279  0.5876 -2.3036
 8239TIP3   OH246207   2.604   0.862   2.681 -0.3196 -0.1932 -0.0088
 8239TIP3    H146208   2.562   0.879   2.597 -1.0779  0.1656  0.4418
 8239TIP3    H246209   2.679   0.922   2.683 -1.1290  0.8154  0.1884
 8240TIP3   OH246210   3.121   3.137  10.910  0.5215 -0.7228 -0.0222
 8240TIP3    H146211   3.214   3.116  10.909  1.0964  1.7169 -0.2402
 8240TIP3    H246212   3.099   3.154  10.818  0.6418  1.7828  0.3604
 8241TIP3   OH246213   5.973   4.768   4.960 -0.0353 -0.1311  0.3718
 8241TIP3    H146214   5.977   4.703   5.031  0.2946  0.7294  1.1588
 8241TIP3    H246215   5.888   4.754   4.919 -0.8038  0.2546  1.8067
 8242TIP3   OH246216   4.315   1.694  13.231 -0.0424  0.1154 -0.3082
 8242TIP3    H146217   4.281   1.612  13.196  1.8623 -1.0281  0.4065
 8242TIP3    H246218   4.410   1.680  13.236  0.0720  1.4797  2.0705
 8243TIP3   OH246219   5.642   1.030  17.252 -0.2866 -0.0434  0.3532
 8243TIP3    H146220   5.614   0.967  17.319  0.5019 -0.5042  0.2515
 8243TIP3    H246221   5.702   0.980  17.196  0.0776  0.7084  0.0799
 8244TIP3   OH246222   1.403   1.725   5.809 -0.1867 -0.6515  0.2523
 8244TIP3    H146223   1.493   1.707   5.835 -0.0049 -0.8801 -0.5056
 8244TIP3    H246224   1.412   1.773   5.726 -0.7576 -0.4921  0.2806
 8245TIP3   OH246225   1.053   5.752   6.456  0.5177  0.5306  0.3812
 8245TIP3    H146226   1.039   5.789   6.543  0.0118  0.6847  0.2368
 8245TIP3    H246227   0.972   5.704   6.438  1.7974 -2.1015  1.2870
 8246TIP3   OH246228   5.159   0.846  14.965  0.0527 -0.2985 -0.1290
 8246TIP3    H146229   5.138   0.891  15.047  1.6810  0.1293  0.0659
 8246TIP3    H246230   5.153   0.753  14.986  2.7993 -0.2237  1.1167
 8247TIP3   OH246231   2.231   4.509  14.965  0.6294  0.6464  0.1716
 8247TIP3    H146232   2.257   4.426  15.005 -1.6427  0.0190  0.3989
 8247TIP3    H246233   2.313   4.555  14.951  1.6954 -0.3087  2.9462
 8248TIP3   OH246234   0.601   0.434   1.098 -0.3303 -0.2005  0.3534
 8248TIP3    H146235   0.652   0.490   1.156 -0.7387 -0.0760  0.5903
 8248TIP3    H246236   0.592   0.352   1.146  0.9964 -0.7799 -0.3395
 8249TIP3   OH246237   6.454   1.797   4.781 -0.1117  0.8201 -0.2791
 8249TIP3    H146238   6.530   1.825   4.833  0.3053 -0.7122 -0.0411
 8249TIP3    H246239   6.486   1.794   4.691 -0.7084  3.0228 -0.5947
 8250TIP3   OH246240   1.519   2.381   2.027 -0.2367  0.4156  0.1410
 8250TIP3    H146241   1.610   2.351   2.023 -0.1972  0.3883  1.0613
 8250TIP3    H246242   1.516   2.436   2.105 -1.1303  0.0134  0.3945
 8251TIP3   OH246243   3.371   0.050  14.893 -0.4685 -0.8084 -0.0698
 8251TIP3    H146244   3.421  -0.016  14.941  0.8806  0.9065  0.9672
 8251TIP3    H246245   3.357   0.121  14.956 -0.1705  0.7400 -1.6879
 8252TIP3   OH246246   6.746   3.555   0.734 -0.2190  0.3942  0.3993
 8252TIP3    H146247   6.713   3.465   0.739  2.7188 -0.7685 -0.5366
 8252TIP3    H246248   6.704   3.599   0.808 -1.3517 -1.8538  1.1526
 8253TIP3   OH246249   3.877   3.526  13.838 -0.8465 -0.0433 -0.0874
 8253TIP3    H146250   3.900   3.527  13.745  0.3349  0.6366  0.1968
 8253TIP3    H246251   3.920   3.449  13.873 -0.4795  0.2372  0.0852
 8254TIP3   OH246252   2.694   5.864  16.991 -0.1143  0.1381 -0.5557
 8254TIP3    H146253   2.689   5.820  16.906 -0.3294  0.4657 -0.7139
 8254TIP3    H246254   2.782   5.902  16.994 -0.0364 -0.0426 -0.5458
 8255TIP3   OH246255   6.743   0.546  14.374 -0.1031  0.6436 -0.2441
 8255TIP3    H146256   6.673   0.484  14.356 -0.2512  0.8165 -0.2707
 8255TIP3    H246257   6.765   0.531  14.466  0.1623  0.2531 -0.3732
 8256TIP3   OH246258   2.548   1.507   4.493  0.6876  0.3887 -0.3476
 8256TIP3    H146259   2.559   1.602   4.489  1.2365  0.3706  0.4673
 8256TIP3    H246260   2.637   1.472   4.485  1.0015  0.1114  3.3626
 8257TIP3   OH246261   3.488   5.538   2.071 -0.0755 -0.3519 -0.4328
 8257TIP3    H146262   3.547   5.502   2.137 -0.8938  0.2206  0.6423
 8257TIP3    H246263   3.502   5.633   2.076 -1.1872 -0.2011 -0.0537
 8258TIP3   OH246264   4.171   4.604  14.571 -0.2500 -0.1383  0.0599
 8258TIP3    H146265   4.077   4.604  14.551 -0.4051 -0.3348  0.7696
 8258TIP3    H246266   4.177   4.642  14.658  0.3513  0.0532 -0.0634
 8259TIP3   OH246267   1.674   6.058  15.804 -0.3643  0.8082 -0.1192
 8259TIP3    H146268   1.644   6.081  15.892 -2.5981 -0.8272 -0.3959
 8259TIP3    H246269   1.623   5.980  15.781  1.3065  0.2925 -2.2574
 8260TIP3   OH246270   2.633   5.313   5.546  0.3396  0.1508 -0.5736
 8260TIP3    H146271   2.559   5.365   5.514 -0.4465 -0.7090 -0.1780
 8260TIP3    H246272   2.596   5.226   5.562  1.8588 -0.8364 -2.2211
 8261TIP3   OH246273   6.310   6.192   0.287  0.0133  0.0029 -0.3079
 8261TIP3    H146274   6.269   6.216   0.370 -0.0590 -1.4479  0.0819
 8261TIP3    H246275   6.239   6.157   0.234  0.4485 -1.0737 -0.1922
 8262TIP3   OH246276   2.866   3.604   1.669 -0.1836 -0.0100  0.9154
 8262TIP3    H146277   2.832   3.517   1.685  1.5856 -0.8077  0.4713
 8262TIP3    H246278   2.822   3.633   1.589 -0.5341 -0.6209  0.8844
 8263TIP3   OH246279   2.932   0.580  16.379  0.1313  0.0724 -0.5581
 8263TIP3    H146280   3.014   0.552  16.420  0.9674 -0.1545 -2.3312
 8263TIP3    H246281   2.947   0.672  16.355  0.1754 -0.2112 -1.6348
 8264TIP3   OH246282   0.775   6.471  17.218  0.1552 -0.0504  0.1637
 8264TIP3    H146283   0.778   6.465  17.314 -1.3019  1.9255  0.3841
 8264TIP3    H246284   0.770   6.565  17.200  1.4884 -0.3392 -1.9201
 8265TIP3   OH246285   5.372   6.469  13.654 -0.5650 -0.2174 -0.0394
 8265TIP3    H146286   5.345   6.401  13.593  0.8840 -0.9069  0.0743
 8265TIP3    H246287   5.421   6.531  13.601 -1.4902  0.5170 -0.0545
 8266TIP3   OH246288   3.869   1.622   3.722 -0.0999  0.3178  0.4516
 8266TIP3    H146289   3.880   1.684   3.651 -1.6950  1.2860  1.0395
 8266TIP3    H246290   3.932   1.651   3.789  1.1391 -0.3808 -0.3896
 8267TIP3   OH246291   1.473   2.710  11.000 -0.0900  0.3745  0.1390
 8267TIP3    H146292   1.550   2.671  10.960 -0.7003  0.0148 -0.7110
 8267TIP3    H246293   1.467   2.669  11.087  0.2191 -0.2001 -0.1052
 8268TIP3   OH246294   4.896   1.965  11.201  0.4069  0.2677 -0.0676
 8268TIP3    H146295   4.816   2.016  11.210  1.1721  0.9676  3.2554
 8268TIP3    H246296   4.880   1.886  11.252  1.2949 -0.3068 -0.6611
 8269TIP3   OH246297   5.194   4.407  15.906 -0.1329  0.1931  0.2623
 8269TIP3    H146298   5.265   4.439  15.851  0.2449  1.4523  1.4533
 8269TIP3    H246299   5.204   4.312  15.905 -0.3839  0.1625 -2.1394
 8270TIP3   OH246300   2.997   6.573  14.532 -0.6060 -0.6434 -0.0230
 8270TIP3    H146301   3.087   6.606  14.530  0.1999 -2.6742  0.6902
 8270TIP3    H246302   2.990   6.519  14.454 -0.8725 -1.2958  0.4476
 8271TIP3   OH246303   2.875   4.598   2.367  0.1969  0.0723 -0.1504
 8271TIP3    H146304   2.858   4.601   2.273 -3.0182  1.5096  0.4074
 8271TIP3    H246305   2.840   4.513   2.395  1.6810 -0.6074 -0.3229
 8272TIP3   OH246306   2.874   4.279   5.745  0.2758  0.0248  0.7777
 8272TIP3    H146307   2.850   4.204   5.799 -1.4819  0.8705  1.2052
 8272TIP3    H246308   2.837   4.260   5.659  0.0385  0.2734  0.8225
 8273TIP3   OH246309   5.534   6.396   6.186 -0.0250  0.2018  0.1379
 8273TIP3    H146310   5.601   6.331   6.206 -1.0661 -0.7705  0.5191
 8273TIP3    H246311   5.554   6.470   6.243 -0.2657 -0.7569  1.4899
 8274TIP3   OH246312   1.981   5.446  12.136  0.1088 -0.5887  0.3248
 8274TIP3    H146313   1.994   5.384  12.207 -0.4163 -0.0137  0.9292
 8274TIP3    H246314   1.979   5.532  12.179  0.0550 -0.2169 -0.4075
 8275TIP3   OH246315   3.454   3.760   3.894  0.0971  0.2785  0.2526
 8275TIP3    H146316   3.443   3.672   3.859  0.3890  0.5815 -0.6214
 8275TIP3    H246317   3.538   3.790   3.859 -0.1204  1.0015  0.3271
 8276TIP3   OH246318   0.132   6.509   5.201  0.1640  0.5320  0.7944
 8276TIP3    H146319   0.146   6.603   5.210 -0.5268  0.6698  0.4508
 8276TIP3    H246320   0.055   6.501   5.145  1.3759 -0.2571 -0.7862
 8277TIP3   OH246321   4.875   3.186  12.423 -0.2591  0.2654  0.7867
 8277TIP3    H146322   4.949   3.242  12.444  0.3004  0.6296 -1.8941
 8277TIP3    H246323   4.799   3.244  12.425 -0.1750  0.3520  1.4622
 8278TIP3   OH246324   4.560   2.059   3.820  0.1419  0.1896  0.2462
 8278TIP3    H146325   4.649   2.030   3.840 -0.3559 -2.2922 -0.8825
 8278TIP3    H246326   4.572   2.140   3.770  1.7819 -0.1520  0.0412
 8279TIP3   OH246327   2.114   1.764  16.718  0.5598  0.5337 -0.1141
 8279TIP3    H146328   2.148   1.762  16.808 -1.7085 -1.4698  0.7609
 8279TIP3    H246329   2.034   1.815  16.724 -0.7035 -1.3395 -0.5529
 8280TIP3   OH246330   1.836   1.515   1.526 -0.2487  0.1441  0.6051
 8280TIP3    H146331   1.751   1.557   1.535 -0.6096 -0.3678 -0.3328
 8280TIP3    H246332   1.821   1.443   1.465  1.1670  0.9863 -0.7970
 8281TIP3   OH246333   1.262   0.310   0.910 -0.1964 -0.1967 -0.4137
 8281TIP3    H146334   1.178   0.266   0.905 -0.6214  0.8131 -2.7069
 8281TIP3    H246335   1.251   0.376   0.978 -1.2337 -0.1420 -0.6344
 8282TIP3   OH246336   2.488   4.953  13.627 -0.1351  0.2093  0.0163
 8282TIP3    H146337   2.499   4.994  13.713  0.5114 -0.2203  0.1366
 8282TIP3    H246338   2.577   4.936  13.596 -0.3407  1.1781 -1.1377
 8283TIP3   OH246339   5.270   5.656   4.668 -0.3245 -0.1778 -0.4568
 8283TIP3    H146340   5.366   5.652   4.659 -0.3579  0.2244 -1.0331
 8283TIP3    H246341   5.247   5.743   4.634 -0.7669  0.2084  0.8314
 8284TIP3   OH246342   1.237   0.606  11.614  0.3974  0.2488 -0.4975
 8284TIP3    H146343   1.329   0.632  11.617  0.0901  1.1968  3.0786
 8284TIP3    H246344   1.189   0.687  11.628 -0.8564 -0.7337  1.0298
 8285TIP3   OH246345   1.736   4.559   2.129 -0.4830 -0.5110 -0.0942
 8285TIP3    H146346   1.741   4.631   2.066 -0.8895 -0.3522  0.0549
 8285TIP3    H246347   1.825   4.551   2.163 -0.1119 -1.0273 -1.1672
 8286TIP3   OH246348   1.447   4.201   3.357 -0.0584  0.2319  0.3510
 8286TIP3    H146349   1.494   4.256   3.294  0.6537  0.7535  1.3226
 8286TIP3    H246350   1.456   4.112   3.321 -3.1238  0.9448 -2.3986
 8287TIP3   OH246351   0.695   3.021   6.454 -0.9111  0.0369  0.1980
 8287TIP3    H146352   0.654   2.940   6.485 -0.6599  0.5716  1.9667
 8287TIP3    H246353   0.758   3.044   6.522  0.2993  0.7773 -1.1386
 8288TIP3   OH246354   2.937   2.646  10.577 -0.6565 -0.1772  0.1924
 8288TIP3    H146355   2.858   2.688  10.543  0.0215  0.5571 -0.5120
 8288TIP3    H246356   2.976   2.603  10.500  0.5949  1.0210  0.1238
 8289TIP3   OH246357   3.122   4.325   0.913  0.3671 -0.4804  0.1646
 8289TIP3    H146358   3.154   4.313   0.823  1.1145 -1.8556  0.5992
 8289TIP3    H246359   3.034   4.289   0.912  0.3444 -0.4223 -0.0283
 8290TIP3   OH246360   1.412   1.544   3.458 -0.0235  0.5219 -0.1084
 8290TIP3    H146361   1.406   1.454   3.490  0.8902  0.4625 -0.0899
 8290TIP3    H246362   1.355   1.546   3.381  0.2237 -0.1658 -0.3146
 8291TIP3   OH246363   6.517   5.693   0.474  0.1589  0.4270  0.3041
 8291TIP3    H146364   6.592   5.685   0.415  0.1945  1.6322  0.1786
 8291TIP3    H246365   6.491   5.603   0.493 -1.2450  0.0022 -3.3042
 8292TIP3   OH246366   1.774   0.980  16.585  0.2663 -0.2601  0.6474
 8292TIP3    H146367   1.801   0.893  16.558 -0.5827 -0.2825 -0.1466
 8292TIP3    H246368   1.855   1.032  16.585  0.4428 -0.5322 -0.8857
 8293TIP3   OH246369   3.601   2.244   2.291  0.4228 -0.1978  0.6265
 8293TIP3    H146370   3.590   2.339   2.284 -2.3195 -0.5692 -0.4724
 8293TIP3    H246371   3.532   2.207   2.237  0.4385 -2.8543  2.3258
 8294TIP3   OH246372   4.213   6.616   5.455 -0.1258 -0.3066 -0.2538
 8294TIP3    H146373   4.247   6.537   5.413 -0.1005 -1.1646  1.3462
 8294TIP3    H246374   4.265   6.625   5.535  0.1020  1.5277 -0.5874
 8295TIP3   OH246375   2.539   4.482   4.450 -0.1024  0.2577 -1.2377
 8295TIP3    H146376   2.548   4.559   4.394  2.5985  1.6180  0.9243
 8295TIP3    H246377   2.533   4.518   4.539  0.4276 -2.0180 -0.2444
 8296TIP3   OH246378   0.624   2.471   4.510 -0.9646 -0.0666  0.3009
 8296TIP3    H146379   0.671   2.541   4.556 -0.1122  0.2388 -1.0054
 8296TIP3    H246380   0.581   2.516   4.437 -2.4407 -0.5145  0.8782
 8297TIP3   OH246381   1.522   6.300  12.579  0.5029 -0.2608  0.2605
 8297TIP3    H146382   1.537   6.387  12.541  0.5038 -0.5603 -0.4313
 8297TIP3    H246383   1.596   6.248  12.547  0.9090 -0.3206  1.2938
 8298TIP3   OH246384   3.399   0.680   4.563  0.1545 -0.5825  0.2801
 8298TIP3    H146385   3.407   0.683   4.658 -0.9248  1.3758  0.3420
 8298TIP3    H246386   3.435   0.764   4.533 -2.2467  0.1237 -0.7861
 8299TIP3   OH246387   4.674   1.588  11.231  0.2750 -0.4662  0.4510
 8299TIP3    H146388   4.758   1.573  11.274  0.4842 -0.3930  0.0744
 8299TIP3    H246389   4.628   1.504  11.239  0.3974 -0.5154  0.6338
 8300TIP3   OH246390   1.850   1.984   3.569  0.2331 -0.4228  0.5536
 8300TIP3    H146391   1.794   1.947   3.500 -2.3733 -0.9821  2.9068
 8300TIP3    H246392   1.860   1.914   3.632  0.9031  0.7360  1.7515
 8301TIP3   OH246393   6.683   6.704  10.570  0.5146 -0.1135  0.6420
 8301TIP3    H146394   6.737   6.626  10.572 -2.0105 -1.9768 -1.4134
 8301TIP3    H246395   6.601   6.678  10.613 -0.7395  1.0908 -0.9558
 8302TIP3   OH246396   4.355   4.983   4.676 -0.4871 -0.4375  0.0188
 8302TIP3    H146397   4.336   5.072   4.647 -0.0683 -0.4312 -0.2306
 8302TIP3    H246398   4.449   4.984   4.696 -0.6409 -0.6001  0.7981
 8303TIP3   OH246399   5.824   4.816   6.082  0.1094 -0.4519 -0.2665
 8303TIP3    H146400   5.819   4.742   6.142  1.6882 -0.2305  0.1527
 8303TIP3    H246401   5.820   4.893   6.140  0.9380 -0.2331 -0.5042
 8304TIP3   OH246402   2.566   2.945  11.354  0.0028 -0.8880  0.3592
 8304TIP3    H146403   2.550   2.978  11.266  1.7112  0.7163  0.6094
 8304TIP3    H246404   2.569   2.850  11.345  0.4527 -0.7211 -1.3717
 8305TIP3   OH246405   3.741   6.423  14.277 -0.3029  0.5334 -0.0264
 8305TIP3    H146406   3.786   6.455  14.199 -1.0261  1.2548 -0.1468
 8305TIP3    H246407   3.666   6.374  14.243  0.4591 -0.8017  0.1734
 8306TIP3   OH246408   0.401   4.757  14.900  0.2796 -0.0615  0.2689
 8306TIP3    H146409   0.453   4.763  14.980 -0.3195 -0.9003  0.7355
 8306TIP3    H246410   0.439   4.823  14.842  1.2482 -0.0094  0.9395
 8307TIP3   OH246411   1.194   4.250   3.025 -0.4840  0.1752  0.8157
 8307TIP3    H146412   1.136   4.300   3.082  0.9189  1.8221  0.8570
 8307TIP3    H246413   1.281   4.262   3.063  0.4467  1.1236 -1.4784
 8308TIP3   OH246414   1.339   0.182   0.128 -0.2779  0.2472  0.3628
 8308TIP3    H146415   1.335   0.211   0.037  0.8417  0.4253  0.3650
 8308TIP3    H246416   1.302   0.094   0.127 -0.6686  0.4162 -0.1884
 8309TIP3   OH246417   1.291   2.252   3.785  0.4159  0.0734  0.3764
 8309TIP3    H146418   1.299   2.158   3.767  0.4683  0.1286  0.1082
 8309TIP3    H246419   1.262   2.257   3.876 -1.6419 -0.2572 -0.2290
 8310TIP3   OH246420   0.677   1.991   4.451 -0.4701  0.0860 -0.0491
 8310TIP3    H146421   0.769   2.014   4.443 -0.3805 -0.5694 -0.9436
 8310TIP3    H246422   0.667   1.962   4.542  0.4882 -1.0293 -0.2818
 8311TIP3   OH246423   5.854   5.560   1.342 -0.0625 -0.1735  0.3630
 8311TIP3    H146424   5.816   5.605   1.266  0.4825  3.0404  1.8820
 8311TIP3    H246425   5.949   5.572   1.332  0.1919 -2.1680  0.1530
 8312TIP3   OH246426   4.963   2.570  16.808 -0.4415 -0.4550 -0.2010
 8312TIP3    H146427   4.881   2.612  16.832 -1.1468 -0.6949 -2.0654
 8312TIP3    H246428   4.959   2.484  16.848 -1.0346 -0.3968 -0.1347
 8313TIP3   OH246429   2.731   5.107  12.416  0.2407  0.1633  0.0609
 8313TIP3    H146430   2.758   5.139  12.330 -0.3332  1.7961  0.4806
 8313TIP3    H246431   2.669   5.172  12.448  0.8522 -0.1572  1.9500
 8314TIP3   OH246432   5.415   2.893   2.920  0.5513  0.1829 -0.1774
 8314TIP3    H146433   5.473   2.838   2.867 -0.0033  0.7964 -1.4432
 8314TIP3    H246434   5.457   2.979   2.920  0.2304  0.3400 -0.1499
 8315TIP3   OH246435   3.273   5.530   4.863 -0.6994 -0.2920 -0.3623
 8315TIP3    H146436   3.188   5.510   4.902 -1.1542  0.2800 -1.0401
 8315TIP3    H246437   3.262   5.618   4.826  0.1543 -0.2609 -0.5436
 8316TIP3   OH246438   5.202   2.703  15.293  0.4137 -0.5823  0.0019
 8316TIP3    H146439   5.270   2.636  15.289  0.5011 -0.4086 -2.5265
 8316TIP3    H246440   5.121   2.657  15.270  0.4657  0.1298 -1.7000
 8317TIP3   OH246441   0.404   5.476  16.460  0.0584  0.1840  0.7193
 8317TIP3    H146442   0.397   5.403  16.523  0.7704  0.6032  1.3024
 8317TIP3    H246443   0.477   5.528  16.494  0.4285  0.4272 -0.4554
 8318TIP3   OH246444   0.585   6.026  15.398 -0.3262 -0.1642  0.0016
 8318TIP3    H146445   0.543   6.103  15.361 -3.1598 -1.0138  1.3381
 8318TIP3    H246446   0.619   6.056  15.482  2.4842  0.6990 -1.3684
 8319TIP3   OH246447   4.894   5.679  16.892  0.4120 -0.0244 -0.4216
 8319TIP3    H146448   4.894   5.765  16.852  0.8981  0.0774 -0.2066
 8319TIP3    H246449   4.888   5.618  16.819 -0.5522  0.2014 -0.5357
 8320TIP3   OH246450   4.081   4.295   5.710  0.6457 -0.1238 -0.0620
 8320TIP3    H146451   4.034   4.271   5.790 -2.1443 -1.4715 -2.0209
 8320TIP3    H246452   4.053   4.384   5.691  2.3865  0.7226  1.1474
 8321TIP3   OH246453   1.009   0.552  12.510  0.3087  0.3217 -0.5700
 8321TIP3    H146454   1.031   0.616  12.443  0.3959 -1.2586 -2.0734
 8321TIP3    H246455   0.916   0.534  12.496  0.4545 -0.4046 -0.5846
 8322TIP3   OH246456   3.642   4.672   0.761  0.0204 -0.4772 -0.3701
 8322TIP3    H146457   3.658   4.646   0.670  2.6773 -1.1002  0.2201
 8322TIP3    H246458   3.700   4.747   0.775  2.8136 -2.9403  1.9701
 8323TIP3   OH246459   5.672   6.672  15.201  0.2369  0.4930  0.4303
 8323TIP3    H146460   5.757   6.706  15.229  2.2049 -2.9712 -1.1182
 8323TIP3    H246461   5.660   6.593  15.252 -0.7247 -0.5761 -1.4061
 8324TIP3   OH246462   0.160   0.577   0.438  0.2842  0.2431 -0.8711
 8324TIP3    H146463   0.130   0.602   0.351  0.8069 -0.7985 -1.3561
 8324TIP3    H246464   0.255   0.595   0.436  0.1476  1.0822 -0.2075
 8325TIP3   OH246465   3.677   2.786   3.658  0.1864  0.3061  0.3742
 8325TIP3    H146466   3.730   2.763   3.735 -0.9154  2.1252  1.7418
 8325TIP3    H246467   3.614   2.715   3.650  1.1327 -0.5359  0.3776
 8326TIP3   OH246468   1.706   0.491  16.297  0.1528 -0.5148 -0.1112
 8326TIP3    H146469   1.736   0.462  16.211  0.5937  2.4495 -1.0047
 8326TIP3    H246470   1.617   0.455  16.305  0.1353 -0.8716 -1.7639
 8327TIP3   OH246471   0.958   1.429  14.706 -0.1063 -0.0576 -0.0016
 8327TIP3    H146472   1.041   1.413  14.660  0.6921  1.3456  0.9152
 8327TIP3    H246473   0.900   1.466  14.639 -0.5552 -2.5760 -1.0592
 8328TIP3   OH246474   3.556   3.507   1.097 -0.0709 -0.6085 -0.5345
 8328TIP3    H146475   3.502   3.457   1.036 -2.9716  1.3768  0.3003
 8328TIP3    H246476   3.531   3.475   1.184 -1.4225  1.6764 -0.0381
 8329TIP3   OH246477   3.089   1.820  10.836 -0.4291  0.2738 -0.4144
 8329TIP3    H146478   3.003   1.806  10.876 -0.6699  1.5754 -0.4331
 8329TIP3    H246479   3.092   1.915  10.820  1.1802  0.2969 -0.0351
 8330TIP3   OH246480   4.413   1.032   1.025  0.2841  0.1486  0.2203
 8330TIP3    H146481   4.335   1.067   0.981  0.3101  0.7915  0.6756
 8330TIP3    H246482   4.480   1.099   1.011  0.0849  0.6906  1.8693
 8331TIP3   OH246483   5.055   5.205   0.169 -0.2857 -0.2881  0.1396
 8331TIP3    H146484   5.109   5.223   0.092 -1.2457  2.5055  0.0371
 8331TIP3    H246485   5.113   5.224   0.243 -0.0628 -0.7119  0.0738
 8332TIP3   OH246486   3.522   4.135   3.879  0.2175 -0.2346  0.1043
 8332TIP3    H146487   3.571   4.067   3.832  1.0607 -0.6889  1.6215
 8332TIP3    H246488   3.502   4.096   3.964 -2.8266 -0.0720 -0.4580
 8333TIP3   OH246489   1.632   6.652   4.338  0.0878  0.4497  0.0944
 8333TIP3    H146490   1.671   6.591   4.275  1.8524  0.9536  0.6660
 8333TIP3    H246491   1.661   6.738   4.309  1.6534  0.6183  2.0573
 8334TIP3   OH246492   0.070   4.559  11.268  0.0330 -0.1635  0.2342
 8334TIP3    H146493   0.064   4.583  11.176 -0.3935  0.9509  0.5415
 8334TIP3    H246494   0.077   4.643  11.314  1.3231 -0.7566  1.1417
 8335TIP3   OH246495   1.161   5.370   4.964  0.1965 -0.0008  0.4944
 8335TIP3    H146496   1.231   5.330   4.913  0.1264 -2.2038  2.0829
 8335TIP3    H246497   1.206   5.413   5.037  0.0321  0.2184  0.4678
 8336TIP3   OH246498   2.014   2.286   5.294  0.1986  0.2976 -0.1177
 8336TIP3    H146499   2.076   2.260   5.225  1.3581  0.2354  0.9307
 8336TIP3    H246500   2.043   2.373   5.320 -1.6733  1.3123 -1.3262
 8337TIP3   OH246501   3.974   3.150   1.356  0.1373  0.3954  0.1650
 8337TIP3    H146502   3.993   3.098   1.277 -0.9772  0.7574 -0.3478
 8337TIP3    H246503   3.904   3.210   1.329  0.2022  0.9665  1.2515
 8338TIP3   OH246504   1.473   2.940   3.582  0.0599  0.1316 -0.1392
 8338TIP3    H146505   1.425   2.864   3.548  0.6084 -0.9951  1.5105
 8338TIP3    H246506   1.565   2.920   3.562  0.5432 -1.2353  3.1736
 8339TIP3   OH246507   4.416   0.882  15.890 -0.3013 -0.3706 -0.1154
 8339TIP3    H146508   4.507   0.883  15.861  0.0991 -1.6561  1.0340
 8339TIP3    H246509   4.397   0.973  15.913  0.7723 -0.1447 -0.1125
 8340TIP3   OH246510   0.750   6.283  13.734 -0.1605 -0.0784  0.3355
 8340TIP3    H146511   0.760   6.364  13.684 -1.2788 -1.1608 -1.6851
 8340TIP3    H246512   0.659   6.284  13.765  0.4213  0.4180  2.0892
 8341TIP3   OH246513   5.398   4.723  12.644  0.1407 -0.4879  0.1511
 8341TIP3    H146514   5.330   4.701  12.581 -0.1368  1.1494 -0.1503
 8341TIP3    H246515   5.359   4.704  12.729  0.0168 -1.4005 -0.1096
 8342TIP3   OH246516   2.696   2.905  11.890 -0.2978  0.5954  0.2922
 8342TIP3    H146517   2.727   2.959  11.818 -0.4659  1.6256  0.9821
 8342TIP3    H246518   2.709   2.815  11.860 -1.2874  1.0010 -1.4168
 8343TIP3   OH246519   1.654   5.551   4.758  0.3405 -0.4316 -0.0616
 8343TIP3    H146520   1.719   5.583   4.821  0.5707  1.5434 -1.2650
 8343TIP3    H246521   1.571   5.586   4.789  0.3961  0.1873 -0.5874
 8344TIP3   OH246522   3.940   4.849   4.996 -0.3273  0.4295 -0.3157
 8344TIP3    H146523   3.946   4.814   4.907 -1.6315 -1.6022  0.3844
 8344TIP3    H246524   4.016   4.811   5.041 -0.7366 -0.0590 -0.0417
 8345TIP3   OH246525   3.412   6.039  15.746 -0.3621 -0.3024 -0.3177
 8345TIP3    H146526   3.327   6.031  15.701 -0.3316 -0.4333 -0.3531
 8345TIP3    H246527   3.395   6.097  15.820 -0.7375 -1.2122  0.3169
 8346TIP3   OH246528   2.744   5.193  12.141 -0.3460  0.1551 -0.0511
 8346TIP3    H146529   2.731   5.285  12.118 -1.3625 -0.1311 -0.6624
 8346TIP3    H246530   2.791   5.156  12.066  0.8837  0.3820  0.6002
 8347TIP3   OH246531   6.037   5.034  16.630 -0.0311 -0.7486 -0.2812
 8347TIP3    H146532   6.065   5.112  16.582 -0.1545 -2.5053 -3.3010
 8347TIP3    H246533   5.950   5.056  16.662  0.9249  1.2481  1.0705
 8348TIP3   OH246534   2.933   6.579  13.782  0.1701  0.4162  0.0525
 8348TIP3    H146535   2.912   6.496  13.740  0.5214 -0.2043  1.0729
 8348TIP3    H246536   2.856   6.600  13.835  0.2796  0.4845  0.1864
 8349TIP3   OH246537   4.991   2.292   3.005  0.4187  0.2061  0.3685
 8349TIP3    H146538   4.923   2.247   2.956 -0.6188  2.7995 -0.6847
 8349TIP3    H246539   5.072   2.250   2.978 -0.5331 -1.2951 -0.2392
 8350TIP3   OH246540   3.767   2.425  12.538  0.3977 -0.1164  0.2809
 8350TIP3    H146541   3.793   2.374  12.615 -0.1861 -0.5600  0.1946
 8350TIP3    H246542   3.674   2.402  12.525 -0.0978  1.5806  0.7158
 8351TIP3   OH246543   5.134   3.462  14.219 -0.2463 -0.6264  0.2571
 8351TIP3    H146544   5.073   3.507  14.277 -0.7992  1.5946 -1.9499
 8351TIP3    H246545   5.205   3.525  14.205  0.1012 -1.2944 -1.0765
 8352TIP3   OH246546   4.470   3.909   1.054 -0.3345 -0.2761  0.1633
 8352TIP3    H146547   4.486   3.960   0.975  0.1598 -1.2092 -0.3478
 8352TIP3    H246548   4.557   3.884   1.085 -0.4955  0.4835  1.2805
 8353TIP3   OH246549   0.976   4.984  13.218  0.3256  0.1405  0.1155
 8353TIP3    H146550   0.977   5.039  13.139  0.1616 -1.0610 -0.7311
 8353TIP3    H246551   0.984   5.047  13.290 -3.0461  1.5931 -0.6707
 8354TIP3   OH246552   2.402   2.475  11.276  0.0384  0.4185 -0.8237
 8354TIP3    H146553   2.353   2.478  11.194 -2.6309 -0.7809  0.6417
 8354TIP3    H246554   2.429   2.383  11.285  0.5781  0.6054 -0.4857
 8355TIP3   OH246555   6.497   1.760  15.301 -0.1363 -0.5715  0.2471
 8355TIP3    H146556   6.495   1.741  15.395 -2.9963 -1.4590  0.0584
 8355TIP3    H246557   6.538   1.846  15.295  0.3821 -0.6454  2.2793
 8356TIP3   OH246558   5.500   4.812  14.041  0.1095  0.0254  0.1343
 8356TIP3    H146559   5.462   4.869  14.108  1.1168 -0.3516  1.0457
 8356TIP3    H246560   5.594   4.818  14.056  0.4055  0.6138 -1.8093
 8357TIP3   OH246561   0.864   5.479   2.744  0.7833 -0.0130 -0.2980
 8357TIP3    H146562   0.836   5.437   2.662 -1.6314 -0.2129  0.5971
 8357TIP3    H246563   0.810   5.438   2.812  2.2675  0.6509  1.3246
 8358TIP3   OH246564   4.651   3.829   5.652 -0.1669  0.6709 -0.5031
 8358TIP3    H146565   4.609   3.778   5.721 -0.0211  0.8459 -0.2897
 8358TIP3    H246566   4.741   3.795   5.648  0.4700  2.1832  0.8851
 8359TIP3   OH246567   5.205   5.346  12.362  0.1817  0.2730 -0.5627
 8359TIP3    H146568   5.237   5.417  12.307 -0.1254  0.2055 -0.8265
 8359TIP3    H246569   5.260   5.271  12.339  0.4966  0.4187 -0.2944
 8360TIP3   OH246570   1.208   2.583  11.105  0.3517 -0.5934 -0.1808
 8360TIP3    H146571   1.265   2.606  11.031 -0.1661  0.4632 -0.2672
 8360TIP3    H246572   1.179   2.494  11.086 -0.8030  0.1241 -1.9277
 8361TIP3   OH246573   4.580   4.846   4.932  0.0298 -0.4831 -0.2245
 8361TIP3    H146574   4.600   4.881   4.845 -0.8294 -1.8874 -1.0101
 8361TIP3    H246575   4.543   4.920   4.980  1.1079  0.4740 -0.8283
 8362TIP3   OH246576   4.621   4.861   0.128  0.4554  0.4795  0.4098
 8362TIP3    H146577   4.598   4.946   0.167 -2.0569  0.4648 -0.9476
 8362TIP3    H246578   4.662   4.883   0.045  1.1315  0.3956  0.7211
 8363TIP3   OH246579   2.701   6.803  14.083  0.1780  0.2782 -0.0329
 8363TIP3    H146580   2.774   6.844  14.130 -0.5862  2.7935 -0.9962
 8363TIP3    H246581   2.627   6.810  14.143 -0.0560  0.6526 -0.3704
 8364TIP3   OH246582   0.206   0.106  14.047  0.3474 -0.7440  0.2770
 8364TIP3    H146583   0.297   0.081  14.027  0.6656 -0.8334  1.7998
 8364TIP3    H246584   0.201   0.198  14.022  0.6072 -0.9631 -0.6131
 8365TIP3   OH246585   4.627   0.202  16.825 -0.2145 -0.0980  0.0619
 8365TIP3    H146586   4.663   0.246  16.748  0.3215  1.0553  0.9600
 8365TIP3    H246587   4.536   0.233  16.830  0.0732  0.6809  0.5191
 8366TIP3   OH246588   1.500   4.088   4.693  0.1720 -0.0585 -0.5781
 8366TIP3    H146589   1.575   4.129   4.737 -0.9010  0.9793  0.3265
 8366TIP3    H246590   1.509   4.114   4.601  1.5215 -0.8702 -0.6985
 8367TIP3   OH246591   4.948   2.208  14.682 -0.1212  0.3453  0.2712
 8367TIP3    H146592   4.967   2.142  14.749 -1.9362 -0.0923  0.3773
 8367TIP3    H246593   4.986   2.289  14.716  0.1827 -0.1802  1.1833
 8368TIP3   OH246594   5.643   6.698  15.905  0.4343 -0.1042  0.1393
 8368TIP3    H146595   5.668   6.609  15.930  1.4075  0.7579  2.3596
 8368TIP3    H246596   5.559   6.712  15.947  0.0993 -0.0811 -0.5228
 8369TIP3   OH246597   3.306   6.368   6.131 -0.2979  0.0110 -0.3319
 8369TIP3    H146598   3.310   6.436   6.199 -0.4593  0.9556 -1.2431
 8369TIP3    H246599   3.263   6.294   6.174 -0.0311  0.4510  0.7131
 8370TIP3   OH246600   1.222   1.165   1.784  0.2289 -0.3939  0.5219
 8370TIP3    H146601   1.273   1.223   1.840  1.7423 -0.1159 -1.1088
 8370TIP3    H246602   1.282   1.140   1.714 -0.9165 -2.5900  0.2726
 8371TIP3   OH246603   2.091   0.613  17.039 -0.1888  0.2542 -0.1821
 8371TIP3    H146604   2.028   0.604  17.111 -0.6146  2.9283 -0.1862
 8371TIP3    H246605   2.104   0.707  17.030  3.0742 -0.2156 -0.8520
 8372TIP3   OH246606   4.134   3.033  10.287  0.3211  0.1646 -0.6818
 8372TIP3    H146607   4.132   2.950  10.240  0.2138  0.5419 -1.3515
 8372TIP3    H246608   4.044   3.046  10.318  0.1895  0.3345 -1.1244
 8373TIP3   OH246609   0.722   3.073   2.581  0.0499 -0.1275 -0.2036
 8373TIP3    H146610   0.770   3.104   2.505  1.1053  0.1836  0.5801
 8373TIP3    H246611   0.633   3.106   2.568  0.6417  1.4570 -0.4343
 8374TIP3   OH246612   4.264   1.345   1.248  0.3590 -0.4088  0.2806
 8374TIP3    H146613   4.266   1.249   1.240 -2.1977 -0.4242 -0.4571
 8374TIP3    H246614   4.326   1.364   1.318 -1.5301 -2.8876  2.7457
 8375TIP3   OH246615   3.406   5.550  14.920  0.2169  0.0673  0.0156
 8375TIP3    H146616   3.464   5.492  14.968  0.3995  0.3864  0.1751
 8375TIP3    H246617   3.328   5.558  14.976  1.3107  2.1711  1.2730
 8376TIP3   OH246618   4.673   4.752  10.820  0.0920 -0.0495  0.1652
 8376TIP3    H146619   4.643   4.761  10.730  1.6631 -1.0902 -0.4710
 8376TIP3    H246620   4.705   4.839  10.843  0.3968  0.0226 -0.5311
 8377TIP3   OH246621   1.559   1.615   0.880  0.5616 -0.0503 -0.2497
 8377TIP3    H146622   1.625   1.678   0.852 -1.2971  1.3984 -1.4766
 8377TIP3    H246623   1.477   1.647   0.842 -0.5654 -2.7559 -0.2077
 8378TIP3   OH246624   1.295   1.461  14.908 -0.0335 -0.0842  0.1066
 8378TIP3    H146625   1.280   1.375  14.947 -0.3426 -0.0831 -0.0070
 8378TIP3    H246626   1.372   1.495  14.954 -0.3552 -0.1097  0.6705
 8379TIP3   OH246627   4.301   2.024   0.136 -0.3804  0.4970  0.1460
 8379TIP3    H146628   4.261   2.080   0.203  0.9584  2.2153 -0.4247
 8379TIP3    H246629   4.239   2.025   0.063 -0.5566  0.9303  0.3010
 8380TIP3   OH246630   3.143   3.664   4.241 -0.1372  0.0753  0.4795
 8380TIP3    H146631   3.073   3.683   4.179  0.6517  0.0861 -0.4147
 8380TIP3    H246632   3.174   3.577   4.216  0.7956  0.4612  0.2734
 8381TIP3   OH246633   3.239   4.034   2.964 -0.3505 -0.4172  0.0232
 8381TIP3    H146634   3.226   4.121   3.001  3.3338  0.2407 -0.1216
 8381TIP3    H246635   3.180   3.977   3.015 -1.7847  1.8873  1.0088
 8382TIP3   OH246636   2.154   0.728  15.087  0.1852  0.6131  0.0012
 8382TIP3    H146637   2.211   0.796  15.050  0.7328  1.1643  1.7763
 8382TIP3    H246638   2.194   0.708  15.172 -2.0715  0.7271  1.1078
 8383TIP3   OH246639   1.820   6.516   3.769  0.1769  0.2625 -0.2986
 8383TIP3    H146640   1.836   6.527   3.675 -1.8013  0.7663 -0.5892
 8383TIP3    H246641   1.764   6.439   3.775  0.5948  0.0107  0.5102
 8384TIP3   OH246642   0.894   6.319  14.165 -0.3548 -0.3263 -0.1577
 8384TIP3    H146643   0.888   6.410  14.136  0.2489 -0.1584  0.2483
 8384TIP3    H246644   0.986   6.306  14.188 -0.2584 -1.2947 -1.0407
 8385TIP3   OH246645   2.962   0.616   1.040  0.2549  0.4313  0.2028
 8385TIP3    H146646   2.944   0.535   1.087 -0.7953  0.4855 -0.1101
 8385TIP3    H246647   3.044   0.598   0.993  0.7793  0.0388  1.2510
 8386TIP3   OH246648   5.920   2.493  11.304 -0.0973 -0.4925  0.7565
 8386TIP3    H146649   5.930   2.508  11.210  0.6038 -3.0248  0.3860
 8386TIP3    H246650   5.825   2.493  11.319 -0.1801  1.1035  0.2689
 8387TIP3   OH246651   0.430   2.066  16.854  0.4181  0.0231  0.6305
 8387TIP3    H146652   0.477   1.983  16.842  0.5380  0.1192  0.4361
 8387TIP3    H246653   0.456   2.119  16.779  0.9774  0.5372  1.1834
 8388TIP3   OH246654   0.937   2.387  14.875  0.7170  0.1252 -0.2023
 8388TIP3    H146655   1.008   2.326  14.895  1.8349  1.7717  0.9773
 8388TIP3    H246656   0.916   2.369  14.783  3.3319  0.2795 -0.8693
 8389TIP3   OH246657   5.065   1.057   5.499  0.2424  0.3251 -0.8480
 8389TIP3    H146658   5.066   1.056   5.594 -0.3223 -0.5248 -0.8536
 8389TIP3    H246659   5.152   1.091   5.475  1.4288 -2.0689 -0.0893
 8390TIP3   OH246660   5.447   5.507  14.681 -0.2015 -0.0774  0.1624
 8390TIP3    H146661   5.392   5.565  14.629 -1.8036 -0.0660  1.8415
 8390TIP3    H246662   5.531   5.553  14.687 -1.1178  1.5918  0.5862
 8391TIP3   OH246663   2.256   0.432  12.268  0.8355 -0.5076  0.2666
 8391TIP3    H146664   2.271   0.517  12.311 -0.3817  0.7518 -1.7227
 8391TIP3    H246665   2.261   0.451  12.175 -0.1920 -2.4993 -0.2236
 8392TIP3   OH246666   6.158   2.420   3.038  0.0705 -0.0204  0.2111
 8392TIP3    H146667   6.112   2.475   2.974  0.6628  0.8838  0.5440
 8392TIP3    H246668   6.126   2.451   3.123 -2.0445 -2.4100  0.3246
 8393TIP3   OH246669   3.635   2.017  11.124  0.5356 -0.0193  0.0901
 8393TIP3    H146670   3.728   2.020  11.100  0.1261 -0.2639 -1.5847
 8393TIP3    H246671   3.589   2.015  11.041 -0.9450 -1.2653  0.9176
 8394TIP3   OH246672   3.844   6.694  12.841  0.3551 -0.2617  0.0280
 8394TIP3    H146673   3.940   6.696  12.850  0.4013 -1.1542 -0.1733
 8394TIP3    H246674   3.821   6.602  12.857 -0.5123  0.0373  0.5157
 8395TIP3   OH246675   4.420   3.829   4.792  0.1145  0.4012  0.0687
 8395TIP3    H146676   4.488   3.763   4.808 -0.1425  0.1771  0.2486
 8395TIP3    H246677   4.468   3.911   4.781  0.2864  0.7377  2.8198
 8396TIP3   OH246678   3.395   2.001  17.008  0.1680  0.6255 -0.2096
 8396TIP3    H146679   3.353   2.050  17.080  0.7666  1.4135 -0.3896
 8396TIP3    H246680   3.425   1.920  17.049 -1.2941  0.1695 -0.0205
 8397TIP3   OH246681   2.429   6.249  12.920 -0.3417 -0.1715 -0.0746
 8397TIP3    H146682   2.369   6.283  12.987 -0.1543 -0.3737  0.1982
 8397TIP3    H246683   2.401   6.158  12.908 -1.8427  0.4907 -1.9221
 8398TIP3   OH246684   0.607   1.184  12.915 -0.6328 -0.3972 -0.7234
 8398TIP3    H146685   0.695   1.219  12.899  0.1292 -1.5111  0.9905
 8398TIP3    H246686   0.552   1.229  12.850  0.8713  1.6216 -0.6452
 8399TIP3   OH246687   5.940   0.780  10.876  0.0075 -0.1163 -0.0227
 8399TIP3    H146688   5.934   0.858  10.822  2.3637 -0.5916 -1.0232
 8399TIP3    H246689   5.934   0.706  10.815  0.0374 -0.6809  0.6380
 8400TIP3   OH246690   3.890   0.737   2.383 -0.3767  0.1906 -0.0049
 8400TIP3    H146691   3.889   0.806   2.316 -2.7960 -0.4460 -0.6984
 8400TIP3    H246692   3.906   0.783   2.465 -0.3547  1.3796 -0.6646
 8401TIP3   OH246693   1.969   3.493  15.587  0.6814 -0.0197  0.1894
 8401TIP3    H146694   1.936   3.538  15.665  0.2502 -1.7536  1.0342
 8401TIP3    H246695   1.989   3.404  15.617  1.0295 -0.5511 -1.5507
 8402TIP3   OH246696   5.245   1.933   1.431  0.0725 -0.4481 -0.4027
 8402TIP3    H146697   5.185   1.998   1.395 -0.1455 -0.0521  0.6615
 8402TIP3    H246698   5.273   1.882   1.355  1.0499  1.5356 -1.4159
 8403TIP3   OH246699   0.287   4.011  12.214 -0.3091 -0.3372 -0.0773
 8403TIP3    H146700   0.296   3.925  12.255  0.3749  0.0262  0.5551
 8403TIP3    H246701   0.359   4.062  12.251 -1.4237  0.8670  0.4623
 8404TIP3   OH246702   2.601   6.623   5.313  0.1591  0.2380  0.8904
 8404TIP3    H146703   2.542   6.566   5.263  0.7454 -0.7546  1.3030
 8404TIP3    H246704   2.636   6.566   5.382  3.1138  0.2751 -0.5409
 8405TIP3   OH246705   0.744   5.007   3.082 -0.3361  0.2931 -0.2770
 8405TIP3    H146706   0.830   5.048   3.078 -0.5999  0.8066 -0.9016
 8405TIP3    H246707   0.728   4.992   3.175  0.4718  0.0902 -0.1656
 8406TIP3   OH246708   3.859   4.992   2.370 -0.0685  0.1931 -0.0624
 8406TIP3    H146709   3.791   4.979   2.303  0.9269  1.9667 -1.4806
 8406TIP3    H246710   3.871   4.905   2.409 -2.8392 -0.2463 -0.0522
 8407TIP3   OH246711   0.278   1.442   1.408  0.1733 -0.4089 -0.3880
 8407TIP3    H146712   0.273   1.385   1.485 -0.5914  0.7368  0.4159
 8407TIP3    H246713   0.190   1.438   1.371  0.1541  0.1651 -0.3999
 8408TIP3   OH246714   4.064   0.747  14.861 -0.4837 -0.1910  0.1270
 8408TIP3    H146715   4.019   0.827  14.833 -0.6263 -0.3584 -0.1131
 8408TIP3    H246716   4.022   0.723  14.944 -0.5482 -0.1082  0.1183
 8409TIP3   OH246717   3.400   2.641   0.627 -0.6082 -0.2102 -0.0016
 8409TIP3    H146718   3.455   2.685   0.691  0.7720 -1.6376 -0.1729
 8409TIP3    H246719   3.451   2.645   0.545 -1.1261 -0.7975 -0.3604
 8410TIP3   OH246720   1.083   5.276   1.812  0.4743 -0.0779  0.1586
 8410TIP3    H146721   1.008   5.217   1.807 -0.2358  0.6375  1.8345
 8410TIP3    H246722   1.079   5.326   1.730 -0.0153 -1.0620 -0.4256
 8411TIP3   OH246723   0.122   1.572  12.275 -0.6595  0.2222  0.1911
 8411TIP3    H146724   0.149   1.593  12.186  1.8940  1.7252  1.2796
 8411TIP3    H246725   0.111   1.477  12.275 -0.4363  0.1810 -1.6351
 8412TIP3   OH246726   4.700   3.514   0.419 -0.0391 -0.4538 -0.5586
 8412TIP3    H146727   4.763   3.459   0.466 -0.9622 -2.0948 -1.2171
 8412TIP3    H246728   4.683   3.467   0.337 -1.0500  0.6862 -1.0238
 8413TIP3   OH246729   4.695   6.651  16.233  0.0969  0.1222  0.7315
 8413TIP3    H146730   4.609   6.693  16.236 -0.2016 -0.4206  0.0515
 8413TIP3    H246731   4.715   6.645  16.139  0.6557 -0.1866  0.8678
 8414TIP3   OH246732   1.608   4.578  13.850  0.9330 -0.5068  0.2508
 8414TIP3    H146733   1.639   4.575  13.941  2.6070  0.2988 -0.2614
 8414TIP3    H246734   1.663   4.644  13.808  1.2313 -1.9454 -1.7195
 8415TIP3   OH246735   2.861   2.449  12.524  0.6690 -0.1488  0.1438
 8415TIP3    H146736   2.785   2.500  12.495 -0.5129 -2.2570 -0.5719
 8415TIP3    H246737   2.925   2.459  12.453  0.4050  0.2200 -0.0455
 8416TIP3   OH246738   2.509   6.242   0.635 -0.1442 -0.2280  0.5672
 8416TIP3    H146739   2.567   6.234   0.559 -0.1395  2.6623  0.1743
 8416TIP3    H246740   2.421   6.251   0.598 -0.3543 -0.6242  0.9709
 8417TIP3   OH246741   2.119   1.366  15.566  0.8728  0.3757 -0.5842
 8417TIP3    H146742   2.118   1.277  15.531  1.1506  0.3357 -0.4938
 8417TIP3    H246743   2.060   1.364  15.641  1.5608  0.0398 -0.0337
 8418TIP3   OH246744   6.638   4.355  11.668  0.3010 -0.1322 -0.5131
 8418TIP3    H146745   6.590   4.438  11.669 -1.2576 -1.0012  1.2643
 8418TIP3    H246746   6.633   4.325  11.578 -2.6835 -0.2515 -0.3663
 8419TIP3   OH246747   5.150   4.090  14.917  0.1554  0.4582 -0.2836
 8419TIP3    H146748   5.242   4.095  14.942  0.0675 -1.1536  0.4652
 8419TIP3    H246749   5.118   4.180  14.921  0.7504  0.5763  3.1303
 8420TIP3   OH246750   4.513   6.248   1.891 -0.2193  0.0335 -0.5217
 8420TIP3    H146751   4.530   6.264   1.798  1.9853 -1.8781 -0.4996
 8420TIP3    H246752   4.576   6.303   1.937 -0.3202 -0.1252 -0.1959
 8421TIP3   OH246753   6.769   3.706   3.345  0.0324 -0.6143  0.4700
 8421TIP3    H146754   6.764   3.671   3.434  1.9503  1.8714  1.6011
 8421TIP3    H246755   6.768   3.801   3.355  1.4584 -0.2708 -2.0637
 8422TIP3   OH246756   6.580   0.994  16.642 -0.3158  0.2311 -0.3533
 8422TIP3    H146757   6.492   1.011  16.674 -0.1018 -0.7056  0.8113
 8422TIP3    H246758   6.625   1.078  16.650 -0.3798  0.1078  1.5273
 8423TIP3   OH246759   0.312   5.086  14.156  0.0493  0.3451 -0.2540
 8423TIP3    H146760   0.300   5.173  14.193 -1.4534  0.4545 -0.9712
 8423TIP3    H246761   0.229   5.066  14.113  0.0024 -1.8681  0.7792
 8424TIP3   OH246762   4.556   3.197  15.560  0.3368 -0.8530  0.0071
 8424TIP3    H146763   4.611   3.257  15.509  2.5471 -2.9366 -0.1566
 8424TIP3    H246764   4.476   3.189  15.509  0.9764  0.1095 -1.1725
 8425TIP3   OH246765   3.309   4.485  16.919 -0.4084 -0.5899 -0.1848
 8425TIP3    H146766   3.283   4.415  16.979 -0.5152 -0.7911 -0.4621
 8425TIP3    H246767   3.321   4.441  16.835  0.3945 -0.4207 -0.1614
 8426TIP3   OH246768   5.034   0.595  11.841  0.1964  0.2275 -0.1814
 8426TIP3    H146769   5.058   0.624  11.754 -0.0231 -0.8620 -0.6146
 8426TIP3    H246770   4.982   0.516  11.827  3.1414 -2.0285  1.0276
 8427TIP3   OH246771   4.364   0.633   1.869  0.4703  0.5169 -0.0918
 8427TIP3    H146772   4.425   0.565   1.899 -1.0450 -1.6871 -1.8140
 8427TIP3    H246773   4.420   0.696   1.823  1.8913  0.3651  1.3950
 8428TIP3   OH246774   1.725   2.229   5.846 -0.1915 -0.4855 -0.6958
 8428TIP3    H146775   1.811   2.194   5.869 -0.5296 -0.3026  0.8993
 8428TIP3    H246776   1.669   2.205   5.920 -0.9496  1.4925 -0.6027
 8429TIP3   OH246777   1.799   2.376  12.051  0.6516  0.3154 -0.5582
 8429TIP3    H146778   1.837   2.336  12.129  2.4803 -0.7497 -1.9506
 8429TIP3    H246779   1.819   2.314  11.980 -0.2029  1.6774 -2.0221
 8430TIP3   OH246780   3.265   4.427  15.180 -0.0888  0.6369 -0.0175
 8430TIP3    H146781   3.196   4.438  15.115  0.3586  1.2303 -0.3987
 8430TIP3    H246782   3.222   4.385  15.254 -0.8465  0.9683 -0.2646
 8431TIP3   OH246783   6.282   6.672  12.528  0.5684 -0.1848  0.4775
 8431TIP3    H146784   6.357   6.642  12.477  1.0164  1.5889  0.0566
 8431TIP3    H246785   6.256   6.754  12.487 -2.1133 -1.1550  0.1457
 8432TIP3   OH246786   4.305   3.114   3.277 -0.3965  0.2185 -0.1679
 8432TIP3    H146787   4.373   3.058   3.242 -0.3575  0.9113 -1.2513
 8432TIP3    H246788   4.257   3.059   3.338  0.7397 -0.4551  0.1307
 8433TIP3   OH246789   6.282   1.854   4.062  0.0243  0.1253 -0.0049
 8433TIP3    H146790   6.249   1.854   3.972 -1.0763  1.8136  0.3622
 8433TIP3    H246791   6.375   1.871   4.054  0.0603 -0.4643 -0.8650
 8434TIP3   OH246792   0.057   5.717   1.992 -0.4327  0.1714  0.6381
 8434TIP3    H146793   0.012   5.801   1.995  2.0596  1.6450 -1.1280
 8434TIP3    H246794   0.053   5.690   1.900 -0.9832 -1.5230  1.1411
 8435TIP3   OH246795   1.789   6.595   2.183 -0.2402 -0.3170 -0.7279
 8435TIP3    H146796   1.749   6.539   2.250  1.0402 -0.6273 -0.2181
 8435TIP3    H246797   1.721   6.602   2.115 -1.3851 -0.3477  0.3934
 8436TIP3   OH246798   5.324   1.845  13.684  0.3176 -0.0097  0.4305
 8436TIP3    H146799   5.388   1.789  13.640  1.6049  1.5406  0.2488
 8436TIP3    H246800   5.339   1.932  13.646 -0.8336  0.6905  1.5369
 8437TIP3   OH246801   5.406   3.110  13.879  0.3749  0.4629  0.5513
 8437TIP3    H146802   5.337   3.170  13.910 -0.5572 -0.9498  1.2895
 8437TIP3    H246803   5.487   3.160  13.888 -0.3761  1.5857  1.2652
 8438TIP3   OH246804   1.212   3.011  12.662  0.7842  0.1741 -0.1018
 8438TIP3    H146805   1.260   3.038  12.741 -1.4103  1.9665  0.6766
 8438TIP3    H246806   1.159   2.937  12.691 -0.9285  1.5930  0.4451
 8439TIP3   OH246807   5.425   1.199  14.544  0.2375  0.5344 -0.0699
 8439TIP3    H146808   5.471   1.119  14.572  0.7733  0.3822 -1.3667
 8439TIP3    H246809   5.332   1.178  14.554  0.3407 -0.6649 -1.4883
 8440TIP3   OH246810   1.011   6.055   0.974 -0.2335  0.0163  0.0137
 8440TIP3    H146811   1.064   5.977   0.989 -1.0782 -0.7537 -0.9187
 8440TIP3    H246812   0.921   6.023   0.973 -0.5172  0.8148 -1.4791
 8441TIP3   OH246813   2.400   6.444   5.278  0.2815  0.1934 -0.0826
 8441TIP3    H146814   2.387   6.422   5.186 -1.3928  1.6608 -0.2295
 8441TIP3    H246815   2.392   6.361   5.324  1.1458 -0.5490 -1.2602
 8442TIP3   OH246816   0.395   2.310  16.314 -0.3820  0.3438 -0.2449
 8442TIP3    H146817   0.404   2.309  16.410 -1.3153  0.9002 -0.1409
 8442TIP3    H246818   0.327   2.244  16.297 -0.1162  0.1460 -0.5347
 8443TIP3   OH246819   3.158   4.122   4.267  0.2454  0.6352  0.0059
 8443TIP3    H146820   3.064   4.136   4.282  0.1527 -0.7870  0.8834
 8443TIP3    H246821   3.195   4.210   4.267 -0.8754  1.1387  1.2059
 8444TIP3   OH246822   0.435   3.204   1.281 -0.2809 -0.3754 -0.2911
 8444TIP3    H146823   0.358   3.151   1.266 -1.3710  1.7392 -2.6391
 8444TIP3    H246824   0.417   3.251   1.362 -0.3374 -1.7491  0.5081
 8445TIP3   OH246825   0.158   5.888  11.473 -0.1751  0.4017  0.4459
 8445TIP3    H146826   0.120   5.920  11.555  2.5390 -0.3293  2.0307
 8445TIP3    H246827   0.200   5.964  11.434  0.4171  0.2825  0.8404
 8446TIP3   OH246828   3.238   1.886  11.979  0.6632 -0.3446  0.4658
 8446TIP3    H146829   3.246   1.820  11.911  0.2079  0.1708 -0.0933
 8446TIP3    H246830   3.326   1.922  11.988  0.6990 -0.3325  0.0675
 8447TIP3   OH246831   3.588   6.274   2.501 -0.3540 -0.3599 -0.6042
 8447TIP3    H146832   3.505   6.318   2.483 -1.1478 -1.3330  0.6264
 8447TIP3    H246833   3.650   6.345   2.516 -1.5712  0.3617  1.1353
 8448TIP3   OH246834   1.365   1.331  12.047 -0.0998 -0.4187 -0.5807
 8448TIP3    H146835   1.384   1.424  12.061  0.9529 -0.4382 -1.8127
 8448TIP3    H246836   1.292   1.313  12.106 -1.0542  1.4586 -1.1303
 8449TIP3   OH246837   4.857   4.213  10.433 -0.1948  0.5381  0.3849
 8449TIP3    H146838   4.847   4.129  10.479 -1.9181 -0.0016 -0.9202
 8449TIP3    H246839   4.909   4.191  10.356  0.6156  0.9649  0.8082
 8450TIP3   OH246840   6.333   5.551   5.421 -0.2003 -0.0074  0.0440
 8450TIP3    H146841   6.247   5.519   5.392 -0.8733  1.1756  0.6943
 8450TIP3    H246842   6.321   5.570   5.514  0.6181  0.6517  0.0182
 8451TIP3   OH246843   2.707   5.234  13.093 -0.3252  0.1174 -0.5801
 8451TIP3    H146844   2.688   5.246  13.000 -0.8785  1.3114 -0.3246
 8451TIP3    H246845   2.642   5.289  13.138  1.0048  0.8799  0.4524
 8452TIP3   OH246846   3.278   1.284  15.232 -0.3327  0.3991  0.0373
 8452TIP3    H146847   3.307   1.230  15.306  2.4364 -0.1975 -1.4410
 8452TIP3    H246848   3.223   1.225  15.181 -0.8254  0.2928  0.6757
 8453TIP3   OH246849   6.262   4.567  12.542  0.2621  0.2241  0.4730
 8453TIP3    H146850   6.257   4.473  12.522  1.3918  0.0836  0.8320
 8453TIP3    H246851   6.171   4.594  12.549 -0.0923 -0.6709 -0.4591
 8454TIP3   OH246852   2.582   0.960   0.898 -0.4991 -0.1014 -0.3357
 8454TIP3    H146853   2.644   0.957   0.971  2.9746  1.4613 -3.0718
 8454TIP3    H246854   2.601   0.882   0.846 -0.9557  0.2594 -1.0612
 8455TIP3   OH246855   3.715   1.439  11.101  0.5571  0.3934  0.2196
 8455TIP3    H146856   3.668   1.357  11.092  0.4644  0.5993 -1.4051
 8455TIP3    H246857   3.697   1.468  11.190  2.9230 -2.7663  1.8026
 8456TIP3   OH246858   3.151   1.505   6.393 -0.1061 -0.7489 -0.0867
 8456TIP3    H146859   3.148   1.491   6.487  2.0555 -1.1462 -0.0359
 8456TIP3    H246860   3.168   1.418   6.356  0.9886 -0.3099 -0.6636
 8457TIP3   OH246861   5.208   3.058  14.740 -0.0515  0.2219  0.2541
 8457TIP3    H146862   5.137   2.998  14.762  0.2722 -0.0081  0.6799
 8457TIP3    H246863   5.179   3.143  14.773  0.4103 -0.1111  1.5494
 8458TIP3   OH246864   4.729   3.994   1.812 -0.1015 -1.0191  0.4226
 8458TIP3    H146865   4.726   4.073   1.759 -0.9561 -1.0732  0.3941
 8458TIP3    H246866   4.729   4.025   1.902 -1.5139 -1.0157  0.4274
 8459TIP3   OH246867   2.905   6.188  11.874  0.4080  0.7331 -0.1060
 8459TIP3    H146868   2.853   6.268  11.881 -0.0935  0.3907  0.1335
 8459TIP3    H246869   2.975   6.198  11.938  1.2494  1.6439 -1.1377
 8460TIP3   OH246870   1.882   0.634   0.167 -0.5999 -0.2015  0.4169
 8460TIP3    H146871   1.955   0.589   0.210  0.1538  0.9061  0.3288
 8460TIP3    H246872   1.860   0.578   0.092  1.1488  0.1913 -0.4155
 8461TIP3   OH246873   2.742   2.420  14.215  0.3353 -0.2076  0.2411
 8461TIP3    H146874   2.823   2.413  14.266 -0.1688 -0.0725  1.0734
 8461TIP3    H246875   2.673   2.431  14.281 -0.0494  2.6511 -0.5653
 8462TIP3   OH246876   1.773   0.811  12.656 -0.1098 -0.1936  0.6901
 8462TIP3    H146877   1.819   0.810  12.740  1.0442  0.5982  0.0730
 8462TIP3    H246878   1.742   0.901  12.646  0.4913 -0.0719 -0.1280
 8463TIP3   OH246879   4.494   0.868   0.121  0.0086 -0.7040 -0.1837
 8463TIP3    H146880   4.490   0.963   0.107  1.0706 -0.6851 -0.4223
 8463TIP3    H246881   4.517   0.859   0.214 -2.4166 -0.7677  0.4321
 8464TIP3   OH246882   2.261   4.057  13.402  0.2962 -0.1524  0.2973
 8464TIP3    H146883   2.201   4.130  13.386  0.5526 -0.2633 -1.2247
 8464TIP3    H246884   2.335   4.074  13.343  0.6770 -1.2709  0.4494
 8465TIP3   OH246885   2.970   1.539   3.685 -0.6546 -0.1515 -0.3328
 8465TIP3    H146886   2.916   1.595   3.628 -1.1805 -0.0525  0.2592
 8465TIP3    H246887   2.947   1.450   3.659 -0.5997 -0.1024 -0.5501
 8466TIP3   OH246888   4.107   2.691   6.424  0.0051  0.2704 -0.1180
 8466TIP3    H146889   4.184   2.646   6.389 -0.1696  1.0008 -1.4840
 8466TIP3    H246890   4.140   2.778   6.449  0.0327 -0.0952  1.1427
 8467TIP3   OH246891   6.353   0.222   3.072 -0.3980  0.3231 -0.2615
 8467TIP3    H146892   6.316   0.255   3.154 -1.4023  0.7249 -0.8811
 8467TIP3    H246893   6.304   0.266   3.003 -0.3747 -0.9324 -1.0950
 8468TIP3   OH246894   1.928   6.717  14.994  0.0205 -0.0530  0.8463
 8468TIP3    H146895   1.989   6.791  14.987  0.3237 -0.3716  0.0625
 8468TIP3    H246896   1.876   6.736  15.072 -0.7048  1.5968 -0.0099
 8469TIP3   OH246897   5.818   6.741   4.977  0.2759 -0.0822  0.0790
 8469TIP3    H146898   5.851   6.821   4.937 -0.4003  0.9061  1.4484
 8469TIP3    H246899   5.747   6.713   4.920 -0.7942  1.4117  0.6448
 8470TIP3   OH246900   2.029   5.269   6.535  0.7361 -0.2099 -0.2577
 8470TIP3    H146901   2.024   5.258   6.630 -0.1726 -0.1438 -0.2931
 8470TIP3    H246902   2.118   5.244   6.512  1.1328  0.3290  0.6888
 8471TIP3   OH246903   5.888   6.064  12.943 -0.0632  0.1078  0.6981
 8471TIP3    H146904   5.827   6.104  13.005 -0.1981 -0.4163  0.9069
 8471TIP3    H246905   5.850   5.979  12.923 -1.0095  1.0052 -1.5708
 8472TIP3   OH246906   0.443   4.518  14.194 -0.4884  0.4534  0.1091
 8472TIP3    H146907   0.532   4.551  14.206  0.0950 -1.1449  0.2407
 8472TIP3    H246908   0.409   4.569  14.120  0.3427  1.4203  0.3730
 8473TIP3   OH246909   1.953   2.830  12.047  0.1374 -0.1392 -0.0026
 8473TIP3    H146910   2.026   2.876  12.089  2.0090 -1.8353 -1.3294
 8473TIP3    H246911   1.957   2.858  11.955 -1.5713  0.6075  0.1399
 8474TIP3   OH246912   4.653   4.918  10.462 -0.1097  0.2699 -0.5618
 8474TIP3    H146913   4.733   4.941  10.414 -0.2550  3.0883  0.4484
 8474TIP3    H246914   4.660   4.968  10.543 -2.6506  0.1191 -0.2351
 8475TIP3   OH246915   0.950   0.397  13.601  0.1721 -0.7272 -0.2065
 8475TIP3    H146916   0.951   0.490  13.580  0.2329 -0.3282  1.4719
 8475TIP3    H246917   0.985   0.392  13.690  1.5152 -2.4997 -0.7971
 8476TIP3   OH246918   0.182   1.476  16.729 -1.1979 -0.8698  0.0953
 8476TIP3    H146919   0.157   1.480  16.636 -1.9682  0.7443  0.3448
 8476TIP3    H246920   0.273   1.447  16.729 -1.2920 -1.1809 -1.1544
 8477TIP3   OH246921   2.747   0.669   3.958  0.5943  0.1366 -0.3334
 8477TIP3    H146922   2.744   0.728   3.883  0.7141  2.3281  1.3550
 8477TIP3    H246923   2.836   0.677   3.992  0.5456 -0.8565  0.0505
 8478TIP3   OH246924   1.475   0.349  16.393 -0.7940  0.1421  0.4217
 8478TIP3    H146925   1.460   0.437  16.427 -3.8178 -0.0572 -0.2615
 8478TIP3    H246926   1.392   0.303  16.406  0.2605 -2.1675 -0.5691
 8479TIP3   OH246927   3.532   3.794  11.500  0.3138  0.6138 -0.2058
 8479TIP3    H146928   3.589   3.792  11.423 -0.2812 -2.6993 -0.6167
 8479TIP3    H246929   3.446   3.768  11.466 -0.3828  0.9948  1.2453
 8480TIP3   OH246930   5.202   4.693   0.571  0.0572  0.2130 -0.5449
 8480TIP3    H146931   5.258   4.644   0.631 -2.2498 -2.7770 -0.6961
 8480TIP3    H246932   5.260   4.714   0.497  1.7753  0.0360  0.7122
 8481TIP3   OH246933   0.144   6.102  14.660  0.2967 -0.3626  0.6104
 8481TIP3    H146934   0.110   6.046  14.730 -1.1856  0.9917  1.0083
 8481TIP3    H246935   0.066   6.137  14.617  1.1985  1.0632  0.1010
 8482TIP3   OH246936   3.532   3.554   6.090 -0.2167  0.0262 -0.3951
 8482TIP3    H146937   3.560   3.463   6.094  1.3831  0.4283 -1.8489
 8482TIP3    H246938   3.443   3.550   6.055 -0.7422 -1.0644  1.0419
 8483TIP3   OH246939   4.368   5.283   2.819  0.3936 -0.2326  0.5609
 8483TIP3    H146940   4.454   5.326   2.817  1.0268 -1.5104  0.3167
 8483TIP3    H246941   4.314   5.342   2.872  1.1213  1.1159 -0.1745
 8484TIP3   OH246942   0.081   5.554   5.919  0.1995  0.0360  0.2317
 8484TIP3    H146943   0.028   5.633   5.919 -0.4959 -0.4171 -1.1703
 8484TIP3    H246944   0.171   5.586   5.923 -0.0769  0.9000 -0.3836
 8485TIP3   OH246945   0.658   0.745  15.639  0.3056  0.4327 -0.3699
 8485TIP3    H146946   0.688   0.806  15.571  0.4117  1.4442  0.5655
 8485TIP3    H246947   0.656   0.798  15.719 -1.2684 -0.3557  0.1278
 8486TIP3   OH246948   2.389   5.401   4.581  0.3042 -0.0534 -0.5557
 8486TIP3    H146949   2.461   5.444   4.627  1.5121 -1.3785 -1.1700
 8486TIP3    H246950   2.432   5.347   4.515 -1.2201 -1.3652 -0.5014
 8487TIP3   OH246951   4.086   3.527  17.286  0.3793  0.0214  0.3383
 8487TIP3    H146952   4.051   3.564  17.205 -1.1687  0.6276  1.2752
 8487TIP3    H246953   4.126   3.601  17.332 -0.0291 -0.0438  0.8033
 8488TIP3   OH246954   5.228   4.098  11.674 -0.4729  0.0375  0.4921
 8488TIP3    H146955   5.321   4.096  11.695  0.5353  2.6968 -3.1756
 8488TIP3    H246956   5.191   4.025  11.723  3.9878 -2.8174 -0.0615
 8489TIP3   OH246957   0.934   0.329  13.045 -0.1172 -0.2484 -0.2740
 8489TIP3    H146958   1.000   0.265  13.071  0.5759  1.1246  1.5302
 8489TIP3    H246959   0.871   0.280  12.994 -0.6655 -2.8014  2.6998
 8490TIP3   OH246960   6.740   6.507  16.477 -0.7361  0.1385  0.6886
 8490TIP3    H146961   6.746   6.595  16.441 -0.3699  0.0561  0.5440
 8490TIP3    H246962   6.730   6.450  16.401  3.6437 -0.3909  0.3695
 8491TIP3   OH246963   5.375   0.320  12.301  0.2153 -0.0482  0.8247
 8491TIP3    H146964   5.438   0.391  12.286  0.8101 -0.5822  0.7814
 8491TIP3    H246965   5.385   0.298  12.393  0.1176 -0.1586  0.8090
 8492TIP3   OH246966   1.626   2.575   1.626  0.5770  0.1998  0.9467
 8492TIP3    H146967   1.655   2.545   1.540  1.0721 -0.2927  1.2832
 8492TIP3    H246968   1.629   2.671   1.620 -1.9138  0.2341 -0.4357
 8493TIP3   OH246969   5.728   4.915   5.811  0.7261 -0.3224 -0.1119
 8493TIP3    H146970   5.765   4.873   5.889 -0.1334 -2.1164 -0.6375
 8493TIP3    H246971   5.794   4.899   5.743  1.7541  1.7678  0.3804
 8494TIP3   OH246972   0.486   5.015   4.697 -0.8641  0.6508  0.2797
 8494TIP3    H146973   0.475   5.107   4.720 -0.0925  0.6076  0.8555
 8494TIP3    H246974   0.579   5.006   4.676 -1.1864  0.2793 -1.0596
 8495TIP3   OH246975   4.470   1.913  16.390 -0.5820 -0.6193 -0.0009
 8495TIP3    H146976   4.478   1.992  16.336 -0.9768 -0.4651  0.1566
 8495TIP3    H246977   4.536   1.853  16.357 -0.8332 -0.5339 -0.6673
 8496TIP3   OH246978   3.935   4.690  12.389  0.1454 -0.6567  0.1623
 8496TIP3    H146979   3.989   4.715  12.464  0.8317 -0.7091 -0.3109
 8496TIP3    H246980   3.975   4.735  12.315 -0.5897 -0.5291 -0.1585
 8497TIP3   OH246981   2.935   5.004  13.402 -0.0573 -0.3409 -0.3900
 8497TIP3    H146982   3.019   4.971  13.432  1.0154  1.0740 -1.7925
 8497TIP3    H246983   2.940   5.001  13.307 -1.5508 -0.1508 -0.4885
 8498TIP3   OH246984   1.531   0.691   5.576  0.4166  1.0598 -0.3042
 8498TIP3    H146985   1.553   0.775   5.536 -0.0874  1.1419 -0.4054
 8498TIP3    H246986   1.601   0.632   5.547  0.7766  1.4484 -0.2164
 8499TIP3   OH246987   4.606   4.199  13.421  0.6078  0.1671  0.1301
 8499TIP3    H146988   4.603   4.104  13.432  0.3736  0.2128  0.4816
 8499TIP3    H246989   4.547   4.233  13.489  0.4052  0.5462 -0.2331
 8500TIP3   OH246990   0.307   1.906   5.300 -0.1631  0.4565 -0.9941
 8500TIP3    H146991   0.280   1.986   5.346 -0.2160  0.0078 -0.2422
 8500TIP3    H246992   0.380   1.934   5.245  1.5145  0.5030  1.2014
 8501TIP3   OH246993   2.352   4.704   2.435 -0.4523  0.5296  0.2928
 8501TIP3    H146994   2.287   4.705   2.365  1.6160  2.0509 -1.6973
 8501TIP3    H246995   2.361   4.612   2.459 -0.8823 -0.0720 -1.7936
 8502TIP3   OH246996   1.555   0.695   4.754 -0.2173 -0.4416 -0.3898
 8502TIP3    H146997   1.587   0.609   4.727 -1.5225 -0.5028 -1.7880
 8502TIP3    H246998   1.535   0.740   4.672 -0.6166  0.7910  0.3698
 8503TIP3   OH246999   0.828   6.693   0.896 -0.1201 -0.2254 -0.7493
 8503TIP3    H147000   0.844   6.787   0.892 -0.7665 -0.0897 -0.2913
 8503TIP3    H247001   0.914   6.653   0.890  0.0463  0.3519 -2.4215
 8504TIP3   OH247002   1.916   3.344   2.409 -0.0190  0.2433 -0.7678
 8504TIP3    H147003   1.883   3.262   2.445  1.0535  0.6375  1.2356
 8504TIP3    H247004   2.000   3.358   2.455 -0.2315  2.4770 -0.9938
 8505TIP3   OH247005   4.654   1.298   4.726  0.4380 -0.4394 -0.0739
 8505TIP3    H147006   4.703   1.223   4.759  0.8415  0.2547  0.9377
 8505TIP3    H247007   4.716   1.370   4.729 -0.6780  0.4951  1.4382
 8506TIP3   OH247008   3.609   3.725   3.033  0.3952 -0.5806  0.1665
 8506TIP3    H147009   3.670   3.787   3.072  0.2530 -1.3559  1.6318
 8506TIP3    H247010   3.585   3.765   2.949  1.3956  0.6566  0.4583
 8507TIP3   OH247011   2.182   6.525  14.541 -0.1300  0.1463 -0.2319
 8507TIP3    H147012   2.094   6.524  14.504  0.4913 -0.0724 -1.7314
 8507TIP3    H247013   2.174   6.479  14.624 -1.1140 -1.3242 -1.1295
 8508TIP3   OH247014   4.744   0.376  16.571  0.2029 -0.1646 -0.5134
 8508TIP3    H147015   4.722   0.470  16.570 -2.0115 -0.6255  1.0656
 8508TIP3    H247016   4.825   0.371  16.620  0.2096  0.9195 -0.3935
 8509TIP3   OH247017   6.081   3.066  15.688  0.5306 -0.7839  0.2437
 8509TIP3    H147018   6.164   3.097  15.723 -0.9637  0.1478  3.1460
 8509TIP3    H247019   6.088   3.080  15.594  2.2004  2.9823  0.8084
 8510TIP3   OH247020   5.444   5.650  13.768 -0.2570 -0.2682  0.4431
 8510TIP3    H147021   5.461   5.672  13.859 -0.9748 -1.6270  0.9368
 8510TIP3    H247022   5.519   5.597  13.741 -0.3003 -0.3215  0.4261
 8511TIP3   OH247023   2.879   4.577   4.656  0.2355  0.2682  0.6369
 8511TIP3    H147024   2.972   4.563   4.670  0.3916  0.6026 -0.0745
 8511TIP3    H247025   2.861   4.536   4.571 -0.2255  0.3517  0.6938
 8512TIP3   OH247026   3.514   3.182  12.865 -0.5991  0.4900 -0.0380
 8512TIP3    H147027   3.488   3.260  12.815 -1.1531  0.4349  0.1612
 8512TIP3    H247028   3.604   3.199  12.891 -0.9854  1.4172  0.6888
 8513TIP3   OH247029   2.929   5.355   1.004  0.2866 -0.2088  0.7356
 8513TIP3    H147030   3.023   5.370   1.018  0.0998  2.0752 -0.2147
 8513TIP3    H247031   2.886   5.404   1.074 -0.2255 -0.9243  0.9315
 8514TIP3   OH247032   0.338   3.303  11.853  0.0420  0.3072  0.2285
 8514TIP3    H147033   0.391   3.265  11.923  0.1454 -0.9802 -0.5331
 8514TIP3    H247034   0.248   3.287  11.880  0.1007 -1.4654 -0.6239
 8515TIP3   OH247035   6.198   0.426  16.474 -0.2190 -0.2909 -0.2639
 8515TIP3    H147036   6.108   0.444  16.499 -0.1140 -0.1337  0.0064
 8515TIP3    H247037   6.198   0.335  16.444 -0.7228  0.1011 -1.4643
 8516TIP3   OH247038   6.612   0.859   3.150 -0.3928 -0.1858  0.0059
 8516TIP3    H147039   6.592   0.942   3.195  1.1477  0.0230  0.3362
 8516TIP3    H247040   6.576   0.871   3.062 -0.1033  0.8681  0.0221
 8517TIP3   OH247041   6.393   5.136  14.805  0.2862  0.9917 -0.2035
 8517TIP3    H147042   6.426   5.047  14.794  0.9982  1.0976  1.0156
 8517TIP3    H247043   6.419   5.181  14.725 -0.1166  0.1049 -0.8545
 8518TIP3   OH247044   2.676   2.375   1.946  0.8872 -0.2614 -0.2684
 8518TIP3    H147045   2.667   2.470   1.936 -1.6594 -0.3550  0.7256
 8518TIP3    H247046   2.652   2.359   2.037 -0.5514 -2.0459 -0.9249
 8519TIP3   OH247047   2.741   4.928  11.984  0.3192 -0.0425  0.2624
 8519TIP3    H147048   2.691   4.948  12.064 -0.3977 -0.4353 -0.0800
 8519TIP3    H247049   2.712   4.994  11.921  1.0641  0.4148  0.3999
 8520TIP3   OH247050   2.451   1.582  16.506  0.1902 -0.0307 -0.0510
 8520TIP3    H147051   2.431   1.551  16.594 -1.0573  2.3018  0.5402
 8520TIP3    H247052   2.534   1.539  16.483 -0.1104 -1.6129  1.7422
 8521TIP3   OH247053   6.673   5.075  17.275 -0.3915 -0.6639 -0.2256
 8521TIP3    H147054   6.724   5.025  17.338 -0.3725  0.5823  0.7724
 8521TIP3    H247055   6.733   5.089  17.201 -0.3036 -1.8194 -0.3831
 8522TIP3   OH247056   6.586   3.875  11.956 -0.0957  0.1127 -0.7434
 8522TIP3    H147057   6.516   3.890  12.020 -1.1767 -1.2850 -1.6008
 8522TIP3    H247058   6.586   3.954  11.902 -2.0442 -0.5215 -1.7065
 8523TIP3   OH247059   6.440   0.256  15.537 -0.0491  0.0200 -0.1568
 8523TIP3    H147060   6.463   0.219  15.623  1.4232  2.4375  0.5204
 8523TIP3    H247061   6.353   0.295  15.551  1.3176  2.7606  1.0187
 8524TIP3   OH247062   3.147   6.538  11.956 -0.0656 -0.0317 -0.1764
 8524TIP3    H147063   3.219   6.562  11.897 -1.0894  1.0403 -0.9965
 8524TIP3    H247064   3.096   6.474  11.906 -0.0350 -0.3406  0.1824
 8525TIP3   OH247065   5.314   1.792   5.268 -0.4335  0.0630 -0.0834
 8525TIP3    H147066   5.277   1.707   5.245 -1.5056 -0.2760  2.6064
 8525TIP3    H247067   5.408   1.781   5.255 -0.5516 -1.5718  0.2429
 8526TIP3   OH247068   3.038   1.224  14.431 -0.6057  0.1514 -0.3251
 8526TIP3    H147069   2.987   1.300  14.403 -0.5495  0.3790  0.1971
 8526TIP3    H247070   3.032   1.163  14.357  2.5039  2.2020 -2.4477
 8527TIP3   OH247071   0.028   2.015   4.339  0.6040 -0.2956  0.1632
 8527TIP3    H147072   0.115   2.005   4.299  0.6375 -0.9844  0.4074
 8527TIP3    H247073   0.011   1.931   4.381 -0.3980 -0.3361 -0.3067
 8528TIP3   OH247074   1.540   6.742   1.660 -0.0906 -0.6030  0.0595
 8528TIP3    H147075   1.623   6.788   1.676  0.6403 -1.0906 -2.0996
 8528TIP3    H247076   1.487   6.806   1.611 -0.6690 -0.5957  0.6952
 8529TIP3   OH247077   6.378   3.063  12.360 -0.6555 -0.0722  0.1121
 8529TIP3    H147078   6.439   3.008  12.408  0.7679 -0.8283 -2.4911
 8529TIP3    H247079   6.292   3.022  12.374  0.0323 -1.4678  0.3169
 8530TIP3   OH247080   3.076   2.127  15.141 -0.2377 -0.6121 -0.0047
 8530TIP3    H147081   3.136   2.074  15.089  0.7269 -0.2153  0.6870
 8530TIP3    H247082   3.129   2.200  15.173 -0.6400 -1.1907  2.0850
 8531TIP3   OH247083   6.249   2.798   0.917  0.1457  0.4118  0.4388
 8531TIP3    H147084   6.322   2.767   0.864  0.4377  0.2672  0.9147
 8531TIP3    H247085   6.203   2.719   0.945  1.3827  0.3340  2.3440
 8532TIP3   OH247086   4.652   0.339   2.006 -0.0057 -0.1639 -0.2483
 8532TIP3    H147087   4.560   0.368   2.007 -0.0298 -0.2450  0.3242
 8532TIP3    H247088   4.693   0.388   2.077  0.3681 -0.2161 -0.4276
 8533TIP3   OH247089   5.182   6.548  15.522 -0.6838 -0.5132  1.0721
 8533TIP3    H147090   5.138   6.624  15.560 -1.5351  0.0473 -0.9461
 8533TIP3    H247091   5.257   6.584  15.475 -1.8689 -0.7125 -1.0613
 8534TIP3   OH247092   6.257   2.594   2.158  0.1262 -0.0366  0.0360
 8534TIP3    H147093   6.298   2.678   2.135  2.7414 -0.4924  2.7528
 8534TIP3    H247094   6.274   2.538   2.082 -1.1751  1.7052 -1.5767
 8535TIP3   OH247095   1.959   1.828  15.285  0.4215 -0.0843  0.3679
 8535TIP3    H147096   2.043   1.830  15.331  0.1202  0.3476  0.8984
 8535TIP3    H247097   1.983   1.838  15.193  1.0626 -1.4843  0.3652
 8536TIP3   OH247098   6.028   1.683   1.533 -0.4105  0.2978 -1.2010
 8536TIP3    H147099   6.057   1.699   1.444 -0.2390  0.3790 -1.1312
 8536TIP3    H247100   5.960   1.616   1.525 -0.2798  0.1869 -1.3750
 8537TIP3   OH247101   2.824   2.580   0.119 -0.2732  0.2804  0.1092
 8537TIP3    H147102   2.823   2.675   0.132 -0.7091  0.1759  0.8267
 8537TIP3    H247103   2.887   2.547   0.183 -0.5148  0.0268  0.2148
 8538TIP3   OH247104   1.796   4.766   1.671 -0.4596 -0.5522 -0.2019
 8538TIP3    H147105   1.836   4.765   1.584  0.5861 -1.3377  0.2739
 8538TIP3    H247106   1.705   4.738   1.657 -0.6839  0.6950 -1.2218
 8539TIP3   OH247107   0.134   5.247   5.979  0.0183 -0.1591  0.5063
 8539TIP3    H147108   0.149   5.325   5.925  1.7468  0.3219  1.6406
 8539TIP3    H247109   0.071   5.196   5.929  0.0462  1.2223 -1.0142
 8540TIP3   OH247110   1.488   4.627  14.163 -0.3308  0.1684 -0.0351
 8540TIP3    H147111   1.560   4.685  14.187 -0.5699  0.5864 -0.3052
 8540TIP3    H247112   1.493   4.555  14.225 -1.2766  1.5071  1.6273
 8541TIP3   OH247113   2.455   6.359  11.445 -0.2841  0.1510 -0.4940
 8541TIP3    H147114   2.433   6.452  11.438  0.5989  0.5889  1.9417
 8541TIP3    H247115   2.395   6.315  11.384 -0.8365  2.2824 -1.5377
 8542TIP3   OH247116   4.222   4.470   5.451  0.4696  0.1765  0.2212
 8542TIP3    H147117   4.145   4.434   5.408  1.1160 -1.5032  0.4323
 8542TIP3    H247118   4.260   4.530   5.386  0.0242 -0.4144 -0.5837
 8543TIP3   OH247119   2.980   4.376   5.129 -0.0160  0.2023 -0.4258
 8543TIP3    H147120   2.954   4.284   5.127 -0.2813  0.2640 -0.0910
 8543TIP3    H247121   3.056   4.382   5.072 -0.0595 -0.2061 -0.5267
 8544TIP3   OH247122   4.629   4.579  12.125 -0.7039  0.6915 -0.3473
 8544TIP3    H147123   4.550   4.525  12.124  0.5874 -1.2226 -1.4104
 8544TIP3    H247124   4.632   4.617  12.037  0.0398  0.0293 -0.6116
 8545TIP3   OH247125   2.251   3.771   0.659  0.2188 -0.4179  1.0961
 8545TIP3    H147126   2.249   3.682   0.694  2.0001 -0.3765  1.3433
 8545TIP3    H247127   2.169   3.810   0.688 -0.4960 -1.9237  1.1376
 8546TIP3   OH247128   2.945   3.963  13.386 -0.4310 -0.5050 -0.4470
 8546TIP3    H147129   3.002   4.033  13.419 -3.1302  1.7478 -0.3595
 8546TIP3    H247130   2.856   3.995  13.402 -1.8364 -1.4837 -5.5039
 8547TIP3   OH247131   5.828   4.590  16.687  0.1585 -0.7984 -0.0043
 8547TIP3    H147132   5.735   4.596  16.665  0.2355 -1.2990 -0.4544
 8547TIP3    H247133   5.840   4.500  16.719  0.7732 -1.1703 -1.2672
 8548TIP3   OH247134   2.743   3.821   2.723 -0.7797  0.2528  0.2246
 8548TIP3    H147135   2.800   3.800   2.649 -0.9568  1.1218 -0.1730
 8548TIP3    H247136   2.793   3.886   2.773 -0.6424 -0.3698  0.8919
 8549TIP3   OH247137   2.813   0.393  12.334  0.1002  0.4565 -0.1602
 8549TIP3    H147138   2.892   0.339  12.339 -0.0812  0.2132  0.0837
 8549TIP3    H247139   2.827   0.462  12.399 -0.0569  0.1819  0.1756
 8550TIP3   OH247140   4.113   1.353   3.170 -0.4756 -0.0480 -0.1551
 8550TIP3    H147141   4.158   1.270   3.155  0.5760  0.6442 -0.8582
 8550TIP3    H247142   4.020   1.332   3.157 -0.3146 -1.3114  0.5901
 8551TIP3   OH247143   4.340   3.176   4.658 -0.0086 -0.2523  0.3690
 8551TIP3    H147144   4.253   3.208   4.684 -0.4580 -0.5421 -0.7445
 8551TIP3    H247145   4.366   3.233   4.585  0.4976 -0.5128  0.3424
 8552TIP3   OH247146   1.477   6.230  12.068  0.4930  0.1421 -0.2815
 8552TIP3    H147147   1.441   6.316  12.048  1.8618  0.9649  0.7401
 8552TIP3    H247148   1.549   6.247  12.128  0.9344 -1.6975 -0.2543
 8553TIP3   OH247149   2.491   1.941  16.338  0.6516  0.3619  0.2377
 8553TIP3    H147150   2.416   1.945  16.397  1.8537 -0.2901  1.8380
 8553TIP3    H247151   2.564   1.973  16.390  1.5800  0.5171 -1.1544
 8554TIP3   OH247152   1.888   5.274   3.081 -0.2786 -0.4073 -0.5761
 8554TIP3    H147153   1.980   5.273   3.056  0.1615 -1.0348  0.9990
 8554TIP3    H247154   1.881   5.206   3.148 -1.4032  1.1583  0.9304
 8555TIP3   OH247155   4.043   1.627   4.270  0.6026  0.5393 -0.1375
 8555TIP3    H147156   3.982   1.556   4.252  0.9941  0.3880 -0.8784
 8555TIP3    H247157   4.122   1.583   4.301 -0.3540  0.8325  2.8426
 8556TIP3   OH247158   6.403   5.707  16.653  0.1455 -0.1244 -0.2235
 8556TIP3    H147159   6.396   5.612  16.640 -0.1997 -0.0308 -0.7527
 8556TIP3    H247160   6.444   5.717  16.739 -0.6069 -0.7445  0.2157
 8557TIP3   OH247161   3.151   1.494   6.061  0.1219 -0.2999 -0.1337
 8557TIP3    H147162   3.215   1.426   6.041 -0.6853 -1.3591  0.8321
 8557TIP3    H247163   3.072   1.468   6.013 -0.8821 -1.2560  1.9728
 8558TIP3   OH247164   5.010   5.182   4.809  0.2193  0.1092  0.0381
 8558TIP3    H147165   5.003   5.104   4.755 -2.6983  0.3897 -0.0766
 8558TIP3    H247166   4.976   5.253   4.754 -0.8108  0.7495  1.4601
 8559TIP3   OH247167   2.230   3.236  14.084 -0.1462 -0.0535  0.5319
 8559TIP3    H147168   2.232   3.195  14.170 -0.4160 -3.1910 -0.8838
 8559TIP3    H247169   2.253   3.166  14.023  2.0255  2.5747 -1.8143
 8560TIP3   OH247170   5.649   6.199   3.321 -0.1139 -0.2716  0.0957
 8560TIP3    H147171   5.608   6.113   3.320 -1.7116  0.4064  2.5409
 8560TIP3    H247172   5.605   6.246   3.392  0.4193  2.7264 -1.4812
 8561TIP3   OH247173   5.539   3.389   3.230 -0.3249 -0.0588 -0.4519
 8561TIP3    H147174   5.587   3.307   3.242 -1.9583 -1.2124 -1.4286
 8561TIP3    H247175   5.461   3.363   3.181 -0.9081  2.0884 -0.7044
 8562TIP3   OH247176   2.125   3.829  16.464 -0.1104  0.1521  0.3861
 8562TIP3    H147177   2.153   3.755  16.519 -0.6854 -0.2388  0.1639
 8562TIP3    H247178   2.187   3.830  16.392  0.8307  0.8573  1.2043
 8563TIP3   OH247179   6.537   0.259   1.199 -0.0129 -0.5388  0.5112
 8563TIP3    H147180   6.458   0.212   1.227  0.1184 -0.8275  0.4004
 8563TIP3    H247181   6.504   0.342   1.165 -0.0868  0.3676  2.7151
 8564TIP3   OH247182   1.614   6.102   3.088 -0.1284  0.1325  0.0843
 8564TIP3    H147183   1.555   6.029   3.071  0.3330 -0.5939  1.4774
 8564TIP3    H247184   1.592   6.167   3.022 -1.2544 -0.8543 -0.5289
 8565TIP3   OH247185   0.738   6.110  10.582 -0.2375  0.1729  0.0925
 8565TIP3    H147186   0.676   6.068  10.523 -1.9784  2.7648 -0.0490
 8565TIP3    H247187   0.683   6.150  10.650  1.4041  1.0249  0.9605
 8566TIP3   OH247188   2.535   1.303   0.151 -0.1125  0.0408  0.1247
 8566TIP3    H147189   2.575   1.369   0.207  0.9070  0.8813 -1.5690
 8566TIP3    H247190   2.455   1.345   0.118  0.3426  0.2854 -0.6594
 8567TIP3   OH247191   2.624   6.465  12.119  0.7553 -0.4401 -0.1472
 8567TIP3    H147192   2.629   6.517  12.199 -0.5060  0.1032 -0.4145
 8567TIP3    H247193   2.555   6.401  12.137  0.5278 -0.3696 -0.7692
 8568TIP3   OH247194   3.610   3.572   2.639 -0.1523 -0.7415 -0.1298
 8568TIP3    H147195   3.645   3.565   2.550  0.3257  0.5288 -0.0486
 8568TIP3    H247196   3.589   3.482   2.663 -1.8478 -0.9183 -2.1357
 8569TIP3   OH247197   3.265   3.527   2.344 -0.4008 -0.3579 -0.4078
 8569TIP3    H147198   3.219   3.549   2.263  2.4292  0.7429 -1.7729
 8569TIP3    H247199   3.293   3.436   2.332  0.9892  0.1533 -1.1892
 8570TIP3   OH247200   2.889   2.667   4.404  0.0912  0.6578 -1.1023
 8570TIP3    H147201   2.948   2.699   4.473 -0.4023  1.4442 -1.0395
 8570TIP3    H247202   2.926   2.583   4.379  0.1756  0.2676  0.2627
 8571TIP3   OH247203   5.610   2.881  13.209  0.6366 -0.5673 -0.2274
 8571TIP3    H147204   5.608   2.799  13.260 -0.7867 -1.2000 -1.2892
 8571TIP3    H247205   5.523   2.918  13.220  0.1912 -0.8963 -2.4945
 8572TIP3   OH247206   6.217   0.714  14.827  0.8685 -0.0819 -0.1727
 8572TIP3    H147207   6.255   0.783  14.882  0.6992 -0.8060  0.8597
 8572TIP3    H247208   6.155   0.761  14.771  0.2654  0.5406  0.9770
 8573TIP3   OH247209   4.022   2.077  12.838 -0.2817  0.1041  0.0089
 8573TIP3    H147210   4.086   2.148  12.830  1.3224 -1.3336 -0.2030
 8573TIP3    H247211   3.987   2.067  12.750  0.4943 -0.2564 -0.2691
 8574TIP3   OH247212   4.420   5.923   3.780  0.1334  0.1691  0.0220
 8574TIP3    H147213   4.407   5.979   3.857 -1.6670 -0.7800  0.4475
 8574TIP3    H247214   4.339   5.933   3.730  1.4372  1.0614 -1.9641
 8575TIP3   OH247215   6.817   1.858  14.415 -0.2444 -0.0700 -0.8165
 8575TIP3    H147216   6.878   1.932  14.412  1.9643 -1.8613 -1.7446
 8575TIP3    H247217   6.844   1.808  14.492 -0.0340 -1.2607 -1.6384
 8576TIP3   OH247218   2.890   3.667  16.995 -0.1483  0.4817  0.3911
 8576TIP3    H147219   2.864   3.727  17.066  0.7298  0.0080  1.1236
 8576TIP3    H247220   2.828   3.594  17.002 -1.3696  1.3949 -0.6519
 8577TIP3   OH247221   3.501   3.596  11.980  0.4239 -0.4186 -0.1467
 8577TIP3    H147222   3.502   3.576  11.886 -2.6720 -1.3345 -0.0588
 8577TIP3    H247223   3.496   3.691  11.984  0.3383 -0.3852 -0.9346
 8578TIP3   OH247224   1.901   0.903   0.293  0.5800  0.0831  0.2321
 8578TIP3    H147225   1.814   0.865   0.307 -0.5619  2.8824  1.1668
 8578TIP3    H247226   1.957   0.828   0.275 -2.2487 -1.7022 -1.6360
 8579TIP3   OH247227   2.339   3.102   3.935  0.3348 -0.0307 -0.6599
 8579TIP3    H147228   2.299   3.070   4.016 -0.4805  1.0356 -0.6351
 8579TIP3    H247229   2.332   3.028   3.874 -0.2937 -0.3629 -0.1859
 8580TIP3   OH247230   5.891   1.164  11.092  0.3283  0.3709 -0.0080
 8580TIP3    H147231   5.889   1.249  11.136 -0.6164 -0.5990  1.8930
 8580TIP3    H247232   5.950   1.177  11.017  1.8135  2.1181  1.4164
 8581TIP3   OH247233   1.696   5.509  16.272 -0.8706 -0.9969 -0.5079
 8581TIP3    H147234   1.700   5.604  16.266 -0.8786 -0.7817  2.2154
 8581TIP3    H247235   1.788   5.481  16.275 -0.8600 -0.7786  2.0921
 8582TIP3   OH247236   6.775   6.561   0.760 -0.6635  0.1751  0.1073
 8582TIP3    H147237   6.761   6.545   0.666 -0.6719  0.0606  0.1274
 8582TIP3    H247238   6.781   6.473   0.798  0.3725  0.2158  0.0600
 8583TIP3   OH247239   1.403   0.982  13.248 -0.3443  0.3184 -0.3706
 8583TIP3    H147240   1.344   0.911  13.270 -2.3867  1.9427 -0.4900
 8583TIP3    H247241   1.479   0.939  13.209  0.1607 -2.0660  3.0130
 8584TIP3   OH247242   2.039   6.289  14.211 -0.0823  0.0812  0.1426
 8584TIP3    H147243   2.052   6.219  14.276 -0.0933 -1.4601 -1.4873
 8584TIP3    H247244   1.952   6.273  14.176 -0.0129  0.8189 -0.3763
 8585TIP3   OH247245   1.235   4.612   3.952 -0.1176 -0.0230 -0.9490
 8585TIP3    H147246   1.267   4.545   3.892  0.8621 -0.0735 -0.3770
 8585TIP3    H247247   1.188   4.564   4.020 -0.1588 -0.0609 -1.0050
 8586TIP3   OH247248   0.150   3.124  17.200 -0.3017  0.4985 -0.5784
 8586TIP3    H147249   0.237   3.090  17.179 -0.6011  0.3061 -1.5101
 8586TIP3    H247250   0.089   3.061  17.161 -0.8925 -0.3602  1.6173
 8587TIP3   OH247251   4.327   4.762  15.216 -0.0764  0.2505  0.2866
 8587TIP3    H147252   4.273   4.766  15.295  0.6706  0.4402  0.7913
 8587TIP3    H247253   4.290   4.690  15.166 -0.8096  0.3828  0.6224
 8588TIP3   OH247254   0.524   1.838  11.025 -0.4768 -0.7155 -0.8750
 8588TIP3    H147255   0.532   1.860  11.118  0.2767 -0.0844 -1.0822
 8588TIP3    H247256   0.464   1.764  11.023 -0.2527 -0.9370  0.1479
 8589TIP3   OH247257   3.971   2.119   4.646 -0.2335 -0.4043  0.1728
 8589TIP3    H147258   3.951   2.056   4.715 -1.5770  0.8512  0.9438
 8589TIP3    H247259   4.067   2.123   4.644 -0.1034 -2.7007 -0.1243
 8590TIP3   OH247260   6.192   2.350  14.455  0.6433  0.8137 -0.3545
 8590TIP3    H147261   6.233   2.427  14.416  1.6644  1.1504  1.3229
 8590TIP3    H247262   6.116   2.385  14.502  0.1291  0.5783 -1.0186
 8591TIP3   OH247263   0.440   4.904   3.351  0.1878  0.1075  0.2844
 8591TIP3    H147264   0.354   4.907   3.308  0.3750 -1.5886 -0.2351
 8591TIP3    H247265   0.420   4.887   3.443 -0.0962  1.3136  0.4574
 8592TIP3   OH247266   3.864   4.528   3.110 -0.1223 -0.6773  0.1638
 8592TIP3    H147267   3.829   4.598   3.165  0.7465 -0.1885  0.1157
 8592TIP3    H247268   3.864   4.451   3.166  3.4152  0.4126  1.8768
 8593TIP3   OH247269   0.196   0.531   2.132  0.5556 -0.1462 -0.1092
 8593TIP3    H147270   0.256   0.495   2.198  1.8277  2.2466  0.0785
 8593TIP3    H247271   0.170   0.616   2.167 -0.9189 -0.0208 -1.4424
 8594TIP3   OH247272   4.533   3.229  17.251 -0.3971 -0.3529  0.1521
 8594TIP3    H147273   4.507   3.294  17.185  1.6389 -2.2714 -2.6855
 8594TIP3    H247274   4.472   3.157  17.239  1.2771 -1.6021 -1.1933
 8595TIP3   OH247275   6.593   4.918  16.027 -0.4287 -0.4351 -0.0159
 8595TIP3    H147276   6.627   5.005  16.047 -1.2785  0.3358 -1.8419
 8595TIP3    H247277   6.518   4.934  15.971  0.8948 -2.4341 -2.4504
 8596TIP3   OH247278   0.235   6.205  13.057  0.6198  0.2007  0.0303
 8596TIP3    H147279   0.252   6.190  12.964  1.7338 -0.3309  0.3117
 8596TIP3    H247280   0.318   6.239  13.091  0.6278 -0.8686  1.0999
 8597TIP3   OH247281   3.216   0.599  15.787 -0.1561 -0.2677  0.2640
 8597TIP3    H147282   3.281   0.629  15.850  0.2729 -0.1069 -0.2505
 8597TIP3    H247283   3.267   0.554  15.720 -0.7958 -2.2817  1.0974
 8598TIP3   OH247284   0.239   3.212  12.509 -0.8521  0.1121 -0.4709
 8598TIP3    H147285   0.272   3.236  12.422  2.0653  0.1752  0.5993
 8598TIP3    H247286   0.316   3.216  12.565 -2.6065 -0.4576  2.0294
 8599TIP3   OH247287   6.355   2.748   5.847  0.4337  0.1638  0.3670
 8599TIP3    H147288   6.368   2.678   5.910  0.3868  0.4952  0.7497
 8599TIP3    H247289   6.268   2.782   5.867  0.7682  0.8407  0.6985
 8600TIP3   OH247290   0.593   5.845   4.917  0.0264  0.5539  0.6831
 8600TIP3    H147291   0.519   5.784   4.917  0.5751 -0.1211 -0.0835
 8600TIP3    H247292   0.572   5.909   4.985 -0.7575 -0.2562  1.2048
 8601TIP3   OH247293   5.729   4.454  12.640  0.0973  0.0134  0.2809
 8601TIP3    H147294   5.763   4.534  12.598 -0.6917  0.1007 -0.2052
 8601TIP3    H247295   5.664   4.421  12.578  0.8067 -1.3078  0.2257
 8602TIP3   OH247296   5.594   2.543  15.780  0.6581 -0.0383  0.2114
 8602TIP3    H147297   5.659   2.589  15.833  1.6385 -0.2398 -0.8098
 8602TIP3    H247298   5.619   2.561  15.690  0.7776 -2.2102 -0.2098
 8603TIP3   OH247299   6.301   3.563   6.008 -0.2669 -0.5381 -0.6916
 8603TIP3    H147300   6.242   3.503   6.054  1.7772 -1.8479  0.3623
 8603TIP3    H247301   6.256   3.585   5.927 -1.3048 -3.1117 -0.8539
 8604TIP3   OH247302   5.862   1.777  12.152  0.1708 -0.4251 -0.2147
 8604TIP3    H147303   5.898   1.866  12.150  1.2140 -0.8473 -0.8700
 8604TIP3    H247304   5.932   1.724  12.189 -1.2960 -0.6361  2.4169
 8605TIP3   OH247305   2.932   1.772  13.705  0.5880 -0.1756  0.4386
 8605TIP3    H147306   2.837   1.758  13.700  0.6987 -0.4789 -1.0208
 8605TIP3    H247307   2.941   1.865  13.724 -0.0150 -0.3139  1.4335
 8606TIP3   OH247308   5.661   4.918  15.355  0.6449 -0.6821 -0.2189
 8606TIP3    H147309   5.756   4.922  15.362  0.6415 -1.1138  0.0613
 8606TIP3    H247310   5.640   4.971  15.278  1.0168  0.4004  0.4159
 8607TIP3   OH247311   4.830   1.909  16.660 -0.0377 -0.1263  0.0746
 8607TIP3    H147312   4.843   1.817  16.683 -0.5057 -0.3079 -0.4024
 8607TIP3    H247313   4.810   1.952  16.744  0.1706 -0.4527  0.2908
 8608TIP3   OH247314   6.061   5.409   5.739 -0.0151 -0.5098 -0.3706
 8608TIP3    H147315   6.045   5.488   5.686 -0.1270 -0.1398  0.2031
 8608TIP3    H247316   6.150   5.420   5.770 -0.2169 -0.3372  0.1567
 8609TIP3   OH247317   1.986   1.731  14.206 -0.7738  0.3586 -0.1658
 8609TIP3    H147318   1.994   1.764  14.296 -0.7017 -0.8987  0.2892
 8609TIP3    H247319   1.993   1.636  14.214  0.4842  0.3015 -1.6310
 8610TIP3   OH247320   3.189   0.832  14.369 -0.6184  0.4025 -0.3435
 8610TIP3    H147321   3.110   0.787  14.339  0.3907 -0.6002 -1.5740
 8610TIP3    H247322   3.259   0.798  14.313  0.9277  0.3067  1.5992
 8611TIP3   OH247323   2.621   3.602   0.120  0.2323 -0.1889 -0.2460
 8611TIP3    H147324   2.533   3.606   0.082 -0.1673 -1.8789  0.4466
 8611TIP3    H247325   2.610   3.638   0.208  0.2865 -0.0898 -0.2810
 8612TIP3   OH247326   5.045   3.111   2.426 -0.2951  0.1700 -1.1382
 8612TIP3    H147327   4.994   3.071   2.497 -0.7149 -0.2074 -1.6452
 8612TIP3    H247328   5.135   3.087   2.444 -0.1284  1.9301  0.4953
 8613TIP3   OH247329   1.068   5.010  16.725 -0.0690  0.0826  0.0746
 8613TIP3    H147330   0.991   5.067  16.724 -0.0797  0.0622 -0.2760
 8613TIP3    H247331   1.078   4.984  16.817  0.6056  1.5584  0.4240
 8614TIP3   OH247332   6.025   2.734  17.201 -0.5284  0.9159  0.5489
 8614TIP3    H147333   6.071   2.729  17.117  0.5148  0.4082  1.1454
 8614TIP3    H247334   6.029   2.645  17.237 -0.2974  1.2985  1.4884
 8615TIP3   OH247335   3.207   5.760   1.417  0.1496  0.4004 -0.2580
 8615TIP3    H147336   3.222   5.674   1.376 -0.9284  0.8474 -1.6196
 8615TIP3    H247337   3.172   5.739   1.504  1.4195 -0.5506  0.0413
 8616TIP3   OH247338   6.539   1.030  16.031  0.2430 -0.4659 -0.3569
 8616TIP3    H147339   6.570   1.038  15.940  1.8900 -0.5251  0.1733
 8616TIP3    H247340   6.616   1.000  16.079 -0.8191 -1.1373  0.9404
 8617TIP3   OH247341   2.401   0.236  11.177  0.2580  0.3632  0.2597
 8617TIP3    H147342   2.365   0.318  11.145 -0.9411 -0.3293 -0.2008
 8617TIP3    H247343   2.334   0.200  11.235  1.4447  0.4772  1.7440
 8618TIP3   OH247344   3.934   2.844  17.209  0.2454 -0.0796  0.0871
 8618TIP3    H147345   4.012   2.808  17.166  0.6801  1.4582 -0.4158
 8618TIP3    H247346   3.862   2.821  17.151  0.4075 -0.8151  0.1646
 8619TIP3   OH247347   0.720   3.496  16.175 -0.0672 -0.3535  0.3904
 8619TIP3    H147348   0.780   3.522  16.245  0.7570  0.0335 -0.4459
 8619TIP3    H247349   0.739   3.403  16.161  1.6080  0.1873 -1.0844
 8620TIP3   OH247350   1.798   0.044  13.181 -0.4492  0.1841  0.2119
 8620TIP3    H147351   1.891   0.047  13.159 -0.2029 -3.2638  0.6048
 8620TIP3    H247352   1.796   0.042  13.277 -0.9636  0.3523  0.2097
 8621TIP3   OH247353   0.857   4.422  16.003 -0.0109  0.3937  0.1574
 8621TIP3    H147354   0.939   4.461  16.033  0.9730 -1.2866 -0.3170
 8621TIP3    H247355   0.826   4.371  16.078 -0.4989  0.8223  0.2510
 8622TIP3   OH247356   5.632   5.395   5.730  0.4546  0.1186  0.5221
 8622TIP3    H147357   5.592   5.318   5.772 -0.6791  0.2179 -0.3502
 8622TIP3    H247358   5.670   5.361   5.649  2.9877 -0.1423  1.7853
 8623TIP3   OH247359   3.731   0.496   0.347  0.3846 -0.0156  0.0320
 8623TIP3    H147360   3.690   0.580   0.367  0.8046  0.5908 -1.5977
 8623TIP3    H247361   3.800   0.487   0.413 -0.7991  0.0851  1.2979
 8624TIP3   OH247362   0.601   6.539   0.967  0.6343  0.3980  0.4034
 8624TIP3    H147363   0.679   6.559   0.915  0.3041 -1.8191 -1.0220
 8624TIP3    H247364   0.634   6.487   1.040  0.6206  0.2720  0.3210
 8625TIP3   OH247365   3.160   2.218  12.777  0.7200 -0.1363  0.1434
 8625TIP3    H147366   3.148   2.293  12.835 -1.2012  0.2742 -0.7536
 8625TIP3    H247367   3.229   2.244  12.717  0.3294  0.7596  0.0815
 8626TIP3   OH247368   1.635   2.825  11.908  0.3192 -0.4783  0.3270
 8626TIP3    H147369   1.577   2.878  11.963  1.2438  0.5296  0.3558
 8626TIP3    H247370   1.579   2.756  11.873 -1.1002  1.0221 -0.3992
 8627TIP3   OH247371   1.010   3.383  11.611  0.7200  0.2564  0.3479
 8627TIP3    H147372   1.008   3.349  11.522 -1.9727 -1.0996  0.8825
 8627TIP3    H247373   0.979   3.474  11.603  1.8396  0.5872 -0.2692
 8628TIP3   OH247374   5.050   4.134  13.099  0.3265 -0.3677 -0.0466
 8628TIP3    H147375   4.986   4.185  13.149  2.0258  0.0329  1.7722
 8628TIP3    H247376   5.002   4.105  13.021 -1.1263  2.6369 -0.3134
 8629TIP3   OH247377   4.756   3.955   5.300  0.5824 -0.1410 -0.6202
 8629TIP3    H147378   4.833   3.940   5.246  0.8538  1.5012 -0.7111
 8629TIP3    H247379   4.777   4.033   5.352 -1.1206  0.5203 -0.8782
 8630TIP3   OH247380   4.655   1.742  16.309  0.0404  0.4271 -0.3915
 8630TIP3    H147381   4.661   1.663  16.363  1.0528  1.3196  0.8248
 8630TIP3    H247382   4.657   1.709  16.219 -0.1572 -0.9804  0.1033
 8631TIP3   OH247383   6.659   2.264  11.568 -0.3574  0.1059 -0.1087
 8631TIP3    H147384   6.597   2.246  11.639  1.3838 -0.6562  1.2361
 8631TIP3    H247385   6.726   2.319  11.607  1.7386 -2.0517 -0.5930
 8632TIP3   OH247386   1.870   2.662   3.627  0.1217  0.2513 -0.4270
 8632TIP3    H147387   1.864   2.691   3.718 -1.2012  0.0995 -0.4501
 8632TIP3    H247388   1.958   2.687   3.599  0.6959 -0.1103  1.0349
 8633TIP3   OH247389   3.106   2.250  11.150  0.1891  0.6673  0.2680
 8633TIP3    H147390   3.069   2.247  11.062 -1.8732  1.1686  1.0869
 8633TIP3    H247391   3.032   2.236  11.208  1.5036  0.4684  1.9445
 8634TIP3   OH247392   4.182   0.449  16.626 -0.5990  0.5571 -0.8269
 8634TIP3    H147393   4.190   0.445  16.530  3.3691  0.4601 -0.5614
 8634TIP3    H247394   4.208   0.538  16.648  0.7965 -0.1397  0.3537
 8635TIP3   OH247395   3.734   2.413   2.951  0.4482  0.2813 -0.2123
 8635TIP3    H147396   3.689   2.329   2.959 -0.9807  1.0122 -0.4335
 8635TIP3    H247397   3.734   2.431   2.857 -0.7454  1.3142 -0.0235
 8636TIP3   OH247398   3.358   4.997  13.909 -0.5837  0.2519 -0.2101
 8636TIP3    H147399   3.385   5.080  13.949 -1.6010  1.1565 -1.3803
 8636TIP3    H247400   3.323   4.946  13.982  1.1412  0.3756  0.7311
 8637TIP3   OH247401   6.348   2.422  12.048 -0.3005 -0.2957 -0.2894
 8637TIP3    H147402   6.404   2.450  12.120 -1.1345 -0.8207  0.5803
 8637TIP3    H247403   6.260   2.446  12.076 -0.4758  0.9295 -1.8403
 8638TIP3   OH247404   4.169   1.131   0.918 -0.5381 -0.3123 -0.3385
 8638TIP3    H147405   4.193   1.223   0.913  0.7273 -0.7286 -2.2494
 8638TIP3    H247406   4.080   1.127   0.883 -0.1442  0.0197 -1.3834
 8639TIP3   OH247407   4.547   1.710  14.541  0.2470  0.1097 -0.7875
 8639TIP3    H147408   4.514   1.799  14.536 -0.8952 -0.2326  0.2318
 8639TIP3    H247409   4.556   1.693  14.635  1.5689 -0.4528 -1.0044
 8640TIP3   OH247410   1.302   5.538  11.182  0.4409 -0.3923 -0.2074
 8640TIP3    H147411   1.271   5.548  11.092 -0.7194  0.5734  0.2815
 8640TIP3    H247412   1.238   5.480  11.222 -1.0442  1.9717  0.9382
 8641TIP3   OH247413   2.771   0.417   5.721  1.0815 -0.0981  0.2914
 8641TIP3    H147414   2.734   0.339   5.764  0.6488  0.0832  0.2473
 8641TIP3    H247415   2.730   0.491   5.765  0.0980  0.0828 -0.9127
 8642TIP3   OH247416   4.807   2.694   1.675 -0.4351 -0.4319  0.1193
 8642TIP3    H147417   4.889   2.706   1.723  0.0493  0.7975 -0.9756
 8642TIP3    H247418   4.760   2.777   1.687 -0.4310 -0.2115 -1.2789
 8643TIP3   OH247419   3.630   4.580   2.084  0.1159  0.2754  0.0033
 8643TIP3    H147420   3.702   4.548   2.029  1.5112  1.8427  0.8420
 8643TIP3    H247421   3.569   4.507   2.089  0.8525 -0.5141 -2.1171
 8644TIP3   OH247422   2.168   1.893   0.555  0.0284  0.2865 -0.1032
 8644TIP3    H147423   2.224   1.928   0.625  2.9769  0.0465 -2.2268
 8644TIP3    H247424   2.224   1.895   0.477 -1.7237 -3.4346 -1.5668
 8645TIP3   OH247425   2.342   4.025  11.640  0.2727  0.2377 -0.3467
 8645TIP3    H147426   2.367   4.073  11.561  1.8065 -0.9648 -0.6195
 8645TIP3    H247427   2.412   3.960  11.651 -0.7800 -0.6670  1.0819
 8646TIP3   OH247428   6.045   2.890  16.644 -0.3736 -0.5056  0.0767
 8646TIP3    H147429   6.099   2.843  16.581 -0.6701  0.6775 -1.0577
 8646TIP3    H247430   6.007   2.962  16.595 -0.7812  0.3032  1.5579
 8647TIP3   OH247431   5.457   3.861   4.723  0.0860 -0.2061 -0.1054
 8647TIP3    H147432   5.548   3.836   4.708  0.4796  2.1745 -1.9815
 8647TIP3    H247433   5.425   3.888   4.637 -2.2600 -0.5828  0.6188
 8648TIP3   OH247434   4.686   0.683   0.156 -0.4145  0.3761  0.3010
 8648TIP3    H147435   4.663   0.667   0.247 -3.4667 -2.0190 -0.7901
 8648TIP3    H247436   4.617   0.739   0.123 -0.8342 -0.9744 -1.2073
 8649TIP3   OH247437   2.923   2.265  13.844 -0.3062  0.3653 -0.4930
 8649TIP3    H147438   2.835   2.230  13.831 -0.2176  0.7491 -2.2913
 8649TIP3    H247439   2.935   2.328  13.773  1.9472 -0.7778 -1.2018
 8650TIP3   OH247440   5.727   3.816  11.770 -0.0984 -0.0981 -0.1275
 8650TIP3    H147441   5.741   3.722  11.763  2.4727  0.4118 -2.8298
 8650TIP3    H247442   5.791   3.845  11.834 -0.2334 -0.0288 -0.0223
 8651TIP3   OH247443   3.758   5.985  13.684  0.2513 -0.7674  0.1730
 8651TIP3    H147444   3.693   5.985  13.614 -0.4801 -0.0580  0.8367
 8651TIP3    H247445   3.768   6.077  13.708  0.0735 -1.0517  1.3839
 8652TIP3   OH247446   3.929   1.878   3.680  0.3148  0.0478  0.4351
 8652TIP3    H147447   4.002   1.911   3.628  0.5262  0.9535  1.3025
 8652TIP3    H247448   3.859   1.942   3.667  0.2070  0.0199  0.8750
 8653TIP3   OH247449   1.654   5.510   5.898  0.4724 -0.1967  0.3076
 8653TIP3    H147450   1.723   5.476   5.956  0.4517  0.6041  0.8034
 8653TIP3    H247451   1.668   5.463   5.816 -0.6511 -2.7391  1.4893
 8654TIP3   OH247452   6.659   1.183   0.255  0.3164 -0.5049  0.1932
 8654TIP3    H147453   6.716   1.257   0.277 -1.1974  0.7867 -0.1820
 8654TIP3    H247454   6.595   1.179   0.326 -1.0899  0.0889 -1.0110
 8655TIP3   OH247455   2.534   0.455  13.718  0.1797  0.6728 -0.0765
 8655TIP3    H147456   2.616   0.456  13.669  0.3342 -1.4962  0.1207
 8655TIP3    H247457   2.554   0.500  13.800  0.7628  1.4826 -0.6607
 8656TIP3   OH247458   1.881   5.673   4.906  0.4936  0.2463 -0.2329
 8656TIP3    H147459   1.965   5.629   4.917  1.3322  1.6089 -1.0489
 8656TIP3    H247460   1.842   5.672   4.994  0.3356 -2.3728 -0.2978
 8657TIP3   OH247461   6.052   5.028  12.222  0.0894 -0.9180  0.1394
 8657TIP3    H147462   6.021   5.085  12.292 -1.6457 -2.6875  0.8707
 8657TIP3    H247463   6.141   5.004  12.248  0.0579 -0.2545  0.8889
 8658TIP3   OH247464   4.595   0.362   2.858 -0.1831 -0.5875  0.5351
 8658TIP3    H147465   4.541   0.435   2.888 -0.0194  0.0584 -0.7371
 8658TIP3    H247466   4.681   0.400   2.841  0.3027 -1.3561  1.2468
 8659TIP3   OH247467   2.571   6.171   3.085  0.0632 -0.6122  0.3162
 8659TIP3    H147468   2.634   6.173   3.013 -0.3290 -0.3310 -0.0223
 8659TIP3    H247469   2.608   6.230   3.150 -0.9579  1.3504 -0.8246
 8660TIP3   OH247470   3.602   0.270  12.489  0.1732 -0.0214 -0.2764
 8660TIP3    H147471   3.668   0.287  12.556 -0.4456 -0.9135  0.5775
 8660TIP3    H247472   3.652   0.267  12.407  1.1319 -0.2573  0.3054
 8661TIP3   OH247473   2.602   4.229  13.838 -0.1507 -0.1926  0.7264
 8661TIP3    H147474   2.536   4.208  13.772  0.0409 -1.1084  0.8150
 8661TIP3    H247475   2.667   4.160  13.830  0.2264  0.0702  1.4089
 8662TIP3   OH247476   3.147   5.494   4.378 -0.8204 -0.2110  0.0877
 8662TIP3    H147477   3.084   5.515   4.310  0.0585 -2.2586 -1.4056
 8662TIP3    H247478   3.222   5.550   4.360  0.0970 -1.9684 -1.7117
 8663TIP3   OH247479   3.565   0.244  14.235  0.8244 -0.5915  0.0076
 8663TIP3    H147480   3.606   0.211  14.315 -1.7547  0.3584  1.7794
 8663TIP3    H247481   3.613   0.325  14.216 -0.2060  0.5670  2.1064
 8664TIP3   OH247482   2.367   0.859  13.568 -0.0358 -0.0343  0.2133
 8664TIP3    H147483   2.377   0.773  13.528 -0.7999 -0.0224  0.0043
 8664TIP3    H247484   2.296   0.901  13.519  1.1605  1.1884 -0.5260
 8665TIP3   OH247485   5.877   3.031  13.027  0.4956 -0.0464 -0.1712
 8665TIP3    H147486   5.840   3.063  13.110  0.2711  1.8590 -0.9892
 8665TIP3    H247487   5.805   2.981  12.988  0.0730  0.3606  0.0682
 8666TIP3   OH247488   6.553   1.779   1.025  0.0688 -0.0272 -0.0190
 8666TIP3    H147489   6.506   1.808   0.947  1.6410  0.2836 -0.8695
 8666TIP3    H247490   6.645   1.796   1.005  1.0697 -5.1157 -0.3969
 8667TIP3   OH247491   2.847   0.162   5.953 -0.0783  0.0495 -0.1004
 8667TIP3    H147492   2.856   0.099   6.024  0.9146  0.1048 -0.1676
 8667TIP3    H247493   2.910   0.231   5.975  0.3907 -0.0394 -1.1495
 8668TIP3   OH247494   2.807   3.599  15.682 -0.9848  0.6579  0.3784
 8668TIP3    H147495   2.714   3.587  15.701 -1.0367 -0.8438 -0.7469
 8668TIP3    H247496   2.808   3.647  15.599 -0.7451  1.9278  1.0994
 8669TIP3   OH247497   0.387   6.119  12.554 -0.3734 -0.1801 -0.3746
 8669TIP3    H147498   0.431   6.189  12.506  0.6472  0.0404  0.8761
 8669TIP3    H247499   0.451   6.048  12.557  0.0950  0.3000  1.8341
 8670TIP3   OH247500   5.049   5.359   2.407 -0.0197  0.4454 -0.6277
 8670TIP3    H147501   5.132   5.403   2.425  0.1989  0.1424 -0.8811
 8670TIP3    H247502   4.983   5.411   2.453  0.1719  1.3167 -1.3271
 8671TIP3   OH247503   6.691   2.275  16.543  0.1392 -0.1290 -0.1845
 8671TIP3    H147504   6.651   2.251  16.627 -0.4058  0.3152 -0.3078
 8671TIP3    H247505   6.770   2.323  16.567 -0.1818  0.2768  0.0885
 8672TIP3   OH247506   6.645   0.823   2.206 -0.0195 -0.3376 -0.5826
 8672TIP3    H147507   6.584   0.770   2.154  0.6835  0.0255 -1.7918
 8672TIP3    H247508   6.613   0.913   2.195 -1.5635 -0.5146  1.9406
 8673TIP3   OH247509   6.379   1.192  15.186  0.0456 -0.3741  0.0196
 8673TIP3    H147510   6.446   1.223  15.247  0.5103  1.2029 -1.2809
 8673TIP3    H247511   6.408   1.104  15.161  0.1546 -0.8101  1.5955
 8674TIP3   OH247512   4.019   6.448   0.515 -0.1608  0.1840  0.0275
 8674TIP3    H147513   4.006   6.421   0.605 -0.4276  2.4118  0.6906
 8674TIP3    H247514   4.090   6.393   0.483  0.3060 -0.2446  1.7742
 8675TIP3   OH247515   1.676   1.224   1.438  0.7719  0.5535  0.4156
 8675TIP3    H147516   1.653   1.272   1.358  1.1319 -0.8169 -0.5261
 8675TIP3    H247517   1.593   1.215   1.484  0.1308 -0.6557 -0.9319
 8676TIP3   OH247518   0.072   1.715  12.804 -0.0270  0.2026  0.0854
 8676TIP3    H147519   0.126   1.794  12.807 -1.2022  0.9672  2.0307
 8676TIP3    H247520   0.100   1.665  12.880  0.2170 -0.9500 -0.7457
 8677TIP3   OH247521   6.765   6.739  16.227 -0.2479 -0.1919 -0.1261
 8677TIP3    H147522   6.799   6.653  16.200 -0.3002 -0.2589  0.0212
 8677TIP3    H247523   6.803   6.800  16.164 -0.3185 -0.3403 -0.3128
 8678TIP3   OH247524   4.667   0.598   0.451 -0.0700 -0.2874 -0.5060
 8678TIP3    H147525   4.691   0.554   0.533 -2.5979 -0.5563  0.1083
 8678TIP3    H247526   4.664   0.691   0.474  1.7495 -0.0931 -0.9487
 8679TIP3   OH247527   5.857   0.598  11.254 -0.0859  0.1209 -0.6296
 8679TIP3    H147528   5.872   0.506  11.232 -0.6578  0.2301 -1.5055
 8679TIP3    H247529   5.819   0.636  11.174  1.1999  1.3802 -0.6714
 8680TIP3   OH247530   0.317   2.600  13.466  0.1355  0.2867  0.0517
 8680TIP3    H147531   0.282   2.511  13.464 -1.9333  0.9777  2.9462
 8680TIP3    H247532   0.378   2.600  13.540  0.0125  1.3113  0.1658
 8681TIP3   OH247533   2.081   3.640   0.079 -0.7464  1.2074  0.1460
 8681TIP3    H147534   2.072   3.547   0.101  0.4760  0.7214 -1.2989
 8681TIP3    H247535   2.006   3.659   0.023 -0.4944  0.8197 -0.3346
 8682TIP3   OH247536   0.518   5.872   6.189  0.5471 -0.7481  0.2133
 8682TIP3    H147537   0.611   5.885   6.207  0.9954 -3.0468 -0.3052
 8682TIP3    H247538   0.498   5.935   6.120  1.1814  1.2179  1.7507
 8683TIP3   OH247539   2.536   3.177   3.220  0.2112 -0.0604  0.3663
 8683TIP3    H147540   2.616   3.214   3.184  0.7402  0.7472  2.2997
 8683TIP3    H247541   2.504   3.243   3.282 -0.8714 -1.2109  1.0772
 8684TIP3   OH247542   4.592   0.454  14.181 -0.2692  0.4654 -0.2762
 8684TIP3    H147543   4.669   0.502  14.213 -1.1475  1.4267  0.4294
 8684TIP3    H247544   4.520   0.516  14.190 -1.3101 -0.7708 -0.0028
 8685TIP3   OH247545   2.901   6.100   3.234  0.1585  0.0023  1.2918
 8685TIP3    H147546   2.977   6.089   3.290  1.0892 -3.2982 -0.4414
 8685TIP3    H247547   2.931   6.159   3.165  1.8449 -2.6635 -0.3743
 8686TIP3   OH247548   2.193   0.669  13.336  0.2277 -0.6669  0.0612
 8686TIP3    H147549   2.279   0.705  13.357  0.1115 -0.1803 -0.2828
 8686TIP3    H247550   2.207   0.620  13.255  0.1647 -0.5262 -0.0343
 8687TIP3   OH247551   5.558   4.629  15.590 -0.3877 -0.4296  0.8133
 8687TIP3    H147552   5.588   4.561  15.530  1.6239  1.4534 -0.4249
 8687TIP3    H247553   5.636   4.683  15.605 -2.3504  2.6510  0.2962
 8688TIP3   OH247554   0.326   2.050  11.745  0.5023  0.5893 -0.0332
 8688TIP3    H147555   0.287   2.138  11.747  0.7446  0.6834  1.1962
 8688TIP3    H247556   0.267   1.997  11.800  1.2386  0.3620  0.5467
 8689TIP3   OH247557   2.011   6.801  12.612  0.4484 -0.0558  0.0010
 8689TIP3    H147558   2.062   6.867  12.658 -0.9605 -0.7806  2.6782
 8689TIP3    H247559   1.927   6.799  12.657 -0.2878 -2.2086 -1.3491
 8690TIP3   OH247560   2.612   6.721  11.488 -0.2792  0.5399 -0.5258
 8690TIP3    H147561   2.538   6.675  11.450 -0.5899  0.3211  0.3229
 8690TIP3    H247562   2.644   6.779  11.419 -0.4636 -0.2759 -1.2945
 8691TIP3   OH247563   1.605   2.331   3.059  0.1107 -0.6516  0.3904
 8691TIP3    H147564   1.676   2.267   3.063  1.0480  0.2149 -1.5424
 8691TIP3    H247565   1.617   2.385   3.137  1.8109 -0.3171 -0.0689
 8692TIP3   OH247566   4.401   2.110   2.843 -0.0648  0.2038  0.0989
 8692TIP3    H147567   4.371   2.188   2.889 -0.5444  1.1527 -1.7828
 8692TIP3    H247568   4.491   2.130   2.819 -1.8149  2.5209 -5.1941
 8693TIP3   OH247569   1.283   5.127  15.555 -0.4601  0.0844  0.3329
 8693TIP3    H147570   1.353   5.161  15.611 -0.9787 -0.4107  1.2980
 8693TIP3    H247571   1.269   5.037  15.587 -0.8378 -0.1679 -0.5206
 8694TIP3   OH247572   3.473   6.618  13.525 -0.5136  0.7348  0.0515
 8694TIP3    H147573   3.556   6.575  13.506 -0.4486  0.2023  1.4782
 8694TIP3    H247574   3.415   6.548  13.554 -0.0917  1.6677  3.3920
 8695TIP3   OH247575   3.441   2.405   2.704 -0.2545  0.1529 -0.2526
 8695TIP3    H147576   3.457   2.324   2.656 -1.0307  0.2722 -0.7349
 8695TIP3    H247577   3.513   2.462   2.680  0.0095 -0.2124 -0.3304
 8696TIP3   OH247578   6.767   2.017   5.515  0.0174 -0.7329 -0.5455
 8696TIP3    H147579   6.678   2.049   5.528  0.5448  0.6918 -0.3970
 8696TIP3    H247580   6.823   2.092   5.532  1.2462 -1.5292 -0.9576
 8697TIP3   OH247581   5.406   6.140   4.092  0.4213  0.3926 -0.1664
 8697TIP3    H147582   5.454   6.135   4.009  0.1404 -0.1026 -0.3039
 8697TIP3    H247583   5.324   6.184   4.070 -0.1065 -0.6640 -0.3754
 8698TIP3   OH247584   3.493   6.388  15.723 -0.3432  0.4691  0.0670
 8698TIP3    H147585   3.505   6.375  15.629  0.0408 -0.1936  0.2068
 8698TIP3    H247586   3.567   6.342  15.763 -0.4831  0.7861  0.6928
 8699TIP3   OH247587   3.389   4.872   6.223  0.1100  0.3270  0.1796
 8699TIP3    H147588   3.297   4.865   6.247  0.0573  0.3420 -0.0170
 8699TIP3    H247589   3.424   4.784   6.240 -0.1097  0.1122 -0.4382
 8700TIP3   OH247590   2.232   5.584  14.694 -0.4065 -0.3209  0.1025
 8700TIP3    H147591   2.198   5.558  14.608 -0.9501  0.7534 -0.0174
 8700TIP3    H247592   2.157   5.574  14.753 -1.0074  2.1093 -0.1709
 8701TIP3   OH247593   0.865   4.055   3.932 -0.7601  0.3792 -0.1311
 8701TIP3    H147594   0.778   4.094   3.941  0.1576  2.5374 -0.2399
 8701TIP3    H247595   0.874   4.036   3.839 -0.7047  1.2045 -0.3003
 8702TIP3   OH247596   4.316   2.893  15.303 -0.0078 -0.2787 -0.1880
 8702TIP3    H147597   4.229   2.912  15.339 -0.5059 -0.4801 -1.2337
 8702TIP3    H247598   4.336   2.805  15.334 -0.2001 -0.2520  0.0139
 8703TIP3   OH247599   1.543   5.610  13.943  0.4052 -0.0603  0.2961
 8703TIP3    H147600   1.448   5.615  13.930  0.7206  1.8317 -1.7626
 8703TIP3    H247601   1.555   5.608  14.038 -1.6877 -0.4542  0.5762
 8704TIP3   OH247602   4.881   4.300   2.973  0.6464 -0.5048  0.3134
 8704TIP3    H147603   4.789   4.275   2.969  0.4373  0.4791 -1.5533
 8704TIP3    H247604   4.927   4.218   2.990 -0.6654 -0.7885  2.6303
 8705TIP3   OH247605   3.769   6.132  13.390  0.7304 -0.2826  0.7664
 8705TIP3    H147606   3.684   6.118  13.347  1.0742  0.1356 -0.0464
 8705TIP3    H247607   3.773   6.226  13.404 -0.4620 -0.6194  3.9694
 8706TIP3   OH247608   6.064   1.496   4.390 -0.0965 -0.6150  0.3817
 8706TIP3    H147609   6.128   1.430   4.418 -1.5409 -1.3933  1.9093
 8706TIP3    H247610   6.109   1.544   4.320  2.4053 -0.6891  1.8864
 8707TIP3   OH247611   1.651   4.329  12.081 -0.2561  0.1301 -0.3368
 8707TIP3    H147612   1.658   4.234  12.066 -2.6663 -0.0950 -0.1132
 8707TIP3    H247613   1.650   4.338  12.176 -1.8147  0.2433 -0.3666
 8708TIP3   OH247614   3.006   2.214   0.085  0.0018  0.5990  0.5870
 8708TIP3    H147615   2.994   2.275   0.013  0.3282 -1.2806 -1.1053
 8708TIP3    H247616   2.943   2.242   0.151 -3.0705  0.0855 -1.9723
 8709TIP3   OH247617   6.402   1.586  17.073  0.0074 -0.4868  0.4205
 8709TIP3    H147618   6.386   1.680  17.069  1.7360 -0.2097 -0.4010
 8709TIP3    H247619   6.371   1.559  17.160 -1.5960  0.6189  0.1974
 8710TIP3   OH247620   5.122   3.335  12.459 -0.2068  0.2313  0.1441
 8710TIP3    H147621   5.079   3.411  12.498 -0.8660  0.5250 -1.1492
 8710TIP3    H247622   5.173   3.297  12.531 -2.2564  0.1296  1.5677
 8711TIP3   OH247623   6.304   1.905  16.599  0.3039 -0.3019 -0.5680
 8711TIP3    H147624   6.237   1.837  16.585  0.1896 -0.8499  2.2341
 8711TIP3    H247625   6.354   1.906  16.518 -1.3116 -1.9345 -1.6414
 8712TIP3   OH247626   4.469   2.533  16.262 -0.2185  0.2338  0.1140
 8712TIP3    H147627   4.524   2.592  16.314 -0.5044  0.0438  0.6395
 8712TIP3    H247628   4.481   2.447  16.302  0.1270 -0.0490 -0.5932
 8713TIP3   OH247629   0.682   1.399   5.872 -0.0067 -0.1853 -0.7127
 8713TIP3    H147630   0.774   1.419   5.886 -0.0098  0.0658 -1.0347
 8713TIP3    H247631   0.651   1.366   5.956  0.9114 -2.3518 -1.2154
 8714TIP3   OH247632   0.012   4.760  11.872 -1.0581  0.9192 -0.6554
 8714TIP3    H147633  -0.058   4.790  11.929 -1.1640 -0.7737  0.1499
 8714TIP3    H247634  -0.030   4.699  11.812 -0.7978  2.0999 -2.0726
 8715TIP3   OH247635   2.847   0.405   0.627 -0.0449 -0.1413  0.1835
 8715TIP3    H147636   2.813   0.494   0.635  0.0006 -0.0404 -0.7538
 8715TIP3    H247637   2.847   0.372   0.717 -0.1218  0.7781  0.5320
 8716TIP3   OH247638   1.785   4.973  14.290 -0.7380  0.1400  0.1620
 8716TIP3    H147639   1.766   5.058  14.250 -0.0505  0.4325  0.4605
 8716TIP3    H247640   1.832   4.994  14.370  0.8817 -0.5778 -0.5742
 8717TIP3   OH247641   0.083   3.138   5.816 -0.3159 -0.1590  0.1055
 8717TIP3    H147642   0.126   3.188   5.747  1.7553 -0.0357  1.4033
 8717TIP3    H247643   0.113   3.048   5.803  1.6074  0.1684  1.8798
 8718TIP3   OH247644   2.666   2.520  13.773  0.1085  0.4573  0.1970
 8718TIP3    H147645   2.728   2.523  13.845 -0.2570 -1.1392  0.5999
 8718TIP3    H247646   2.618   2.438  13.786 -0.4115  0.4719 -1.4699
 8719TIP3   OH247647   5.466   3.831   5.787 -0.2717 -0.4591  0.1499
 8719TIP3    H147648   5.377   3.864   5.797  0.1145  0.0137  2.5282
 8719TIP3    H247649   5.521   3.902   5.820  1.0276 -0.5817 -1.6866
 8720TIP3   OH247650   0.454   1.140   2.265 -0.0531 -0.2288  0.0875
 8720TIP3    H147651   0.385   1.074   2.258  0.6364 -0.9039 -0.4063
 8720TIP3    H247652   0.478   1.160   2.174 -1.3720  1.8991  0.1726
 8721TIP3   OH247653   0.594   4.811  12.136  0.0501  0.6141  0.2670
 8721TIP3    H147654   0.647   4.733  12.121  2.9353  2.6370 -0.6142
 8721TIP3    H247655   0.628   4.875  12.074  0.3720  3.7595  3.5287
 8722TIP3   OH247656   0.101   6.438  12.879 -1.1431 -0.5544 -0.6988
 8722TIP3    H147657   0.126   6.519  12.834 -2.5749  0.1075 -0.3374
 8722TIP3    H247658   0.182   6.407  12.919 -0.6527  0.9237 -0.5038
 8723TIP3   OH247659   3.863   5.385  10.655 -0.5334  0.5639 -0.2910
 8723TIP3    H147660   3.824   5.348  10.734 -0.7832 -0.3740 -0.8364
 8723TIP3    H247661   3.815   5.343  10.583  0.9853 -0.0564 -0.9721
 8724TIP3   OH247662   2.405   2.912  12.595 -0.1297 -0.6614  0.1870
 8724TIP3    H147663   2.317   2.882  12.618 -0.0950 -0.9456 -0.0609
 8724TIP3    H247664   2.447   2.930  12.680  0.3981 -2.8479  0.4157
 8725TIP3   OH247665   1.596   5.815  11.995 -0.3558 -0.0685  0.3263
 8725TIP3    H147666   1.532   5.801  12.065  0.4617 -0.2198  1.0572
 8725TIP3    H247667   1.574   5.749  11.929 -0.1635 -0.9462  1.1398
 8726TIP3   OH247668   1.495   2.141  13.172  0.1106 -0.3263 -0.2796
 8726TIP3    H147669   1.506   2.063  13.118  1.7003  0.3394 -0.9224
 8726TIP3    H247670   1.521   2.214  13.116  0.2548  0.5172  0.8688
 8727TIP3   OH247671   3.517   3.593  12.535  0.6200  0.0616 -0.2748
 8727TIP3    H147672   3.512   3.529  12.607  0.5586  2.1661  1.6735
 8727TIP3    H247673   3.431   3.635  12.535  0.3934 -0.3919 -2.0542
 8728TIP3   OH247674   6.207   3.719   2.694 -0.1460  0.7332 -0.0266
 8728TIP3    H147675   6.156   3.780   2.748 -2.3020 -0.5210 -0.5927
 8728TIP3    H247676   6.293   3.718   2.735 -0.4952  3.0152  0.8792
 8729TIP3   OH247677   1.182   1.898  11.641 -0.4460  0.8488 -0.0803
 8729TIP3    H147678   1.194   1.978  11.590  0.0608  0.7963 -0.0499
 8729TIP3    H247679   1.145   1.835  11.579  0.8101  0.5767 -0.5690
 8730TIP3   OH247680   5.209   1.892   4.504  0.2421 -0.0378 -0.0122
 8730TIP3    H147681   5.274   1.959   4.480  1.7031 -1.5517 -0.3940
 8730TIP3    H247682   5.235   1.864   4.592 -0.3248 -0.1528  0.1229
 8731TIP3   OH247683   2.008   3.894  15.172 -0.3532  0.0161  0.0145
 8731TIP3    H147684   2.034   3.828  15.236  1.0648 -0.0453 -0.6255
 8731TIP3    H247685   2.070   3.884  15.100 -2.0921 -0.0918 -1.5023
 8732TIP3   OH247686   5.879   2.693   5.060  0.1493 -0.0791  0.5945
 8732TIP3    H147687   5.935   2.708   5.137 -0.3470  0.8051  0.7968
 8732TIP3    H247688   5.878   2.778   5.015 -1.2365 -0.0213  0.7372
 8733TIP3   OH247689   5.462   4.409   5.205 -0.1613  0.6799  0.2018
 8733TIP3    H147690   5.522   4.346   5.245 -0.9269  1.6829  3.0582
 8733TIP3    H247691   5.381   4.359   5.191  0.5317 -0.0330 -1.4321
 8734TIP3   OH247692   1.040   4.658  14.915 -0.8100  0.3719 -0.4364
 8734TIP3    H147693   1.053   4.669  14.821 -0.2746 -0.3157 -0.4539
 8734TIP3    H247694   1.061   4.565  14.931 -0.7828  0.5126  0.3742
 8735TIP3   OH247695   6.016   5.165  15.428 -0.8428 -0.0314  0.0666
 8735TIP3    H147696   5.955   5.210  15.370  0.5417  0.7298 -0.8311
 8735TIP3    H247697   6.081   5.232  15.451  1.3604 -1.5820 -1.4601
 8736TIP3   OH247698   0.989   3.921  14.399  0.0620 -0.3815 -0.0453
 8736TIP3    H147699   1.064   3.974  14.426 -0.0497  0.3117 -1.0780
 8736TIP3    H247700   1.028   3.847  14.353  0.1186 -0.0277 -0.5700
 8737TIP3   OH247701   1.664   1.974  16.753 -0.1306 -0.2637  0.0628
 8737TIP3    H147702   1.638   1.990  16.663 -3.1252 -0.3578  0.8540
 8737TIP3    H247703   1.692   2.059  16.786 -2.0165  0.4187 -0.0507
 8738TIP3   OH247704   4.512   6.340   5.666 -0.1926 -0.1552  0.1943
 8738TIP3    H147705   4.436   6.327   5.609  0.1886 -1.8250  0.0268
 8738TIP3    H247706   4.488   6.414   5.722 -0.8775  1.0365 -1.6173
 8739TIP3   OH247707   1.931   4.830  14.048  0.2509  0.1458  0.3082
 8739TIP3    H147708   1.981   4.825  14.130  0.5320  0.1898  0.1411
 8739TIP3    H247709   1.887   4.745  14.041 -1.1232  0.7501  1.3628
 8740TIP3   OH247710   2.536   3.505  14.775 -0.4167  0.4476  0.3366
 8740TIP3    H147711   2.441   3.517  14.775 -0.5220 -0.2101 -1.3900
 8740TIP3    H247712   2.556   3.471  14.862 -2.0499 -1.4845 -0.0048
 8741TIP3   OH247713   1.513   3.065   4.005 -0.3296  0.6741  0.5898
 8741TIP3    H147714   1.521   2.990   4.062 -1.6651  0.4166  0.4637
 8741TIP3    H247715   1.595   3.068   3.956 -0.3014 -0.7380  0.5488
 8742TIP3   OH247716   1.109   1.805   4.701 -0.7024  0.6375  0.2932
 8742TIP3    H147717   1.192   1.774   4.666 -1.1145  1.4968 -1.5313
 8742TIP3    H247718   1.073   1.730   4.748  0.6526 -0.0373  0.2740
 8743TIP3   OH247719   3.198   4.361   1.175 -0.3217  0.0631 -0.4098
 8743TIP3    H147720   3.147   4.287   1.210  2.7788 -2.3011 -0.6217
 8743TIP3    H247721   3.183   4.358   1.081  0.3569 -0.8139 -0.5048
 8744TIP3   OH247722   1.903   4.382   1.363 -0.9836  0.0965  0.3601
 8744TIP3    H147723   1.924   4.289   1.353  2.5019  0.9926 -1.3539
 8744TIP3    H247724   1.961   4.413   1.433 -0.8920  1.3432 -0.2480
 8745TIP3   OH247725   5.793   4.511  17.068 -0.4136  0.0616 -0.3193
 8745TIP3    H147726   5.789   4.456  16.990  0.2398 -0.7405  0.1943
 8745TIP3    H247727   5.704   4.509  17.104 -0.3812 -0.7461 -0.2599
 8746TIP3   OH247728   2.648   2.040  14.393  0.4432 -0.1042 -0.1451
 8746TIP3    H147729   2.704   2.090  14.452  1.1567 -0.3225 -0.6269
 8746TIP3    H247730   2.708   2.004  14.328 -0.2485 -0.4203 -0.6156
 8747TIP3   OH247731   1.705   0.139   6.210  0.2755  0.2012  0.5018
 8747TIP3    H147732   1.751   0.057   6.229 -1.2555 -0.6828  0.4986
 8747TIP3    H247733   1.614   0.121   6.233 -0.4304  1.2663 -1.3561
 8748TIP3   OH247734   4.510   6.631   4.076 -0.2851  0.3998 -0.0169
 8748TIP3    H147735   4.436   6.681   4.042 -0.9295 -0.4609  0.1121
 8748TIP3    H247736   4.545   6.686   4.146 -2.2040 -0.1881  1.4578
 8749TIP3   OH247737   4.651   3.565   1.944  0.2364  0.1298 -0.1440
 8749TIP3    H147738   4.740   3.556   1.978  0.1195 -1.7339 -0.2429
 8749TIP3    H247739   4.650   3.510   1.866 -0.1298  2.6187 -1.9278
 8750TIP3   OH247740   3.891   0.719  15.775  0.3317 -0.1195 -0.2890
 8750TIP3    H147741   3.872   0.680  15.860 -0.2492 -3.1034 -1.7249
 8750TIP3    H247742   3.806   0.746  15.741  0.4623  0.3384 -0.2491
 8751TIP3   OH247743   0.110   1.232   1.082  0.0287 -0.5409  0.1372
 8751TIP3    H147744   0.152   1.297   1.024 -0.8366 -0.6490 -0.6184
 8751TIP3    H247745   0.152   1.149   1.059 -1.7822 -0.9503 -1.8512
 8752TIP3   OH247746   4.639   3.149  10.738 -0.1645 -0.2315 -0.1138
 8752TIP3    H147747   4.703   3.118  10.674 -0.8867  0.6547 -1.2960
 8752TIP3    H247748   4.598   3.224  10.696 -1.1443 -0.0624  1.1170
 8753TIP3   OH247749   0.407   6.296  15.882  0.0737  0.0067 -0.4963
 8753TIP3    H147750   0.434   6.240  15.955  0.3904  0.8894  0.0661
 8753TIP3    H247751   0.462   6.374  15.890 -1.3629  1.0358 -0.4258
 8754TIP3   OH247752   4.701   2.656  15.240 -0.2227 -0.6160  0.1105
 8754TIP3    H147753   4.651   2.619  15.167  1.6950 -0.0073 -1.5387
 8754TIP3    H247754   4.664   2.743  15.252 -2.0631 -1.5399  1.3830
 8755TIP3   OH247755   0.652   2.873   4.058 -0.4898  0.8587  0.3271
 8755TIP3    H147756   0.684   2.871   4.149  2.4628  1.5583 -0.6301
 8755TIP3    H247757   0.665   2.783   4.027  2.3347  1.5044 -0.5706
 8756TIP3   OH247758   6.555   0.855  16.379  0.5680 -0.1272  0.1199
 8756TIP3    H147759   6.549   0.933  16.434 -1.6555  0.7388 -1.2507
 8756TIP3    H247760   6.473   0.808  16.397  0.0905 -0.1284 -1.9241
 8757TIP3   OH247761   0.631   3.506  15.205 -0.5769  0.3874  0.3957
 8757TIP3    H147762   0.668   3.427  15.244  1.4863  0.5928 -1.0565
 8757TIP3    H247763   0.537   3.500  15.223 -0.1395 -1.2045  2.3368
 8758TIP3   OH247764   2.468   5.102   5.611 -0.2308 -0.1759 -0.5400
 8758TIP3    H147765   2.537   5.043   5.642 -0.3548 -0.0558 -0.0302
 8758TIP3    H247766   2.391   5.045   5.603 -0.1318 -0.2607 -0.8724
 8759TIP3   OH247767   0.629   0.335   5.217  0.0247 -0.5345  0.8118
 8759TIP3    H147768   0.606   0.246   5.245 -0.9713 -0.0144  1.6563
 8759TIP3    H247769   0.619   0.389   5.296 -2.1187  0.8142 -0.3284
 8760TIP3   OH247770   2.338   1.453   2.339  0.1800 -0.0572 -0.1346
 8760TIP3    H147771   2.255   1.449   2.291 -0.1004 -0.7533  0.3883
 8760TIP3    H247772   2.402   1.417   2.278  0.5588  2.7692 -1.4577
 8761TIP3   OH247773   6.337   3.222   1.774  0.1893  0.0514 -0.2717
 8761TIP3    H147774   6.262   3.224   1.832 -0.2410  0.9609 -0.8538
 8761TIP3    H247775   6.412   3.240   1.831 -0.2001  0.6818  0.0422
 8762TIP3   OH247776   4.368   3.251   2.842  0.2003  0.2034  0.1975
 8762TIP3    H147777   4.306   3.317   2.810  0.1410  0.5181  0.9531
 8762TIP3    H247778   4.446   3.301   2.866  0.3606 -0.0708  0.2489
 8763TIP3   OH247779   4.647   1.659   2.828  0.3837  0.1799  0.4055
 8763TIP3    H147780   4.607   1.623   2.907 -0.7403 -0.6579 -0.5317
 8763TIP3    H247781   4.741   1.643   2.840  0.0155 -2.1618  0.5064
 8764TIP3   OH247782   2.632   4.432   2.999 -0.2237 -0.3309 -0.5021
 8764TIP3    H147783   2.548   4.423   3.043 -0.9619  0.1967 -1.7993
 8764TIP3    H247784   2.647   4.347   2.958  0.0204 -0.5183 -0.0293
 8765TIP3   OH247785   1.797   6.378  15.858  0.2279 -0.4342 -0.0712
 8765TIP3    H147786   1.823   6.313  15.793 -0.5986 -3.2517  2.2802
 8765TIP3    H247787   1.830   6.344  15.941 -1.5833  1.3410  1.4464
 8766TIP3   OH247788   0.966   4.421   6.030  0.3457 -0.3657  0.3428
 8766TIP3    H147789   0.873   4.444   6.036  0.5022  0.3013  0.3176
 8766TIP3    H247790   1.006   4.463   6.106  0.7343 -0.0888 -0.0078
 8767TIP3   OH247791   0.701   4.448   2.751 -0.9006 -0.7740  0.8534
 8767TIP3    H147792   0.698   4.401   2.667  0.8243  1.1136 -0.3119
 8767TIP3    H247793   0.620   4.499   2.752 -0.5284 -0.1245 -0.1260
 8768TIP3   OH247794   3.506   0.850  12.242  0.5422  0.5551 -0.1101
 8768TIP3    H147795   3.592   0.889  12.253  0.7222  0.2159 -0.3002
 8768TIP3    H247796   3.453   0.920  12.204 -0.0593  1.6794  2.7492
 8769TIP3   OH247797   2.698   1.226  16.593  0.0978  0.5622 -0.0461
 8769TIP3    H147798   2.734   1.170  16.662  0.1190  0.6368  0.0007
 8769TIP3    H247799   2.704   1.172  16.514  1.9889  1.2220 -0.3912
 8770TIP3   OH247800   1.308   1.561  12.389 -0.5757  0.8021  0.2567
 8770TIP3    H147801   1.400   1.552  12.364 -0.2064  0.4287  1.6991
 8770TIP3    H247802   1.298   1.501  12.463 -2.0355  0.6826 -0.0292
 8771TIP3   OH247803   4.168   1.463  14.142 -0.2660  0.4251  0.3943
 8771TIP3    H147804   4.201   1.538  14.193 -1.3845  0.8580  0.4931
 8771TIP3    H247805   4.115   1.503  14.073  2.9413 -0.0293 -2.4612
 8772TIP3   OH247806   5.862   5.466   2.750  0.0010  0.8952 -0.2551
 8772TIP3    H147807   5.827   5.547   2.712 -0.5365  0.1498 -1.3478
 8772TIP3    H247808   5.919   5.430   2.682  3.5684  2.4635  1.7319
 8773TIP3   OH247809   5.856   0.703   0.716  0.5795 -0.3229  0.1237
 8773TIP3    H147810   5.877   0.617   0.679  4.5544 -0.6137  2.7374
 8773TIP3    H247811   5.820   0.683   0.803  1.7559  0.6004  0.8419
 8774TIP3   OH247812   4.782   2.723  13.871 -0.4745 -0.0609 -0.1694
 8774TIP3    H147813   4.858   2.758  13.825  1.9810 -1.9777  2.2842
 8774TIP3    H247814   4.762   2.641  13.825 -0.2434 -0.2006 -0.0230
 8775TIP3   OH247815   1.389   3.459  16.229 -0.2987 -0.1477 -0.3777
 8775TIP3    H147816   1.330   3.470  16.154  0.3631 -0.9069 -1.0228
 8775TIP3    H247817   1.380   3.541  16.278 -1.4408 -0.0139 -0.7808
 8776TIP3   OH247818   4.512   3.898   5.415  0.1702  0.0812 -0.2955
 8776TIP3    H147819   4.602   3.911   5.383 -0.4224  3.5980 -0.7815
 8776TIP3    H247820   4.522   3.874   5.507  1.6780 -3.4821 -1.2913
 8777TIP3   OH247821   3.541   3.495   0.206 -0.5727 -0.0740  0.0262
 8777TIP3    H147822   3.618   3.493   0.149 -0.9846  0.1971 -0.5501
 8777TIP3    H247823   3.562   3.561   0.272 -0.5698  0.4658 -0.5098
 8778TIP3   OH247824   0.831   3.814  13.307 -0.3461 -0.3264 -0.5724
 8778TIP3    H147825   0.872   3.776  13.230  1.5223  1.5982 -0.5542
 8778TIP3    H247826   0.764   3.872  13.273 -0.7944 -0.8966 -0.6779
 8779TIP3   OH247827   4.137   5.864   2.551  0.0076 -0.2810  0.4271
 8779TIP3    H147828   4.212   5.890   2.498  1.4662  0.1251  2.6200
 8779TIP3    H247829   4.171   5.858   2.640 -2.5451 -0.1605  1.4751
 8780TIP3   OH247830   2.467   6.488   3.854  0.5941 -0.2983  0.5269
 8780TIP3    H147831   2.389   6.533   3.820  1.0202  1.5776  1.9132
 8780TIP3    H247832   2.508   6.450   3.776 -0.9025 -0.0253 -0.4250
 8781TIP3   OH247833   5.661   5.538  11.240 -0.4699  0.2079 -0.2851
 8781TIP3    H147834   5.615   5.608  11.287 -0.2180 -0.1553  0.5156
 8781TIP3    H247835   5.650   5.559  11.147  0.9289  2.1911 -0.0405
 8782TIP3   OH247836   3.346   2.485  15.010  0.1516  0.1496 -0.2289
 8782TIP3    H147837   3.416   2.548  14.996 -0.2644  0.5345 -0.5646
 8782TIP3    H247838   3.316   2.461  14.923 -0.4785  0.3672 -0.0735
 8783TIP3   OH247839   3.989   1.104   1.298  0.4275 -0.4069  0.3277
 8783TIP3    H147840   3.963   1.024   1.254  0.7796 -0.1205 -0.4057
 8783TIP3    H247841   4.084   1.099   1.303  0.4406 -0.0990  0.3919
 8784TIP3   OH247842   2.633   4.436   5.292 -0.4501  0.4034  0.6815
 8784TIP3    H147843   2.550   4.481   5.300 -1.3359 -0.7788 -1.4992
 8784TIP3    H247844   2.611   4.351   5.254  1.4762 -0.8707  2.2677
 8785TIP3   OH247845   6.011   0.133   4.951  0.3976  0.0271  0.5301
 8785TIP3    H147846   6.012   0.184   4.870  1.7464 -0.7174  0.0748
 8785TIP3    H247847   6.070   0.060   4.935 -3.7150 -3.3773  0.1003
 8786TIP3   OH247848   0.359   3.546   5.296  0.0322 -0.0514  0.2580
 8786TIP3    H147849   0.408   3.567   5.216 -0.9077 -1.8824 -0.8280
 8786TIP3    H247850   0.426   3.547   5.365  1.4888 -1.7099 -1.0735
 8787TIP3   OH247851   1.392   1.263   2.787  0.2182  0.4697 -0.2451
 8787TIP3    H147852   1.307   1.305   2.798 -0.4373 -0.9813  0.3070
 8787TIP3    H247853   1.453   1.320   2.835 -0.4070  1.5921 -0.7762
 8788TIP3   OH247854   4.553   0.981   5.361  0.5018 -0.5164 -0.3106
 8788TIP3    H147855   4.646   0.977   5.382  0.1714 -2.4733  1.0383
 8788TIP3    H247856   4.510   0.991   5.446 -0.4991  1.1356 -0.9893
 8789TIP3   OH247857   4.267   0.795   3.752  0.4011  0.7893  0.1772
 8789TIP3    H147858   4.191   0.854   3.746  0.1405  0.6351  1.6831
 8789TIP3    H247859   4.331   0.844   3.803  0.8207  0.4158  0.0105
 8790TIP3   OH247860   1.527   6.185  14.264  0.1542 -0.4025 -0.0176
 8790TIP3    H147861   1.478   6.170  14.182  0.3608  1.6529 -0.5458
 8790TIP3    H247862   1.467   6.155  14.333 -0.6627 -0.6719 -0.8294
 8791TIP3   OH247863   0.055   3.651  15.630 -0.1345 -1.0076  0.0802
 8791TIP3    H147864   0.010   3.666  15.713  1.0299  1.6515  0.2794
 8791TIP3    H247865   0.063   3.738  15.591  1.5149 -1.9175 -1.6858
 8792TIP3   OH247866   0.137   2.815  11.251 -0.1321 -0.3745 -0.0744
 8792TIP3    H147867   0.085   2.822  11.171 -1.4859  0.0109  0.8268
 8792TIP3    H247868   0.122   2.898  11.297  1.0852 -0.3629  0.3215
 8793TIP3   OH247869   3.799   6.186   3.207 -0.8825  0.4404  0.5380
 8793TIP3    H147870   3.767   6.096   3.209  1.2484 -0.3577 -0.0216
 8793TIP3    H247871   3.726   6.237   3.170 -1.4731 -1.3377 -0.8046
 8794TIP3   OH247872   4.178   0.931  13.880 -0.1959  0.0636  0.0061
 8794TIP3    H147873   4.231   1.009  13.860  0.2722  0.0690  1.1763
 8794TIP3    H247874   4.110   0.930  13.813  0.5560  0.7658 -0.7834
 8795TIP3   OH247875   5.446   0.394  15.850  0.1426 -0.0457  0.5842
 8795TIP3    H147876   5.352   0.377  15.846  0.0450  0.7793 -1.2136
 8795TIP3    H247877   5.484   0.333  15.787  0.8705 -0.7089  1.6533
 8796TIP3   OH247878   3.046   0.768   2.861 -0.0925  0.4175  0.4023
 8796TIP3    H147879   2.956   0.740   2.877  0.6378 -0.8917  2.4560
 8796TIP3    H247880   3.081   0.789   2.947  2.4587 -1.9053  0.0102
 8797TIP3   OH247881   6.787   1.748  15.319  0.6052 -0.0334  0.1375
 8797TIP3    H147882   6.851   1.769  15.386  0.8011  0.3169 -0.1564
 8797TIP3    H247883   6.739   1.830  15.306 -0.0982 -0.3722  0.5673
 8798TIP3   OH247884   5.116   4.261  15.296 -0.2428  0.5662 -0.3240
 8798TIP3    H147885   5.193   4.206  15.278 -0.3964 -0.2263  1.3014
 8798TIP3    H247886   5.139   4.309  15.376 -1.2843  0.6097 -0.0467
 8799TIP3   OH247887   2.949   3.262  11.080  1.1393  0.7038 -0.1606
 8799TIP3    H147888   3.009   3.214  11.022  1.0120 -0.5074  0.6991
 8799TIP3    H247889   2.976   3.238  11.168  0.9786  2.1209  0.2924
 8800TIP3   OH247890   1.808   2.474   4.827  0.6493  0.2289 -0.4967
 8800TIP3    H147891   1.873   2.494   4.760  1.6817 -0.9922  0.1308
 8800TIP3    H247892   1.854   2.486   4.910  0.1066 -0.7409 -0.0467
 8801TIP3   OH247893   3.340   1.650  16.511  0.0613 -0.1135  0.0890
 8801TIP3    H147894   3.332   1.744  16.492  1.4851  0.5779  2.5532
 8801TIP3    H247895   3.250   1.617  16.506 -0.2746  1.0599 -2.2530
 8802TIP3   OH247896   3.484   0.697   4.855 -0.6078 -0.0860  0.5841
 8802TIP3    H147897   3.523   0.784   4.848  0.3911 -0.4176  1.9955
 8802TIP3    H247898   3.553   0.642   4.890 -1.5452 -1.2465  0.6417
 8803TIP3   OH247899   5.008   3.744   1.211  0.1833 -0.2079  0.5115
 8803TIP3    H147900   4.984   3.755   1.119 -0.7420  0.2514  0.8093
 8803TIP3    H247901   4.953   3.672   1.242  0.7811 -0.6350  0.6099
 8804TIP3   OH247902   5.248   6.526   1.126  0.4805 -0.4914 -0.4140
 8804TIP3    H147903   5.310   6.578   1.178  0.1991 -1.2638  0.7196
 8804TIP3    H247904   5.169   6.581   1.122  0.1217 -0.8956  0.9336
 8805TIP3   OH247905   0.929   4.212   2.674 -0.2743 -0.4806  0.1373
 8805TIP3    H147906   0.943   4.285   2.735 -1.1629  0.4726 -0.7892
 8805TIP3    H247907   0.943   4.134   2.728 -0.5302  0.3498  1.4448
 8806TIP3   OH247908   6.063   1.866  11.892 -0.0161 -0.4935  0.6845
 8806TIP3    H147909   5.972   1.845  11.871  0.1876 -1.7818  1.0719
 8806TIP3    H247910   6.094   1.915  11.815 -0.9026 -0.4239  0.3620
 8807TIP3   OH247911   1.719   4.807   3.656 -0.4304 -0.1126 -0.3878
 8807TIP3    H147912   1.797   4.804   3.600 -0.3267  0.8601 -0.3095
 8807TIP3    H247913   1.695   4.715   3.669 -0.2738 -0.3591 -1.7770
 8808TIP3   OH247914   6.116   1.703  16.585 -0.0087  0.1992 -0.2902
 8808TIP3    H147915   6.129   1.654  16.503  0.4087  1.0059 -0.7160
 8808TIP3    H247916   6.045   1.657  16.629  0.0800 -0.5292 -0.8913
 8809TIP3   OH247917   4.154   6.164  12.820 -0.0938  0.0934  0.0527
 8809TIP3    H147918   4.208   6.234  12.783  0.4239 -1.7520 -2.8682
 8809TIP3    H247919   4.136   6.192  12.909  3.8216  1.8497  0.3960
 8810TIP3   OH247920   6.219   4.505  11.747 -0.2320  0.1999 -0.2861
 8810TIP3    H147921   6.126   4.487  11.765  0.2562 -1.7284  0.4548
 8810TIP3    H247922   6.245   4.438  11.684  0.7606  0.4440 -0.1482
 8811TIP3   OH247923   4.431   0.308  14.438  0.2338 -0.0984 -0.2534
 8811TIP3    H147924   4.515   0.267  14.458  0.0525  0.0911  0.9758
 8811TIP3    H247925   4.393   0.255  14.369 -0.4062 -2.5557  1.9293
 8812TIP3   OH247926   0.864   2.762  12.595 -0.4188  0.4266 -0.1005
 8812TIP3    H147927   0.930   2.787  12.659 -1.5401 -0.2719  1.3752
 8812TIP3    H247928   0.908   2.700  12.537  0.3506  0.3496  0.5571
 8813TIP3   OH247929   1.490   0.438   0.186 -0.1526 -0.7431 -0.1887
 8813TIP3    H147930   1.425   0.485   0.135 -1.7061 -2.1725  0.4292
 8813TIP3    H247931   1.462   0.346   0.182  0.9295 -1.1627  1.4033
 8814TIP3   OH247932   5.232   5.350   1.008 -0.0411  0.1504 -0.6915
 8814TIP3    H147933   5.196   5.261   1.014 -0.1428  0.1684 -1.0325
 8814TIP3    H247934   5.325   5.339   1.027 -0.3275  0.1912  0.8098
 8815TIP3   OH247935   2.172   3.022   5.038  0.1459 -0.1366 -0.0715
 8815TIP3    H147936   2.101   3.087   5.045  0.3090  0.0950 -0.5636
 8815TIP3    H247937   2.181   2.988   5.127 -1.4608 -1.0897 -0.2423
 8816TIP3   OH247938   6.105   3.793  16.711  0.5896 -0.2180 -0.1910
 8816TIP3    H147939   6.189   3.835  16.691  0.8145 -1.2021 -1.3274
 8816TIP3    H247940   6.040   3.846  16.665  0.6745 -0.0237 -0.0860
 8817TIP3   OH247941   4.090   2.911  12.458  0.1605  0.0135  0.0414
 8817TIP3    H147942   4.021   2.968  12.490 -0.4362 -0.1559 -0.9196
 8817TIP3    H247943   4.161   2.921  12.521  0.2195  2.1423 -0.3320
 8818TIP3   OH247944   6.278   6.712   1.572 -0.2717  0.3128 -0.0061
 8818TIP3    H147945   6.324   6.795   1.589  2.0618 -1.0627  0.5563
 8818TIP3    H247946   6.327   6.672   1.500 -1.1890 -0.7369 -0.0586
 8819TIP3   OH247947   0.877   0.144   0.588  0.1219  0.2032 -0.7098
 8819TIP3    H147948   0.796   0.122   0.542  0.0905 -2.1541  0.4028
 8819TIP3    H247949   0.868   0.237   0.610 -1.2048  0.5712 -2.7183
 8820TIP3   OH247950   3.899   1.205  13.421  0.3054 -0.0155 -0.2922
 8820TIP3    H147951   3.884   1.299  13.409 -1.6298 -0.0225  1.7111
 8820TIP3    H247952   3.992   1.192  13.402 -0.0496  1.7568 -3.7022
 8821TIP3   OH247953   3.676   1.080  17.097  0.1899  0.2377  0.6571
 8821TIP3    H147954   3.618   1.085  17.173 -0.2690  1.3751  0.2464
 8821TIP3    H247955   3.646   1.003  17.048  0.8688 -0.8499  1.9199
 8822TIP3   OH247956   3.417   6.766  13.829  0.0886 -0.0018  0.4972
 8822TIP3    H147957   3.376   6.847  13.860 -1.4866  0.7381 -3.2283
 8822TIP3    H247958   3.346   6.718  13.787  2.0516 -0.8841 -1.9183
 8823TIP3   OH247959   0.342   2.829   3.612  0.2765  0.0657 -0.6990
 8823TIP3    H147960   0.290   2.888   3.666  1.4534 -0.3005  0.8500
 8823TIP3    H247961   0.400   2.887   3.561 -0.1075  0.3507 -0.8105
 8824TIP3   OH247962   0.122   5.266   3.159 -0.0298  0.3070  0.1568
 8824TIP3    H147963   0.149   5.283   3.250 -0.2415 -2.2046  0.7393
 8824TIP3    H247964   0.199   5.228   3.118 -0.4107 -0.0198 -0.2617
 8825TIP3   OH247965   5.053   2.287   2.462 -0.2872 -0.0630 -0.5376
 8825TIP3    H147966   5.011   2.204   2.436  0.0802 -0.5663  0.4698
 8825TIP3    H247967   4.984   2.353   2.451 -1.5702 -0.9677  1.7300
 8826TIP3   OH247968   1.321   4.905   2.196 -0.0575 -0.3447 -0.2677
 8826TIP3    H147969   1.305   4.938   2.107 -0.5221  0.3147  0.0529
 8826TIP3    H247970   1.233   4.888   2.231  0.1625 -1.6887 -0.3307
 8827TIP3   OH247971   2.785   4.731  15.658 -0.0777 -0.2183  0.3851
 8827TIP3    H147972   2.764   4.737  15.751  0.1685 -0.7771  0.4768
 8827TIP3    H247973   2.755   4.644  15.632 -1.6196  0.5168 -0.4319
 8828TIP3   OH247974   5.708   1.844  11.945  0.0971 -0.2574 -0.2253
 8828TIP3    H147975   5.646   1.907  11.981 -0.5069 -1.3370  0.6304
 8828TIP3    H247976   5.751   1.805  12.021 -1.0893 -2.4621 -0.6389
 8829TIP3   OH247977   5.818   3.531  11.800  0.8310 -0.2130 -1.1572
 8829TIP3    H147978   5.762   3.473  11.851  0.5448  0.4257 -0.7331
 8829TIP3    H247979   5.907   3.511  11.829  0.8264 -1.2093 -1.8125
 8830TIP3   OH247980   0.356   0.897  15.615  0.5644  0.0356  0.2743
 8830TIP3    H147981   0.277   0.905  15.669  0.2124  0.1560 -0.2560
 8830TIP3    H247982   0.422   0.861  15.675  0.8393  2.3532  1.3995
 8831TIP3   OH247983   6.257   4.820   1.059 -0.7408  0.2454 -0.5914
 8831TIP3    H147984   6.300   4.894   1.016  1.2162  0.4767  1.6826
 8831TIP3    H247985   6.178   4.858   1.098 -1.5881  0.3903 -2.3855
 8832TIP3   OH247986   3.300   5.805  14.551 -0.5795  0.0841  0.5169
 8832TIP3    H147987   3.258   5.720  14.541  1.1937 -0.7528  0.0332
 8832TIP3    H247988   3.282   5.830  14.641 -2.4065 -0.0753  0.2220
 8833TIP3   OH247989   3.639   3.911  13.243 -0.2234  0.1924 -0.4209
 8833TIP3    H147990   3.611   3.965  13.169  1.7344  1.7540 -0.0632
 8833TIP3    H247991   3.665   3.974  13.310 -0.4952 -1.2131  1.0307
 8834TIP3   OH247992   5.219   5.293   4.927 -0.7398  0.2090 -0.0251
 8834TIP3    H147993   5.137   5.261   4.888 -1.6120 -0.0458  1.9883
 8834TIP3    H247994   5.210   5.388   4.927 -0.1413  0.2827 -1.6905
 8835TIP3   OH247995   0.338   5.981   2.048 -0.1107  0.4043  0.5728
 8835TIP3    H147996   0.361   5.965   1.957  1.2871  0.4381  0.9079
 8835TIP3    H247997   0.401   5.930   2.099 -2.3224 -1.4606  1.5112
 8836TIP3   OH247998   1.665   5.333   3.294 -0.2977 -0.1865  0.2377
 8836TIP3    H147999   1.658   5.241   3.270 -1.6480  0.1065 -0.5765
 8836TIP3    H248000   1.741   5.338   3.352  1.2153 -1.4360 -1.5874
 8837TIP3   OH248001   3.503   6.174  12.917 -0.2050  0.0502  0.4770
 8837TIP3    H148002   3.503   6.184  13.012 -1.7201 -0.1423  0.5128
 8837TIP3    H248003   3.415   6.141  12.896  0.7595 -1.8214 -0.7927
 8838TIP3   OH248004   0.499   5.499  13.392 -0.0473  0.1127  0.0402
 8838TIP3    H148005   0.560   5.571  13.409 -0.8622  1.1557 -1.3138
 8838TIP3    H248006   0.485   5.502  13.298 -0.8769 -1.2053  0.1151
 8839TIP3   OH248007   5.667   3.255  13.177  0.4304  0.2115  0.3112
 8839TIP3    H148008   5.594   3.216  13.128  2.3283 -1.4337 -1.2943
 8839TIP3    H248009   5.725   3.289  13.109  2.2414 -0.4817  1.4977
 8840TIP3   OH248010   0.936   3.787  16.806 -0.0363 -0.3879  0.3095
 8840TIP3    H148011   0.853   3.748  16.833 -0.3041  0.0491  0.1140
 8840TIP3    H248012   1.002   3.741  16.858 -0.6703  1.5884  2.9449
 8841TIP3   OH248013   3.823   0.554   5.232  0.0818  0.3471  0.2665
 8841TIP3    H148014   3.916   0.565   5.212  0.0545  2.0158  0.9377
 8841TIP3    H248015   3.818   0.560   5.328 -0.8607  1.6021  0.1596
 8842TIP3   OH248016   2.405   4.696  12.173 -0.0470 -0.5548 -0.3537
 8842TIP3    H148017   2.315   4.723  12.192  0.4023  1.1720 -0.6064
 8842TIP3    H248018   2.453   4.713  12.254  0.6065  1.1139 -1.0738
 8843TIP3   OH248019   5.215   5.483   0.175 -0.0813  0.5467 -0.1591
 8843TIP3    H148020   5.264   5.491   0.256 -1.5976 -1.2474  0.9834
 8843TIP3    H248021   5.250   5.406   0.132 -0.1592  0.7461 -0.5919
 8844TIP3   OH248022   2.819   3.340  14.443  0.0828  0.0024 -0.5018
 8844TIP3    H148023   2.792   3.412  14.500  0.0878 -0.8949  0.6647
 8844TIP3    H248024   2.830   3.380  14.357  2.1485  1.8135  0.5632
 8845TIP3   OH248025   2.729   1.278   5.163  0.3911 -0.1435  0.4884
 8845TIP3    H148026   2.708   1.371   5.161  0.4389 -0.0045  3.8196
 8845TIP3    H248027   2.648   1.235   5.190  0.6607 -0.9965 -0.0076
 8846TIP3   OH248028   3.351   0.046  12.757 -0.0921  0.0003 -0.6471
 8846TIP3    H148029   3.281  -0.003  12.801  0.2352 -0.4333 -0.6027
 8846TIP3    H248030   3.429   0.025  12.808 -0.4736  3.1361  1.3833
 8847TIP3   OH248031   2.095   5.366  13.303 -0.6534 -0.1833 -0.1078
 8847TIP3    H148032   2.023   5.425  13.326 -0.5635  0.7114 -1.9933
 8847TIP3    H248033   2.174   5.420  13.311 -0.4439 -0.4152 -0.5973
 8848TIP3   OH248034   0.925   3.810   2.444  0.2772  0.0626 -0.6655
 8848TIP3    H148035   1.017   3.790   2.462 -0.0094  0.7319  1.6546
 8848TIP3    H248036   0.922   3.905   2.433 -0.1873  0.0663 -0.5320
 8849TIP3   OH248037   0.234   3.974  14.376  0.0845 -0.0823 -0.2608
 8849TIP3    H148038   0.287   4.003  14.302  0.3649  0.0291 -0.0136
 8849TIP3    H248039   0.283   4.000  14.454 -0.1096 -0.3816 -0.0338
 8850TIP3   OH248040   4.775   6.572   1.217  0.3296 -0.0780  0.2676
 8850TIP3    H148041   4.723   6.505   1.262 -0.0573  1.2221  1.7940
 8850TIP3    H248042   4.850   6.587   1.275  0.3468  0.9135 -0.0075
 8851TIP3   OH248043   6.443   6.168   3.288 -0.6443 -0.9242  0.5260
 8851TIP3    H148044   6.460   6.111   3.213  1.1809  0.5687 -0.2215
 8851TIP3    H248045   6.397   6.244   3.251  0.2043 -0.2165  0.9132
 8852TIP3   OH248046   5.651   6.666   5.651 -0.2998  0.1200 -0.6409
 8852TIP3    H148047   5.569   6.633   5.689  0.8520 -0.5266  1.3248
 8852TIP3    H248048   5.690   6.718   5.721  1.5578 -0.5626 -1.1481
 8853TIP3   OH248049   0.108   6.734  12.955  0.2100  0.0966  0.7559
 8853TIP3    H148050   0.171   6.741  13.027 -1.6352 -0.9458  2.5240
 8853TIP3    H248051   0.035   6.790  12.982 -0.4684 -0.2501 -0.3434
 8854TIP3   OH248052   4.832   0.987   5.382 -0.3514  0.8472  0.8392
 8854TIP3    H148053   4.917   1.019   5.413  0.8340 -2.7075  1.4916
 8854TIP3    H248054   4.853   0.933   5.305 -1.5508 -2.7228  2.8965
 8855TIP3   OH248055   3.999   2.603  12.519 -0.3157  0.4075  0.5388
 8855TIP3    H148056   4.003   2.630  12.610  0.7940 -0.4264  0.7556
 8855TIP3    H248057   3.914   2.560  12.510 -0.8072  1.2995  0.9436
 8856TIP3   OH248058   2.759   6.106   4.250 -0.2787 -0.1597 -0.0556
 8856TIP3    H148059   2.726   6.097   4.160  0.6375  0.9241 -0.5109
 8856TIP3    H248060   2.854   6.094   4.242 -0.0944  0.8608  0.6347
 8857TIP3   OH248061   0.719   4.918   3.364  0.2999 -0.0976 -0.0454
 8857TIP3    H148062   0.625   4.923   3.348  0.6159 -2.3905 -3.0961
 8857TIP3    H248063   0.729   4.843   3.422  0.2847 -0.1091 -0.0574
 8858TIP3   OH248064   1.085   5.368   4.471  0.1566 -0.0726  0.1787
 8858TIP3    H148065   1.131   5.285   4.481  0.8583  0.3022  0.0346
 8858TIP3    H248066   1.062   5.371   4.379  2.5367  1.1544 -0.4106
 8859TIP3   OH248067   1.279   2.894   4.118 -0.1151  0.1072  0.4394
 8859TIP3    H148068   1.332   2.817   4.097  0.5067  0.2784  1.3902
 8859TIP3    H248069   1.319   2.964   4.066  1.1146  0.4184  1.7799
 8860TIP3   OH248070   4.811   6.401   6.131 -0.4303 -0.2634  0.1865
 8860TIP3    H148071   4.883   6.404   6.194 -0.5388  0.5132  0.2782
 8860TIP3    H248072   4.736   6.371   6.183 -0.1920 -0.9963  0.1080
 8861TIP3   OH248073   6.208   0.242  11.506 -0.0871 -0.6723 -0.3056
 8861TIP3    H148074   6.291   0.290  11.510 -0.3002 -0.3181 -0.0927
 8861TIP3    H248075   6.165   0.260  11.589 -0.5390 -0.5574 -0.5590
 8862TIP3   OH248076   6.206   5.701  13.326  0.1672  0.0911 -0.0715
 8862TIP3    H148077   6.276   5.677  13.265 -0.9185 -0.1946 -1.2458
 8862TIP3    H248078   6.230   5.659  13.408  1.8138  0.7265 -0.2171
 8863TIP3   OH248079   5.024   5.423  12.801 -0.0316 -0.2896  0.4285
 8863TIP3    H148080   5.105   5.395  12.758 -1.9626 -0.8204 -3.0172
 8863TIP3    H248081   5.033   5.518  12.808  0.5349 -0.2487 -0.7344
 8864TIP3   OH248082   4.561   1.153   1.773  0.6695 -0.3990  0.6480
 8864TIP3    H148083   4.597   1.163   1.685 -0.4472  1.6172  0.3641
 8864TIP3    H248084   4.500   1.079   1.766  0.5358 -0.2116 -0.3037
 8865TIP3   OH248085   6.369   0.741  15.243  0.3456 -0.5699 -0.3302
 8865TIP3    H148086   6.407   0.664  15.200  0.6895 -1.7738  2.0132
 8865TIP3    H248087   6.344   0.710  15.330  1.3257  2.1851  1.0076
 8866TIP3   OH248088   2.072   6.660  16.746  0.3999  0.4116 -0.0312
 8866TIP3    H148089   1.989   6.656  16.698 -0.5030  0.3516  1.5052
 8866TIP3    H248090   2.100   6.568  16.754  0.0770  0.3460  0.3612
 8867TIP3   OH248091   6.113   4.061   0.130 -0.5892  1.0985  0.3336
 8867TIP3    H148092   6.146   4.047   0.041 -0.5262 -1.4359  0.7207
 8867TIP3    H248093   6.046   4.127   0.120  1.2991  2.8694 -1.1930
 8868TIP3   OH248094   2.568   4.717  12.427 -0.0231  0.3586  0.1255
 8868TIP3    H148095   2.504   4.715  12.498  3.2892  1.0469  3.2848
 8868TIP3    H248096   2.608   4.630  12.428 -1.1751 -0.2400 -2.1660
 8869TIP3   OH248097   4.447   6.764  15.850 -0.0563 -0.3286 -0.4240
 8869TIP3    H148098   4.363   6.802  15.823  0.3934  0.5679 -0.5738
 8869TIP3    H248099   4.511   6.833  15.834  0.6014 -0.7276  0.4386
 8870TIP3   OH248100   3.037   5.412   5.549  0.8459  0.7441 -0.5615
 8870TIP3    H148101   3.003   5.341   5.493  0.1225 -0.3290  1.2121
 8870TIP3    H248102   2.964   5.473   5.557  0.6014  0.3691  0.0768
 8871TIP3   OH248103   2.540   2.365  14.381  0.0239 -0.5807 -0.2062
 8871TIP3    H148104   2.565   2.304  14.451  1.3505 -0.3454 -0.4602
 8871TIP3    H248105   2.448   2.386  14.399 -0.3488 -2.3621  0.0993
 8872TIP3   OH248106   3.695   2.177   6.500  0.0781 -0.5998  0.2130
 8872TIP3    H148107   3.619   2.234   6.510  0.3631 -0.3697  1.1131
 8872TIP3    H248108   3.658   2.093   6.472 -0.3274  0.0461 -1.2482
 8873TIP3   OH248109   4.382   5.345   0.354 -0.0024  0.7100  0.1223
 8873TIP3    H148110   4.343   5.379   0.273  0.3125 -0.1862 -0.4209
 8873TIP3    H248111   4.473   5.374   0.350  0.7393 -1.7235 -1.2475
 8874TIP3   OH248112   5.559   1.498  13.872 -0.7168 -0.8174  0.6147
 8874TIP3    H148113   5.606   1.578  13.894 -1.8491  0.1155 -0.2747
 8874TIP3    H248114   5.600   1.467  13.791 -1.4104 -0.1517 -0.0112
 8875TIP3   OH248115   0.009   6.253   3.896 -0.1786 -0.3627 -0.5748
 8875TIP3    H148116   0.008   6.343   3.928 -0.2750 -0.3689 -0.5616
 8875TIP3    H248117   0.086   6.214   3.937 -0.2786 -0.3593 -0.3846
 8876TIP3   OH248118   2.481   5.115   5.934 -0.3310  0.1296  0.1920
 8876TIP3    H148119   2.394   5.146   5.912 -0.7278 -0.0880  1.4393
 8876TIP3    H248120   2.488   5.030   5.890 -0.6538  0.2592 -0.1091
 8877TIP3   OH248121   1.398   2.163   2.954  0.6736  0.1630  0.2939
 8877TIP3    H148122   1.457   2.230   2.988  0.1029  0.7100  0.1962
 8877TIP3    H248123   1.457   2.096   2.918  1.2505  0.2479  1.0820
 8878TIP3   OH248124   3.146   4.457  10.869 -0.5887 -0.2693 -0.0119
 8878TIP3    H148125   3.154   4.436  10.962 -1.3756 -2.2617 -0.3727
 8878TIP3    H248126   3.121   4.375  10.827 -2.0581  0.9922 -1.7443
 8879TIP3   OH248127   5.438   2.827  16.550  0.1439 -0.1347  0.0207
 8879TIP3    H148128   5.455   2.737  16.575  0.1817 -0.1608 -0.0962
 8879TIP3    H248129   5.352   2.824  16.507  0.4324 -0.2237 -0.5607
 8880TIP3   OH248130   2.562   3.761   1.984 -0.0430 -0.5969  0.2794
 8880TIP3    H148131   2.525   3.741   1.898  0.7506 -1.7006  0.1900
 8880TIP3    H248132   2.559   3.857   1.989  0.5832 -0.4773 -1.2829
 8881TIP3   OH248133   5.592   0.748   3.552 -0.9222 -0.3304 -0.2570
 8881TIP3    H148134   5.654   0.679   3.530 -0.9824  0.3208 -2.5305
 8881TIP3    H248135   5.538   0.759   3.474 -0.8824  2.3352  0.0424
 8882TIP3   OH248136   3.403   5.871  12.879 -0.9517 -0.0573 -0.2578
 8882TIP3    H148137   3.495   5.866  12.905 -0.4410 -0.9216 -2.1090
 8882TIP3    H248138   3.358   5.807  12.934 -0.5373  0.6876  0.9632
 8883TIP3   OH248139   2.573   4.662   4.025  0.0196  0.1510 -0.5121
 8883TIP3    H148140   2.637   4.593   4.008  2.6465  2.2812  0.5007
 8883TIP3    H248141   2.555   4.699   3.939 -0.7373 -1.1859 -0.9465
 8884TIP3   OH248142   2.409   4.452  11.599  0.2434 -0.0387 -0.2957
 8884TIP3    H148143   2.387   4.367  11.638  1.7501 -0.8121 -1.0825
 8884TIP3    H248144   2.462   4.430  11.523 -1.4957  1.5239 -2.0023
 8885TIP3   OH248145   3.093   3.291   3.366 -0.4173  0.2577  0.1447
 8885TIP3    H148146   3.115   3.226   3.300 -2.2066  0.5378 -0.7596
 8885TIP3    H248147   3.041   3.244   3.431 -1.3278  0.6805 -0.2748
 8886TIP3   OH248148   6.295   3.698  16.099 -0.5212  0.2445  0.3490
 8886TIP3    H148149   6.230   3.643  16.142 -0.8692  0.7462  0.4697
 8886TIP3    H248150   6.298   3.778  16.151  1.4330 -0.4336  1.3367
 8887TIP3   OH248151   0.385   2.922   4.100  0.8508  0.7022 -0.4351
 8887TIP3    H148152   0.393   2.998   4.042  1.5716  0.7016 -0.3430
 8887TIP3    H248153   0.472   2.882   4.098  1.2493  1.4035  1.6096
 8888TIP3   OH248154   1.749   0.954   5.249 -0.2467 -0.0372  0.1025
 8888TIP3    H148155   1.727   0.905   5.170  0.1513 -1.2109  0.7047
 8888TIP3    H248156   1.843   0.970   5.243  0.3125 -2.4429  1.5641
 8889TIP3   OH248157   5.557   5.358  10.645  0.0001 -0.2813  0.1920
 8889TIP3    H148158   5.480   5.316  10.607 -2.2631  3.1599  0.7231
 8889TIP3    H248159   5.553   5.337  10.738 -0.8158  0.5661  0.3607
 8890TIP3   OH248160   4.539   3.616  16.857  0.0285 -0.2057  0.2632
 8890TIP3    H148161   4.556   3.536  16.809  1.3376  1.3526 -1.9747
 8890TIP3    H248162   4.623   3.661  16.860 -0.2154  0.1596  3.3092
 8891TIP3   OH248163   3.166   6.438  15.687  0.1195  0.0429  0.7233
 8891TIP3    H148164   3.197   6.442  15.597  1.0409  0.0282  1.0351
 8891TIP3    H248165   3.220   6.502  15.734 -0.6985  0.4184  1.1618
 8892TIP3   OH248166   6.314   1.922  14.937  0.5206  0.1913 -0.6943
 8892TIP3    H148167   6.322   1.843  14.991  0.5245  1.1023  0.6572
 8892TIP3    H248168   6.349   1.896  14.852  0.4452 -1.2923 -0.2896
 8893TIP3   OH248169   0.699   2.438   5.027  0.1470 -0.3835 -0.0018
 8893TIP3    H148170   0.641   2.377   4.980 -0.1615 -0.8338  0.9601
 8893TIP3    H248171   0.644   2.515   5.044  0.6080  0.2979 -1.4407
 8894TIP3   OH248172   6.810   5.520  16.882 -0.2995  0.0344  0.8299
 8894TIP3    H148173   6.772   5.434  16.865  0.2451 -0.3783  1.7257
 8894TIP3    H248174   6.812   5.562  16.796 -2.0311 -0.2433  0.6349
 8895TIP3   OH248175   3.658   1.123  11.659  0.0067 -0.2478  0.2083
 8895TIP3    H148176   3.666   1.131  11.563 -0.1015 -0.2243  0.2019
 8895TIP3    H248177   3.708   1.197  11.693  0.9563 -0.8700  0.1920
 8896TIP3   OH248178   3.908   3.559  10.827  0.1085 -0.0469  0.3814
 8896TIP3    H148179   3.881   3.469  10.843  1.6891 -0.3334  1.5361
 8896TIP3    H248180   3.871   3.580  10.741 -4.8542  0.0526  2.3606
 8897TIP3   OH248181   4.660   4.016   3.593 -0.3417 -0.2441  0.2003
 8897TIP3    H148182   4.626   3.928   3.608 -1.2555  0.0192 -0.2809
 8897TIP3    H248183   4.586   4.074   3.609 -0.1668  0.3321 -0.9800
 8898TIP3   OH248184   2.453   0.413  16.835 -0.4898 -0.0854 -0.2712
 8898TIP3    H148185   2.360   0.425  16.818 -0.1087 -0.9787 -3.3075
 8898TIP3    H248186   2.491   0.501  16.828 -0.9677  0.1584  0.1713
 8899TIP3   OH248187   6.125   0.314  13.397  0.2237  0.5029 -0.1835
 8899TIP3    H148188   6.030   0.301  13.405 -0.0465  2.3541 -0.1441
 8899TIP3    H248189   6.158   0.231  13.364 -1.4645 -0.0520 -0.5207
 8900TIP3   OH248190   3.877   5.794  16.280 -1.0157 -0.5970 -0.0028
 8900TIP3    H148191   3.813   5.787  16.210 -0.5833 -1.7636 -0.2972
 8900TIP3    H248192   3.864   5.715  16.332  1.2897 -1.6962 -1.0214
 8901TIP3   OH248193   3.178   6.330   0.281 -0.4315  0.3622 -0.1760
 8901TIP3    H148194   3.137   6.283   0.354  0.1648  0.9789  0.5617
 8901TIP3    H248195   3.253   6.275   0.257 -0.0345  0.6644  0.3511
 8902TIP3   OH248196   0.045   6.116   4.434 -0.4764  0.2721 -0.2959
 8902TIP3    H148197   0.134   6.082   4.437 -0.1879  1.1388  1.0375
 8902TIP3    H248198   0.046   6.179   4.362  0.3282  1.2279  0.5482
 8903TIP3   OH248199   6.686   6.206  15.989 -0.2687 -0.0031 -0.1309
 8903TIP3    H148200   6.702   6.117  16.021  0.9389 -0.3601 -1.6947
 8903TIP3    H248201   6.755   6.259  16.029 -1.0029  0.2370  0.8232
 8904TIP3   OH248202   5.214   0.198   2.760 -0.6681 -0.3348 -0.2695
 8904TIP3    H148203   5.155   0.123   2.767 -3.0238  1.7113  3.2090
 8904TIP3    H248204   5.164   0.264   2.714  0.6654 -0.1532 -1.4984
 8905TIP3   OH248205   6.796   4.031   5.456  0.2862 -0.0826 -0.0017
 8905TIP3    H148206   6.741   4.013   5.532 -0.7219 -0.0207 -0.7067
 8905TIP3    H248207   6.835   4.117   5.474 -0.6779  0.3505  0.0271
 8906TIP3   OH248208   6.201   3.427  12.530  0.3872 -0.0145  0.2662
 8906TIP3    H148209   6.132   3.361  12.528  0.4684 -0.0956  0.0874
 8906TIP3    H248210   6.262   3.396  12.597  0.8014 -0.5084 -0.3281
 8907TIP3   OH248211   1.277   0.878  11.617  0.0237 -0.1250 -0.3700
 8907TIP3    H148212   1.289   0.973  11.609 -0.8787 -0.0050 -0.2790
 8907TIP3    H248213   1.220   0.866  11.693  0.3356 -0.7561 -0.2287
 8908TIP3   OH248214   0.789   3.235  15.074  0.0784 -0.6149  0.0956
 8908TIP3    H148215   0.708   3.195  15.043  0.7940 -3.9218  2.2262
 8908TIP3    H248216   0.846   3.236  14.998  0.1229 -4.0318  0.0162
 8909TIP3   OH248217   0.659   5.642  16.507 -0.4699  0.6713 -0.2631
 8909TIP3    H148218   0.725   5.587  16.548 -1.0578 -0.7883 -1.2469
 8909TIP3    H248219   0.698   5.668  16.424 -0.2641  1.6425  0.1180
 8910TIP3   OH248220   1.464   1.317   3.590  0.4243  0.0583 -0.2972
 8910TIP3    H148221   1.391   1.264   3.558  1.3085  0.2452 -2.7268
 8910TIP3    H248222   1.425   1.377   3.654 -1.5612  0.2452 -1.6557
 8911TIP3   OH248223   3.858   6.178   5.346  0.2045  0.1905  0.1391
 8911TIP3    H148224   3.841   6.154   5.255 -0.2746  1.3295 -0.0716
 8911TIP3    H248225   3.818   6.107   5.397  1.4207 -1.0113 -0.5512
 8912TIP3   OH248226   3.359   5.263   5.130  0.0987 -0.7532  0.8272
 8912TIP3    H148227   3.430   5.217   5.087  1.2230  0.2722  1.5520
 8912TIP3    H248228   3.279   5.225   5.093  1.0149  0.2828 -2.3582
 8913TIP3   OH248229   2.069   4.955  13.848  0.1650 -0.3160 -0.0031
 8913TIP3    H148230   2.098   4.884  13.791  0.7042 -1.3335  1.4854
 8913TIP3    H248231   2.007   4.913  13.908  1.5181  0.1505  1.7534
 8914TIP3   OH248232   3.822   5.992  11.397 -0.1573  0.4586  0.0830
 8914TIP3    H148233   3.871   5.934  11.339 -0.5650 -0.0599  0.2544
 8914TIP3    H248234   3.861   5.980  11.484 -1.3072 -0.7956  0.4414
 8915TIP3   OH248235   4.953   1.319   3.393  0.4538  0.0848  0.2197
 8915TIP3    H148236   4.946   1.371   3.473  1.4305  1.4159 -0.5458
 8915TIP3    H248237   4.936   1.380   3.322 -1.4343 -1.3179 -0.5808
 8916TIP3   OH248238   1.105   5.024   0.089  0.5392  0.5768 -0.2966
 8916TIP3    H148239   1.070   5.108   0.060  0.3277  0.7595  0.4660
 8916TIP3    H248240   1.172   5.047   0.154  0.3195  0.1506  0.0850
 8917TIP3   OH248241   0.783   6.449  16.871  0.0368 -0.6839 -0.3974
 8917TIP3    H148242   0.740   6.534  16.861  2.4131  0.8707  1.7916
 8917TIP3    H248243   0.716   6.393  16.910 -1.2549  0.4899 -0.8927
 8918TIP3   OH248244   0.693   4.521   1.674 -0.2307 -0.0487 -0.0966
 8918TIP3    H148245   0.718   4.467   1.749 -0.1763  0.1857  0.0561
 8918TIP3    H248246   0.773   4.530   1.622  0.3978  1.9133  1.1471
 8919TIP3   OH248247   4.977   3.303  15.260 -0.2532  0.2844 -0.1056
 8919TIP3    H148248   5.064   3.292  15.298  0.4996 -1.9107 -2.3050
 8919TIP3    H248249   4.991   3.361  15.185 -0.7261  0.2546 -0.2174
 8920TIP3   OH248250   2.692   4.795   4.593 -0.2088  0.5198  0.8263
 8920TIP3    H148251   2.699   4.702   4.613  0.3982  1.0305  3.1154
 8920TIP3    H248252   2.610   4.822   4.634 -1.1901  0.6907 -1.1761
 8921TIP3   OH248253   5.934   3.596   2.699  0.0164  0.0179 -0.3795
 8921TIP3    H148254   6.014   3.647   2.682  0.3977  0.2517  1.9838
 8921TIP3    H248255   5.947   3.514   2.651  1.0274  0.6432 -1.1951
 8922TIP3   OH248256   5.570   3.110   0.067  0.0757 -0.5227  0.2996
 8922TIP3    H148257   5.505   3.175   0.092 -0.6080 -1.5579  1.2732
 8922TIP3    H248258   5.619   3.151  -0.004 -0.6298  0.8723  0.6010
 8923TIP3   OH248259   5.935   6.547  16.338  0.6657  0.1397  0.7930
 8923TIP3    H148260   5.978   6.466  16.313  0.9445  0.5009  0.0870
 8923TIP3    H248261   5.877   6.523  16.410  1.6184 -0.4629  1.3693
 8924TIP3   OH248262   3.551   1.317   1.926 -0.3455  0.2852 -0.7590
 8924TIP3    H148263   3.545   1.257   1.851 -0.0481  0.0711 -0.6156
 8924TIP3    H248264   3.644   1.338   1.932  0.2362 -2.7439  1.9107
 8925TIP3   OH248265   1.092   0.279   2.896 -0.2744 -0.0243  0.5052
 8925TIP3    H148266   1.103   0.309   2.806 -0.0682  0.0707  0.5597
 8925TIP3    H248267   1.046   0.351   2.940 -0.8824 -0.3121  0.3389
 8926TIP3   OH248268   5.163   6.249   4.015 -0.7393 -0.0625  0.6438
 8926TIP3    H148269   5.070   6.269   4.003 -0.6841  0.1037  0.4766
 8926TIP3    H248270   5.208   6.318   3.966 -0.5376 -0.4244  0.3153
 8927TIP3   OH248271   6.254   6.315   2.734  0.2658  0.6084  0.0842
 8927TIP3    H148272   6.243   6.366   2.654  0.4729  0.1180 -0.2624
 8927TIP3    H248273   6.278   6.227   2.704 -3.2831 -0.5989  0.5598
 8928TIP3   OH248274   1.767   5.177   2.613  0.4074  0.6735  0.0265
 8928TIP3    H148275   1.745   5.239   2.544  1.6948  0.1787 -0.8635
 8928TIP3    H248276   1.764   5.091   2.571  0.6883  0.3207  0.7060
 8929TIP3   OH248277   6.604   0.075   4.607  0.7445 -0.0562 -0.7031
 8929TIP3    H148278   6.581  -0.014   4.578  1.4631 -0.4724  0.0016
 8929TIP3    H248279   6.540   0.094   4.676  1.9487 -0.8860  0.6675
 8930TIP3   OH248280   2.125   3.321   5.820 -0.2872 -0.4293 -0.2151
 8930TIP3    H148281   2.110   3.386   5.889 -1.4720 -1.5439  0.5903
 8930TIP3    H248282   2.070   3.351   5.747 -0.0973 -0.0117 -0.1908
 8931TIP3   OH248283   6.360   2.506   4.569 -0.2501 -0.3371 -0.5285
 8931TIP3    H148284   6.372   2.438   4.635 -0.9348  0.9145  0.9377
 8931TIP3    H248285   6.391   2.467   4.488  1.0771 -1.7579  0.6250
 8932TIP3   OH248286   4.418   0.114   4.957  0.5088 -1.1309  0.1355
 8932TIP3    H148287   4.443   0.042   4.899  1.5955  0.4336 -1.3739
 8932TIP3    H248288   4.501   0.149   4.989 -0.0329 -0.9104  1.3318
 8933TIP3   OH248289   5.822   2.000  10.247 -0.0280 -0.7058  0.2106
 8933TIP3    H148290   5.734   2.026  10.219 -0.1129 -2.8789 -1.6811
 8933TIP3    H248291   5.809   1.918  10.295  1.0741 -2.0461 -1.6567
 8934TIP3   OH248292   4.036   2.320  14.616 -0.1075 -0.0716 -0.1712
 8934TIP3    H148293   4.120   2.365  14.628 -1.4529  2.0982  1.5511
 8934TIP3    H248294   3.994   2.368  14.545 -0.4807 -0.2392 -0.0629
 8935TIP3   OH248295   6.676   2.613   1.502 -0.1944 -0.1831 -0.0646
 8935TIP3    H148296   6.638   2.665   1.431  0.4855  2.1307  1.2146
 8935TIP3    H248297   6.685   2.525   1.465  1.4231  1.2428 -3.3241
 8936TIP3   OH248298   1.919   3.740  14.278  0.2850  0.0134  0.3707
 8936TIP3    H148299   1.847   3.798  14.255 -0.1914 -0.0169  1.7364
 8936TIP3    H248300   1.996   3.781  14.237  0.2530  2.5705  2.6841
 8937TIP3   OH248301   2.790   3.043  17.204 -0.6904 -0.2732 -0.1122
 8937TIP3    H148302   2.843   2.977  17.160 -1.3906 -0.2391 -1.0217
 8937TIP3    H248303   2.811   3.033  17.296  2.9163  1.4802 -0.6414
 8938TIP3   OH248304   2.906   4.849   4.434  0.4450 -0.1053 -0.3443
 8938TIP3    H148305   2.841   4.827   4.501  0.5741  0.7991  0.0921
 8938TIP3    H248306   2.934   4.765   4.398  0.0508 -0.5740  0.4372
 8939TIP3   OH248307   2.850   3.927   4.517 -0.3382 -0.2339 -0.5466
 8939TIP3    H148308   2.914   3.857   4.520  0.2342  0.3421  2.1721
 8939TIP3    H248309   2.765   3.883   4.524  0.0829 -0.6269  3.3702
 8940TIP3   OH248310   3.611   4.860  16.958  0.6201 -0.1016  0.4367
 8940TIP3    H148311   3.596   4.870  17.052  0.5753 -0.9639  0.5215
 8940TIP3    H248312   3.525   4.844  16.921  0.7275 -0.4579  0.3397
 8941TIP3   OH248313   6.096   4.050   1.826 -0.6775  0.5044  0.1620
 8941TIP3    H148314   6.089   4.062   1.920  2.1701  2.5928  0.2030
 8941TIP3    H248315   6.082   4.137   1.790 -3.2018 -0.5355 -1.4974
 8942TIP3   OH248316   1.524   3.179  11.574  0.4901 -0.0822  0.3110
 8942TIP3    H148317   1.444   3.127  11.563  1.4998 -1.8720  1.1731
 8942TIP3    H248318   1.562   3.182  11.486 -0.2198  0.2729  0.0110
 8943TIP3   OH248319   6.292   0.948  15.008 -0.0109  0.3527  0.4032
 8943TIP3    H148320   6.223   0.909  15.062 -1.8212  0.7297 -1.5892
 8943TIP3    H248321   6.277   1.042  15.014  0.0526  0.4173 -0.3860
 8944TIP3   OH248322   1.089   6.253   4.935  0.7073  0.0781 -0.0589
 8944TIP3    H148323   1.144   6.175   4.925  0.8177 -0.2337  2.6123
 8944TIP3    H248324   1.150   6.321   4.965  0.3290  0.8228 -0.9389
 8945TIP3   OH248325   4.257   1.087   1.268  0.2201 -0.2774  0.1202
 8945TIP3    H148326   4.303   1.072   1.185 -0.6207 -0.8591 -0.2441
 8945TIP3    H248327   4.256   1.002   1.311 -0.5257 -0.2674  0.1212
 8946TIP3   OH248328   5.955   3.302  14.638 -0.2313  0.2473  0.7392
 8946TIP3    H148329   5.908   3.381  14.613 -0.4481 -0.3546 -0.8225
 8946TIP3    H248330   5.894   3.231  14.618 -0.1741 -0.3148  2.4295
 8947TIP3   OH248331   1.662   6.787   0.551  0.4716  0.2984 -0.4479
 8947TIP3    H148332   1.747   6.797   0.509  0.9450 -0.5776  0.2822
 8947TIP3    H248333   1.680   6.801   0.644 -0.4869  1.8311 -0.4577
 8948TIP3   OH248334   1.551   3.727  17.020  0.4759 -0.2122 -0.3282
 8948TIP3    H148335   1.508   3.802  16.978 -0.4375 -1.2767 -1.3470
 8948TIP3    H248336   1.587   3.763  17.101 -1.3733  0.9713  0.0177
 8949TIP3   OH248337   6.712   5.361   4.167  0.5097  0.0470 -0.3725
 8949TIP3    H148338   6.773   5.433   4.151  0.3890  0.2732  0.1663
 8949TIP3    H248339   6.727   5.300   4.095 -0.5781  1.4065 -1.7790
 8950TIP3   OH248340   6.064   0.917   2.766  0.4773  0.1765 -0.2849
 8950TIP3    H148341   6.016   0.936   2.846  2.3617 -2.8629  1.6638
 8950TIP3    H248342   6.027   0.976   2.701 -2.8625  0.9334  2.1903
 8951TIP3   OH248343   4.952   5.188   6.581  0.1663 -0.0512 -0.3311
 8951TIP3    H148344   4.997   5.190   6.665 -1.5211  1.0277  0.5915
 8951TIP3    H248345   4.995   5.256   6.529 -1.4562  2.1756  1.1469
 8952TIP3   OH248346   5.768   1.533   0.493  0.0190  0.0116  0.4334
 8952TIP3    H148347   5.711   1.464   0.526 -0.7192  1.2126  1.7608
 8952TIP3    H248348   5.709   1.596   0.453  0.4464  0.9755  1.2840
 8953TIP3   OH248349   5.207   1.641  16.216  0.4296 -0.5276 -0.2753
 8953TIP3    H148350   5.136   1.577  16.220  0.5527 -0.6844 -0.5350
 8953TIP3    H248351   5.187   1.695  16.139 -0.3755  0.5911  0.7143
 8954TIP3   OH248352   2.893   3.262  11.398  0.2666 -0.6334  0.4033
 8954TIP3    H148353   2.886   3.180  11.350 -1.6944  0.6682 -1.6943
 8954TIP3    H248354   2.810   3.270  11.444  0.2964  0.3180  0.3031
 8955TIP3   OH248355   0.539   6.529   4.739  0.1913  0.3645 -0.0948
 8955TIP3    H148356   0.473   6.556   4.675 -0.7706 -0.1113  0.6915
 8955TIP3    H248357   0.591   6.608   4.753  0.2232  0.5606 -1.2345
 8956TIP3   OH248358   3.865   3.828   5.952  0.2525  0.4368 -0.1317
 8956TIP3    H148359   3.873   3.922   5.935 -0.1849  0.1726 -1.9345
 8956TIP3    H248360   3.913   3.814   6.034  2.5329  1.8162 -1.1889
 8957TIP3   OH248361   0.974   3.898   4.961  0.1775  0.2917  0.0945
 8957TIP3    H148362   0.919   3.896   5.040 -0.3327  0.4018 -0.2557
 8957TIP3    H248363   0.951   3.981   4.918 -1.2973 -0.8498 -1.4009
 8958TIP3   OH248364   5.346   6.722   2.628 -0.0498 -0.4001  0.4104
 8958TIP3    H148365   5.298   6.777   2.567  1.3016 -0.1485 -0.4201
 8958TIP3    H248366   5.410   6.676   2.575 -0.4523 -1.9940  1.2584
 8959TIP3   OH248367   4.129   5.405  15.890 -0.5256 -0.1190 -0.7794
 8959TIP3    H148368   4.196   5.369  15.833  2.5825  1.4993  1.7078
 8959TIP3    H248369   4.175   5.470  15.944 -4.5056  2.6629 -0.4730
 8960TIP3   OH248370   1.837   0.873   3.227  0.2565  0.1186  0.0698
 8960TIP3    H148371   1.753   0.896   3.186  0.4712 -2.2194 -1.7564
 8960TIP3    H248372   1.812   0.838   3.313 -0.3921  2.3897  0.8457
 8961TIP3   OH248373   3.617   2.591   1.282 -0.0932  0.3341  0.4172
 8961TIP3    H148374   3.528   2.556   1.288 -0.2774  0.5972 -0.7433
 8961TIP3    H248375   3.643   2.606   1.373 -0.7300 -0.9892  0.8257
 8962TIP3   OH248376   0.671   0.697  14.101  0.0111  0.2325 -0.4504
 8962TIP3    H148377   0.758   0.669  14.129 -0.5843 -0.2186  0.9676
 8962TIP3    H248378   0.675   0.695  14.005  1.5590  0.2248 -0.3964
 8963TIP3   OH248379   0.946   5.848   4.202  0.2335 -0.6216 -0.0064
 8963TIP3    H148380   1.027   5.866   4.153  0.4010  0.3718  0.6309
 8963TIP3    H248381   0.878   5.897   4.155  0.0383 -1.2578 -0.3965
 8964TIP3   OH248382   5.042   3.429  15.727 -0.0678  0.0227 -0.2597
 8964TIP3    H148383   4.976   3.487  15.689 -0.3692  0.5524  1.0727
 8964TIP3    H248384   5.106   3.418  15.657  0.0281  2.0219 -0.5262
 8965TIP3   OH248385   4.520   6.459   1.334  0.2420  0.1405  0.0361
 8965TIP3    H148386   4.447   6.449   1.273  0.2726 -1.6914  0.2909
 8965TIP3    H248387   4.482   6.505   1.410 -0.6617 -0.8866  0.2071
 8966TIP3   OH248388   2.950   6.244  14.563 -0.0858 -0.3188 -0.5101
 8966TIP3    H148389   2.857   6.248  14.586  0.1641  2.6750  0.2282
 8966TIP3    H248390   2.966   6.325  14.514  2.1749 -0.6955 -0.4353
 8967TIP3   OH248391   3.840   0.240  11.457 -0.0409 -0.1031 -0.0646
 8967TIP3    H148392   3.889   0.178  11.512 -0.4237 -0.2136  0.1538
 8967TIP3    H248393   3.867   0.326  11.488 -0.8182 -0.1657  0.8068
 8968TIP3   OH248394   4.906   6.504  12.584  0.0524 -0.3004 -0.2278
 8968TIP3    H148395   4.933   6.430  12.637  0.6276  1.1640  1.5928
 8968TIP3    H248396   4.890   6.575  12.647 -1.3187  0.8857 -1.8282
 8969TIP3   OH248397   2.369   2.296  11.743 -0.1847 -0.1332 -0.7152
 8969TIP3    H148398   2.319   2.257  11.672 -0.7248  0.7050 -0.8025
 8969TIP3    H248399   2.390   2.223  11.801 -2.0370 -0.4147 -0.3651
 8970TIP3   OH248400   4.613   5.499   5.815  0.3655 -0.7742  0.1842
 8970TIP3    H148401   4.552   5.427   5.796  0.4634 -0.2257 -2.3949
 8970TIP3    H248402   4.698   5.456   5.827 -0.3985 -1.5194  3.5550
 8971TIP3   OH248403   4.333   2.727   0.054  1.1112  0.1288 -0.1772
 8971TIP3    H148404   4.299   2.796   0.111  0.5961 -0.0064 -0.3225
 8971TIP3    H248405   4.325   2.647   0.106  5.0231  0.6091  1.4235
 8972TIP3   OH248406   6.107   1.925  13.638  0.1773 -0.1701  0.6278
 8972TIP3    H148407   6.068   1.930  13.551  1.0716 -1.1933  0.1478
 8972TIP3    H248408   6.201   1.931  13.622  0.3533 -0.4400  1.5095
 8973TIP3   OH248409   0.778   2.596  16.496 -0.7317 -0.5888 -0.3360
 8973TIP3    H148410   0.840   2.618  16.426 -2.0494  0.3308 -1.2143
 8973TIP3    H248411   0.831   2.545  16.558  1.4431  1.8661 -0.0688
 8974TIP3   OH248412   2.506   5.024   4.024  0.0690 -0.4418 -0.0163
 8974TIP3    H148413   2.435   4.981   3.977  0.5010  2.1015 -3.2029
 8974TIP3    H248414   2.462   5.084   4.084 -0.5298 -0.3117 -0.5727
 8975TIP3   OH248415   0.326   5.718  13.840  0.2516  0.4521  0.0123
 8975TIP3    H148416   0.326   5.652  13.770 -0.6808  1.3307 -0.8224
 8975TIP3    H248417   0.411   5.707  13.883 -0.7314 -2.7684  1.2753
 8976TIP3   OH248418   3.588   3.449   3.076  0.0147 -0.4338 -0.2448
 8976TIP3    H148419   3.641   3.450   3.156  0.4939 -0.2636 -0.5613
 8976TIP3    H248420   3.588   3.539   3.046  1.0754 -0.7542 -1.2426
 8977TIP3   OH248421   3.361   0.432   2.248 -0.2436  0.2425  0.4037
 8977TIP3    H148422   3.359   0.517   2.291 -2.1567  0.8508 -0.8159
 8977TIP3    H248423   3.343   0.369   2.318  0.4169  0.9105  1.1734
 8978TIP3   OH248424   2.323   0.318   0.075  0.5399 -0.6124 -0.2182
 8978TIP3    H148425   2.342   0.371  -0.003  3.3585 -1.9020 -0.4558
 8978TIP3    H248426   2.314   0.229   0.041 -2.3128 -0.6301  0.4351
 8979TIP3   OH248427   3.372   2.054   2.560 -0.5740  0.0431 -0.2955
 8979TIP3    H148428   3.453   2.088   2.598 -0.4193 -1.7017  1.0551
 8979TIP3    H248429   3.401   2.003   2.484 -0.3211 -1.0245  0.4979
 8980TIP3   OH248430   3.307   2.700   2.917  0.3339  0.4185  0.0424
 8980TIP3    H148431   3.256   2.693   2.837  0.1887  0.3210  0.1445
 8980TIP3    H248432   3.314   2.610   2.950 -0.4900  0.5884  0.6982
 8981TIP3   OH248433   1.223   5.578   3.513  0.4384  0.1212  0.0924
 8981TIP3    H148434   1.221   5.497   3.461 -0.2481  0.2834 -0.1346
 8981TIP3    H248435   1.231   5.548   3.603  1.2530 -0.1745 -0.0698
 8982TIP3   OH248436   3.242   3.613  15.707 -0.2870 -0.2824  0.4431
 8982TIP3    H148437   3.208   3.594  15.795 -0.2060 -2.7384 -0.0160
 8982TIP3    H248438   3.240   3.708  15.700 -1.1279 -0.1059  2.7827
 8983TIP3   OH248439   3.972   0.743   5.635 -0.9731  0.4450 -0.0918
 8983TIP3    H148440   3.912   0.673   5.658 -0.6347 -0.4249 -1.7676
 8983TIP3    H248441   3.917   0.822   5.634 -1.3016  0.2604  2.0167
 8984TIP3   OH248442   2.445   5.515   0.729 -0.4214  0.4821 -0.3418
 8984TIP3    H148443   2.420   5.445   0.789 -0.7239  0.8187 -0.0675
 8984TIP3    H248444   2.513   5.477   0.673 -0.5111  0.0070 -0.1268
 8985TIP3   OH248445   6.142   4.840   2.527  0.0363 -0.0425 -0.5773
 8985TIP3    H148446   6.130   4.934   2.540  0.0566 -0.1629  0.3445
 8985TIP3    H248447   6.152   4.804   2.615  1.8051 -0.6692 -0.9921
 8986TIP3   OH248448   3.637   5.000  14.898  0.3898  0.3027  0.6049
 8986TIP3    H148449   3.673   4.957  14.820  1.2247 -0.5806  1.4640
 8986TIP3    H248450   3.655   5.093  14.884  0.2671  0.1828 -0.3973
 8987TIP3   OH248451   3.634   5.451  16.686  0.7744  0.1013  0.3376
 8987TIP3    H148452   3.568   5.385  16.706 -1.2791  1.8970 -0.2227
 8987TIP3    H248453   3.627   5.463  16.591  1.3192  0.8795  0.3919
 8988TIP3   OH248454   3.269   5.931  16.678  0.2386 -0.9031 -0.2549
 8988TIP3    H148455   3.355   5.891  16.685  0.3653 -0.9181 -1.7690
 8988TIP3    H248456   3.285   6.016  16.637 -0.5527 -1.2940 -1.4162
 8989TIP3   OH248457   6.444   1.669   2.916 -0.1526  0.5471 -0.5481
 8989TIP3    H148458   6.426   1.735   2.849  0.3731 -0.0476 -1.2888
 8989TIP3    H248459   6.361   1.659   2.964 -1.3498 -0.9356 -2.8153
 8990TIP3   OH248460   6.043   4.680  11.962  0.6440  0.2320  0.7671
 8990TIP3    H148461   5.991   4.732  12.023 -0.9176  0.4757 -0.7262
 8990TIP3    H248462   6.007   4.701  11.876  1.5278 -1.5471 -0.0667
 8991TIP3   OH248463   0.465   4.757  12.751  0.2649 -0.2733 -0.2766
 8991TIP3    H148464   0.415   4.762  12.670 -0.0438 -0.1492 -0.0794
 8991TIP3    H248465   0.542   4.812  12.734  0.6168 -0.9061 -0.7717
 8992TIP3   OH248466   2.119   4.158  17.093 -0.1703  0.3600  0.2241
 8992TIP3    H148467   2.182   4.182  17.161  1.3204 -0.5080 -0.7970
 8992TIP3    H248468   2.068   4.237  17.078  2.2145  1.8380 -0.5224
 8993TIP3   OH248469   2.134   2.608   5.752 -0.9655  0.3976  0.1925
 8993TIP3    H148470   2.134   2.583   5.844  0.0200 -0.3004  0.0047
 8993TIP3    H248471   2.205   2.558   5.713 -1.6372  0.3848 -1.0370
 8994TIP3   OH248472   1.215   2.559   4.862  0.0433  0.2573  0.2214
 8994TIP3    H148473   1.195   2.565   4.769  1.3999  0.9123 -0.0396
 8994TIP3    H248474   1.165   2.483   4.892 -0.8517  0.3762 -0.9090
 8995TIP3   OH248475   0.305   2.909   1.068  0.2450 -0.0643  0.7136
 8995TIP3    H148476   0.240   2.925   1.136  1.2533 -0.7448  1.8564
 8995TIP3    H248477   0.311   2.992   1.020  1.1687  1.1730  2.8916
 8996TIP3   OH248478   6.391   5.989  16.812 -0.0724 -0.3063 -0.1828
 8996TIP3    H148479   6.322   5.984  16.746 -0.5063  1.8360  0.0643
 8996TIP3    H248480   6.467   5.947  16.772 -0.8526 -0.6087 -1.3493
 8997TIP3   OH248481   4.604   6.279  12.357  0.2839 -0.4022  0.1444
 8997TIP3    H148482   4.636   6.313  12.441  1.5091 -0.4853 -0.2900
 8997TIP3    H248483   4.518   6.241  12.378 -0.3133  1.3785  0.9676
 8998TIP3   OH248484   1.579   5.603   2.515  0.3178 -0.3806  0.1324
 8998TIP3    H148485   1.544   5.592   2.603  0.6701 -1.1929  0.1696
 8998TIP3    H248486   1.523   5.548   2.460 -0.5755  0.9600 -0.3172
 8999TIP3   OH248487   2.457   5.946  16.630 -0.7776 -0.2024 -0.3019
 8999TIP3    H148488   2.362   5.946  16.640 -0.8160  0.1444 -0.6529
 8999TIP3    H248489   2.489   5.970  16.717 -1.0944  1.9049 -0.7198
 9000TIP3   OH248490   5.936   1.041  16.288 -0.8515 -1.1001  0.2276
 9000TIP3    H148491   5.881   0.987  16.345 -1.1774 -0.6843  0.3079
 9000TIP3    H248492   5.982   1.100  16.347 -3.6759  1.6125 -0.1458
 9001TIP3   OH248493   4.363   3.811  15.785  0.2608 -0.2798 -0.1024
 9001TIP3    H148494   4.379   3.722  15.754 -0.6548 -0.3260 -0.4371
 9001TIP3    H248495   4.338   3.860  15.707 -1.4732 -0.2581  0.4511
 9002TIP3   OH248496   3.522   3.562   5.497  0.7732  0.5183  0.6516
 9002TIP3    H148497   3.512   3.645   5.451  1.1674 -0.4491 -1.2534
 9002TIP3    H248498   3.612   3.534   5.477  0.5152 -0.5474  0.9373
 9003TIP3   OH248499   2.885   0.953   1.436 -0.1382 -0.3309  0.0835
 9003TIP3    H148500   2.844   0.899   1.369 -0.1541 -0.1678 -0.0381
 9003TIP3    H248501   2.895   0.895   1.511  1.5335 -1.0359 -0.6613
 9004TIP3   OH248502   1.004   2.507  11.706  0.3090  0.6029  0.0742
 9004TIP3    H148503   1.023   2.417  11.733  0.2568 -0.2279 -2.5484
 9004TIP3    H248504   0.912   2.505  11.679  0.7163  1.0642 -1.4064
 9005TIP3   OH248505   2.253   3.456  11.163  0.2393 -0.2539 -0.1716
 9005TIP3    H148506   2.330   3.409  11.196  1.6648  1.4970 -0.9101
 9005TIP3    H248507   2.179   3.420  11.213  1.8998  0.0457  2.6194
 9006TIP3   OH248508   4.190   2.739  12.274  0.6295 -0.1646  0.1432
 9006TIP3    H148509   4.125   2.696  12.218  1.0742 -0.6645  0.0038
 9006TIP3    H248510   4.139   2.775  12.347 -0.2898  2.6670 -1.8367
 9007TIP3   OH248511   6.334   2.684  11.334  0.0763 -0.4414  0.3474
 9007TIP3    H148512   6.317   2.669  11.427  0.7373  1.5863  0.8217
 9007TIP3    H248513   6.249   2.712  11.299  0.0387 -0.2845  0.5577
 9008TIP3   OH248514   5.569   6.093   5.816 -0.1786  0.1681  0.5395
 9008TIP3    H148515   5.519   6.015   5.792 -0.0995  0.4990 -0.7424
 9008TIP3    H248516   5.519   6.166   5.779  1.0510  0.5251 -0.4804
 9009TIP3   OH248517   6.434   4.175  12.471  0.0902  0.4537  0.5605
 9009TIP3    H148518   6.509   4.149  12.525  0.3313  0.6904  0.3413
 9009TIP3    H248519   6.383   4.095  12.461  0.9349  0.0047 -0.2812
 9010TIP3   OH248520   3.571   2.581  13.759  0.1490  0.0784 -0.0184
 9010TIP3    H148521   3.557   2.532  13.678 -0.0650  0.7485 -0.3927
 9010TIP3    H248522   3.611   2.518  13.819 -0.8430 -0.7657 -0.2402
 9011TIP3   OH248523   4.721   3.631  12.771 -0.1381  0.9170 -0.3958
 9011TIP3    H148524   4.628   3.647  12.754  0.1030  0.6700 -2.0728
 9011TIP3    H248525   4.723   3.590  12.857 -1.7019 -0.2454 -0.8939
 9012TIP3   OH248526   1.825   4.544   6.628 -0.2195 -0.1401 -0.4540
 9012TIP3    H148527   1.756   4.588   6.678  0.8566 -1.3238  2.1424
 9012TIP3    H248528   1.799   4.451   6.629  0.5070 -0.3523 -0.9903
 9013TIP3   OH248529   5.289   1.537   5.550 -0.2641 -0.2542 -0.6907
 9013TIP3    H148530   5.312   1.552   5.458  1.9436  1.0631  0.0459
 9013TIP3    H248531   5.248   1.620   5.577 -1.3489 -0.8103 -0.5925
 9014TIP3   OH248532   6.519   0.362   4.023 -0.4546  0.3531  0.5162
 9014TIP3    H148533   6.470   0.290   3.983  0.3353  0.5867 -0.9288
 9014TIP3    H248534   6.607   0.354   3.987  0.4456  0.2790  2.6472
 9015TIP3   OH248535   6.137   1.614  14.363 -0.3265  0.1047  0.1493
 9015TIP3    H148536   6.073   1.685  14.366  0.3054  0.6462  1.2927
 9015TIP3    H248537   6.103   1.547  14.422 -0.7349 -0.4000 -0.6449
 9016TIP3   OH248538   6.078   0.384  17.020  0.1407 -0.0921 -0.0376
 9016TIP3    H148539   6.059   0.291  17.012 -0.2895  0.0388 -0.5808
 9016TIP3    H248540   6.047   0.408  17.107  1.7832 -0.8135  0.7605
 9017TIP3   OH248541   6.793   1.173   2.890 -0.8548 -0.2532  0.0266
 9017TIP3    H148542   6.834   1.153   2.805  2.2484 -1.1375  1.6401
 9017TIP3    H248543   6.772   1.266   2.885  1.3738  0.2490 -0.9465
 9018TIP3   OH248544   4.101   0.585   1.731 -0.2238  0.5559  0.7160
 9018TIP3    H148545   4.056   0.532   1.797  1.2875  0.6230  1.8208
 9018TIP3    H248546   4.193   0.584   1.757  0.4406  0.4169 -1.5175
 9019TIP3   OH248547   4.886   1.514   3.620 -0.2217  0.3482 -0.1861
 9019TIP3    H148548   4.886   1.598   3.574 -0.7910  0.2623 -0.3414
 9019TIP3    H248549   4.872   1.537   3.712 -2.4205  0.2817 -0.4889
 9020TIP3   OH248550   1.755   4.989   0.293  0.2537  0.2303  0.6341
 9020TIP3    H148551   1.677   4.933   0.290 -0.0500  0.7148 -2.5463
 9020TIP3    H248552   1.724   5.071   0.330 -1.2209  1.0382 -2.2665
 9021TIP3   OH248553   1.184   1.342   2.143  0.2970 -0.3872  0.1056
 9021TIP3    H148554   1.101   1.294   2.139  0.8480 -1.3391 -0.1092
 9021TIP3    H248555   1.173   1.402   2.216 -1.6316  1.5237 -1.6955
 9022TIP3   OH248556   1.925   4.478   3.109  0.5315 -0.6193 -0.4368
 9022TIP3    H148557   1.909   4.495   3.202 -0.1613 -0.1379 -0.6375
 9022TIP3    H248558   1.838   4.459   3.074  0.5613  0.7748 -1.3041
 9023TIP3   OH248559   0.478   2.776  15.871  0.9805  0.3391  0.3387
 9023TIP3    H148560   0.418   2.848  15.889  0.2315 -0.2987  0.4151
 9023TIP3    H248561   0.564   2.811  15.893  0.8530  1.8470 -1.4613
 9024TIP3   OH248562   3.094   6.332   1.516  0.1303  0.6598 -0.3868
 9024TIP3    H148563   3.006   6.370   1.521 -0.8759 -1.4533 -1.1292
 9024TIP3    H248564   3.115   6.333   1.423  1.4622  2.3451 -0.0842
 9025TIP3   OH248565   1.438   2.442   1.774 -0.9725  0.2022 -0.2214
 9025TIP3    H148566   1.497   2.502   1.727  0.0293  0.2089  1.0257
 9025TIP3    H248567   1.468   2.445   1.865 -0.6914 -2.4170 -0.1805
 9026TIP3   OH248568   0.762   1.053  14.360  0.0511  0.0662  0.5997
 9026TIP3    H148569   0.711   1.129  14.388 -1.0453 -0.8015  1.0041
 9026TIP3    H248570   0.699   0.981  14.357  0.7973 -0.5413 -1.1076
 9027TIP3   OH248571   6.432   4.769  12.561 -0.4031 -0.0806 -0.3226
 9027TIP3    H148572   6.493   4.750  12.490  0.5239  1.2686  0.0991
 9027TIP3    H248573   6.377   4.691  12.566  2.4473 -2.1579  0.4789
 9028TIP3   OH248574   0.726   0.827   4.644 -0.3636  0.1758 -0.5516
 9028TIP3    H148575   0.685   0.822   4.731 -0.8107 -0.7998 -0.8080
 9028TIP3    H248576   0.820   0.835   4.662 -0.3136 -1.4368  0.0392
 9029TIP3   OH248577   3.171   4.856  13.445 -0.3965  0.2623 -0.3329
 9029TIP3    H148578   3.226   4.838  13.369  0.7820  2.0201  0.0731
 9029TIP3    H248579   3.212   4.806  13.516 -0.2498  0.3136 -0.3816
 9030TIP3   OH248580   2.118   0.330   4.297  0.2788  0.2059 -0.5570
 9030TIP3    H148581   2.127   0.296   4.386 -0.6586 -2.6504 -1.4874
 9030TIP3    H248582   2.053   0.400   4.305 -0.7199 -0.8309  0.8255
 9031TIP3   OH248583   3.219   4.895  16.580  0.2786  0.0057  0.8239
 9031TIP3    H148584   3.183   4.820  16.628 -1.2011 -0.1457 -0.4909
 9031TIP3    H248585   3.277   4.855  16.515 -0.1989  0.0288  0.3865
 9032TIP3   OH248586   2.460   2.289  17.130 -0.0520  0.5704  0.2869
 9032TIP3    H148587   2.463   2.235  17.208  0.6805  2.1157  1.3651
 9032TIP3    H248588   2.452   2.227  17.057  2.3134 -1.0682  1.3573
 9033TIP3   OH248589   6.142   1.248  14.209 -0.1109 -0.6699  0.1110
 9033TIP3    H148590   6.173   1.170  14.163 -1.1135 -0.4480 -0.9396
 9033TIP3    H248591   6.093   1.213  14.284  1.8414 -1.0280  1.2578
 9034TIP3   OH248592   1.717   5.739   6.072 -0.3255  0.0544 -0.1316
 9034TIP3    H148593   1.742   5.663   6.020 -1.9995 -1.0369  0.6000
 9034TIP3    H248594   1.671   5.797   6.011 -3.8602 -2.0205  0.4276
 9035TIP3   OH248595   1.766   4.972  15.814  0.3793  0.3643 -0.0647
 9035TIP3    H148596   1.791   4.929  15.897 -1.8739  0.4585  0.6884
 9035TIP3    H248597   1.674   4.949  15.802  0.1595  1.9690 -1.5637
 9036TIP3   OH248598   4.696   4.112  12.916  0.3732 -0.0372  0.4435
 9036TIP3    H148599   4.721   4.081  13.003  2.1162 -2.2329 -0.7724
 9036TIP3    H248600   4.643   4.041  12.880  1.7424 -0.2474 -1.2007
 9037TIP3   OH248601   6.664   6.672   5.364 -0.3445 -0.7911 -0.1608
 9037TIP3    H148602   6.733   6.635   5.310 -0.3494  0.7671 -1.2785
 9037TIP3    H248603   6.710   6.723   5.431 -0.3597  1.9367 -2.1218
 9038TIP3   OH248604   4.934   2.279   2.115  0.6426 -0.0676 -0.3134
 9038TIP3    H148605   4.959   2.199   2.068  1.7974 -1.8499  3.1071
 9038TIP3    H248606   4.885   2.247   2.191 -0.3634  2.6191  0.2024
 9039TIP3   OH248607   4.521   4.150  14.635 -0.2572 -0.0329  0.6781
 9039TIP3    H148608   4.545   4.241  14.653 -1.1104  0.3648 -0.1266
 9039TIP3    H248609   4.478   4.153  14.549 -1.2896 -1.0169  1.1428
 9040TIP3   OH248610   5.676   5.498   4.890 -0.0645 -0.0657 -0.2504
 9040TIP3    H148611   5.600   5.468   4.940 -0.2357  0.0866 -0.4222
 9040TIP3    H248612   5.678   5.593   4.902 -0.7717  0.1067 -1.4711
 9041TIP3   OH248613   2.873   0.568  15.329 -0.0794  0.7206  0.1362
 9041TIP3    H148614   2.837   0.568  15.418 -2.5935  0.1468 -0.8340
 9041TIP3    H248615   2.834   0.491  15.288  0.7700  1.2024 -1.5963
 9042TIP3   OH248616   2.887   0.301   3.644 -0.3588 -0.5121 -0.5316
 9042TIP3    H148617   2.830   0.238   3.600 -0.8110 -0.7604  0.4084
 9042TIP3    H248618   2.843   0.320   3.726  0.3599  0.1449 -0.2947
 9043TIP3   OH248619   4.109   4.880   0.008 -0.2408 -0.1077  0.3711
 9043TIP3    H148620   4.014   4.896   0.013 -0.4902 -1.2969 -0.2832
 9043TIP3    H248621   4.126   4.819   0.080 -0.2818 -1.2180 -0.5434
 9044TIP3   OH248622   3.700   4.318   1.234  0.3977  0.4050  0.2987
 9044TIP3    H148623   3.713   4.258   1.306  0.7877  2.0956  1.6815
 9044TIP3    H248624   3.610   4.350   1.246 -0.3544 -1.0723 -1.3340
 9045TIP3   OH248625   4.512   6.384  17.139 -0.9013  0.4175 -0.9361
 9045TIP3    H148626   4.549   6.452  17.196 -0.1007 -0.6738 -0.1353
 9045TIP3    H248627   4.448   6.339  17.195  0.3549 -1.0812 -0.6836
 9046TIP3   OH248628   2.783   1.643  16.034  0.0461 -0.0271  0.5177
 9046TIP3    H148629   2.848   1.609  16.095 -0.3669 -0.6393  0.6216
 9046TIP3    H248630   2.754   1.566  15.984 -1.9874 -0.1176  1.7741
 9047TIP3   OH248631   5.158   1.890  15.194 -0.1761  0.7372  0.3604
 9047TIP3    H148632   5.210   1.881  15.114 -0.5739  3.0712 -0.1771
 9047TIP3    H248633   5.220   1.921  15.260  0.0457 -0.7295  0.8679
 9048TIP3   OH248634   3.569   0.466   5.144  0.8256  0.2031  0.2710
 9048TIP3    H148635   3.590   0.375   5.122 -1.0208 -0.5448  1.4975
 9048TIP3    H248636   3.642   0.495   5.199  1.3903 -0.5460 -0.0703
 9049TIP3   OH248637   5.686   1.229   0.795  0.7526 -0.1754  0.1764
 9049TIP3    H148638   5.593   1.233   0.769  0.6275 -0.5367  0.5559
 9049TIP3    H248639   5.711   1.320   0.807  0.4604 -0.0709  0.0223
 9050TIP3   OH248640   4.206   6.633   1.796 -0.0312  0.4600  0.4977
 9050TIP3    H148641   4.240   6.722   1.803  1.9780 -0.0887 -1.5855
 9050TIP3    H248642   4.194   6.605   1.886  0.6239  2.3718  1.2102
 9051TIP3   OH248643   5.429   4.773   4.458 -0.6147 -0.3719 -0.4648
 9051TIP3    H148644   5.415   4.843   4.393  1.7480  1.8092  1.2629
 9051TIP3    H248645   5.501   4.721   4.421  1.3280  1.3851  0.7111
 9052TIP3   OH248646   6.335   4.290   0.673  0.1327  0.1201  0.4767
 9052TIP3    H148647   6.281   4.258   0.745  0.1200  2.4341  1.5237
 9052TIP3    H248648   6.425   4.281   0.705  0.1099  1.5429  0.9791
 9053TIP3   OH248649   0.747   2.390  11.596 -0.1058  0.5049  0.3145
 9053TIP3    H148650   0.658   2.364  11.572 -0.6058  0.5269  2.0879
 9053TIP3    H248651   0.779   2.439  11.520 -0.2746 -2.5842 -1.8309
 9054TIP3   OH248652   6.415   4.353   2.956 -0.1793  0.2827  0.2443
 9054TIP3    H148653   6.395   4.349   3.050  0.1284  0.2170  0.3069
 9054TIP3    H248654   6.330   4.343   2.914 -0.3900  0.8722  0.5237
 9055TIP3   OH248655   6.343   2.323   0.171  0.1346  0.3866  0.6203
 9055TIP3    H148656   6.313   2.400   0.122 -1.2135  0.3359  1.3575
 9055TIP3    H248657   6.365   2.260   0.103 -0.5103  0.7718  0.0385
 9056TIP3   OH248658   2.423   4.104  15.271 -0.2012  0.1728  0.4143
 9056TIP3    H148659   2.406   4.018  15.309 -1.8960  0.7245  0.9499
 9056TIP3    H248660   2.500   4.091  15.216 -3.0684 -2.7844 -3.1819
 9057TIP3   OH248661   1.640   3.783  12.889 -0.4467 -0.3181  0.0417
 9057TIP3    H148662   1.571   3.748  12.947 -0.9402 -0.5364 -0.6708
 9057TIP3    H248663   1.672   3.707  12.841  0.3793 -0.2315  0.4558
 9058TIP3   OH248664   4.409   3.870   0.616  0.3742 -0.4914 -0.1743
 9058TIP3    H148665   4.337   3.824   0.572 -0.9167  0.0250  1.3764
 9058TIP3    H248666   4.366   3.933   0.673  2.0902  0.6236 -0.0704
 9059TIP3   OH248667   3.328   6.073   6.003 -0.6071 -0.3350 -0.8094
 9059TIP3    H148668   3.404   6.030   6.043 -0.7823 -0.7837 -0.9480
 9059TIP3    H248669   3.274   6.100   6.077 -0.1185  0.3444 -0.7014
 9060TIP3   OH248670   4.851   5.997   5.567  0.6589  0.1749  0.1238
 9060TIP3    H148671   4.928   5.979   5.622  0.1701  0.8187  1.0389
 9060TIP3    H248672   4.837   6.091   5.576  1.0339  0.4246 -1.7525
 9061TIP3   OH248673   3.212   4.889  15.912 -0.1170 -0.4026  0.6220
 9061TIP3    H148674   3.306   4.905  15.926 -0.5132  1.6005  1.0047
 9061TIP3    H248675   3.210   4.808  15.861  1.8413 -0.2924  0.3149
 9062TIP3   OH248676   6.422   4.306   2.555  0.9614  0.4517 -0.2015
 9062TIP3    H148677   6.509   4.269   2.542  0.7598 -0.8531  1.9269
 9062TIP3    H248678   6.434   4.400   2.539  2.1865 -0.0338 -2.4106
 9063TIP3   OH248679   3.578   4.414   3.842  0.1999  0.5796 -0.3460
 9063TIP3    H148680   3.578   4.318   3.839 -0.1582  0.4737  1.9245
 9063TIP3    H248681   3.670   4.438   3.835  0.2539  0.1089 -1.4019
 9064TIP3   OH248682   3.806   1.675   1.676 -1.0284 -0.3964 -0.0351
 9064TIP3    H148683   3.885   1.620   1.675 -0.7659 -0.0230  0.1783
 9064TIP3    H248684   3.791   1.693   1.769  0.2497  1.8586 -0.2327
 9065TIP3   OH248685   6.661   2.922   3.230 -0.1271  0.1004  0.6972
 9065TIP3    H148686   6.672   2.951   3.139  2.6687  0.0299  0.9597
 9065TIP3    H248687   6.677   3.000   3.282  0.0131 -0.2420  1.1716
 9066TIP3   OH248688   2.894   2.384   6.098  0.1513  0.0862  0.0883
 9066TIP3    H148689   2.886   2.423   6.185  0.4077  0.2556  0.0356
 9066TIP3    H248690   2.895   2.290   6.113 -1.6441  0.0541  0.1344
 9067TIP3   OH248691   5.134   1.632  11.655 -0.8822 -0.2166  0.6864
 9067TIP3    H148692   5.163   1.624  11.746  1.5095 -0.5412 -0.0743
 9067TIP3    H248693   5.201   1.686  11.613 -1.5996 -0.6477 -1.0428
 9068TIP3   OH248694   6.581   3.941  11.551  0.4241  0.7523 -0.2563
 9068TIP3    H148695   6.486   3.942  11.562  0.2400  0.6623 -1.7656
 9068TIP3    H248696   6.606   3.850  11.564  0.3500  0.8258  0.4368
 9069TIP3   OH248697   1.354   5.261  16.022  0.5846 -0.0525  1.1821
 9069TIP3    H148698   1.350   5.213  16.105  0.0170  0.3974  1.4205
 9069TIP3    H248699   1.382   5.349  16.047  1.1197 -0.1203  0.8094
 9070TIP3   OH248700   4.229   1.732  14.246 -0.3876 -0.3263  0.3360
 9070TIP3    H148701   4.241   1.807  14.305 -0.2857  1.4541 -1.8743
 9070TIP3    H248702   4.289   1.665  14.280  2.9970  2.2388 -0.3104
 9071TIP3   OH248703   4.808   4.430  11.440  0.3290  0.0888  0.3145
 9071TIP3    H148704   4.736   4.479  11.401  1.5678  2.8406  1.3250
 9071TIP3    H248705   4.771   4.393  11.520 -0.4420 -0.0148 -0.0898
 9072TIP3   OH248706   4.489   0.674   3.363  0.7356  0.7837 -0.0779
 9072TIP3    H148707   4.456   0.673   3.453  0.9611 -0.8461 -0.0022
 9072TIP3    H248708   4.573   0.629   3.368  1.3462  1.8297 -0.8878
 9073TIP3   OH248709   3.773   4.525  12.507 -0.2224  0.1843 -0.1087
 9073TIP3    H148710   3.831   4.583  12.459 -0.8192 -0.1189 -1.2009
 9073TIP3    H248711   3.785   4.550  12.599 -0.4004  1.9767 -0.5544
 9074TIP3   OH248712   4.800   3.151   0.038 -0.5517  0.3685  0.3313
 9074TIP3    H148713   4.790   3.058   0.018  0.4337  0.3864 -0.2204
 9074TIP3    H248714   4.711   3.187   0.029 -1.0450 -0.6267  1.1245
 9075TIP3   OH248715   0.091   0.707   4.362 -0.8252 -0.0781  0.1111
 9075TIP3    H148716   0.100   0.740   4.451 -0.8525  1.9777 -0.6355
 9075TIP3    H248717  -0.003   0.714   4.343 -1.4575 -4.1712  1.2718
 9076TIP3   OH248718   0.975   4.944  15.180 -0.8638 -0.7150  0.5339
 9076TIP3    H148719   1.008   5.017  15.231 -1.1613  0.9410 -1.5594
 9076TIP3    H248720   1.044   4.878  15.182  0.7845  0.9612 -0.2378
 9077TIP3   OH248721   2.621   4.417   4.941 -0.0389 -0.0537 -0.1853
 9077TIP3    H148722   2.629   4.435   4.848  1.3490  0.6268  0.0570
 9077TIP3    H248723   2.573   4.493   4.975 -0.2035 -0.1139 -0.2845
 9078TIP3   OH248724   4.498   3.402   3.077 -0.1269  0.0459  0.2176
 9078TIP3    H148725   4.495   3.337   3.147  0.6437  0.3848  0.5737
 9078TIP3    H248726   4.585   3.392   3.039  0.4884  1.7610  1.1352
 9079TIP3   OH248727   3.956   4.599  13.641  0.3468  0.2592  0.3528
 9079TIP3    H148728   3.903   4.591  13.720 -0.4251  1.8236  0.0119
 9079TIP3    H248729   3.927   4.681  13.601  1.6432  0.1375 -0.8715
 9080TIP3   OH248730   2.796   0.836  11.859 -0.2350  0.2679  0.5435
 9080TIP3    H148731   2.836   0.750  11.871 -1.8607 -0.4756  0.8154
 9080TIP3    H248732   2.713   0.831  11.907 -0.8685  1.6042 -0.3703
 9081TIP3   OH248733   6.047   0.616  12.145 -0.5391  0.0979 -0.4039
 9081TIP3    H148734   6.110   0.549  12.170  0.1152  0.3254 -1.4254
 9081TIP3    H248735   6.066   0.690  12.203 -0.0033  0.0888 -0.5682
 9082TIP3   OH248736   0.415   5.438  13.110  0.2348  0.1888  0.2920
 9082TIP3    H148737   0.403   5.530  13.084  0.2191  1.3610  4.1823
 9082TIP3    H248738   0.330   5.398  13.094 -0.0225  1.0675 -0.6088
 9083TIP3   OH248739   6.757   2.606   3.326  0.2540  0.1322  0.0148
 9083TIP3    H148740   6.840   2.603   3.374  0.4308  1.1185 -0.2229
 9083TIP3    H248741   6.774   2.662   3.250 -0.7427  0.6992  0.1902
 9084TIP3   OH248742   1.793   3.197   0.790  0.6325  1.0070 -0.4043
 9084TIP3    H148743   1.788   3.180   0.696  0.2935 -1.5165  0.0087
 9084TIP3    H248744   1.706   3.176   0.823  0.5670  2.4909  0.3931
 9085TIP3   OH248745   3.384   0.944  11.392 -0.1657  0.3620  0.0345
 9085TIP3    H148746   3.412   0.951  11.300 -0.2858  0.6383  0.0193
 9085TIP3    H248747   3.455   0.895  11.434 -0.5588 -0.6056 -0.4014
 9086TIP3   OH248748   2.016   1.308  12.406 -0.4398  0.3228  0.6074
 9086TIP3    H148749   1.944   1.273  12.457  0.5319  0.0312  1.7911
 9086TIP3    H248750   1.976   1.377  12.353 -1.8519 -0.8014  0.1824
 9087TIP3   OH248751   6.586   4.889  15.016  0.2640  0.4403 -0.1158
 9087TIP3    H148752   6.628   4.806  15.036  1.9535  1.0609 -1.0043
 9087TIP3    H248753   6.632   4.921  14.938 -0.9081  1.8091 -0.2615
 9088TIP3   OH248754   5.119   0.594  13.095  0.2505  0.3064 -0.3651
 9088TIP3    H148755   5.193   0.571  13.040  0.7548  1.1243 -0.0331
 9088TIP3    H248756   5.112   0.689  13.089  0.5938  0.4622  1.3235
 9089TIP3   OH248757   5.072   0.631   1.893  0.4703  0.1612 -0.3044
 9089TIP3    H148758   4.990   0.668   1.927 -0.7423 -2.0250 -0.7853
 9089TIP3    H248759   5.056   0.621   1.799  0.9723 -1.0949 -0.2550
 9090TIP3   OH248760   2.573   4.302   1.226 -0.4882  0.0623  0.3860
 9090TIP3    H148761   2.570   4.367   1.295  0.5639  1.3070 -0.7107
 9090TIP3    H248762   2.523   4.228   1.260 -2.2258  1.6743  1.3781
 9091TIP3   OH248763   4.869   4.363  12.902  0.2314  1.3870  0.6537
 9091TIP3    H148764   4.807   4.306  12.857  0.7461  1.9575 -0.7932
 9091TIP3    H248765   4.856   4.344  12.995 -2.6736  2.0674  0.4237
 9092TIP3   OH248766   1.989   4.652   1.365  0.1514  0.4463 -0.1466
 9092TIP3    H148767   2.025   4.691   1.444  0.6914 -0.3816  0.0263
 9092TIP3    H248768   2.065   4.637   1.309 -0.2222  0.9998 -0.8195
 9093TIP3   OH248769   5.501   5.188   4.356  0.5576 -0.1471  0.0084
 9093TIP3    H148770   5.546   5.139   4.288 -0.0561  2.3468 -2.3156
 9093TIP3    H248771   5.408   5.184   4.331  0.2389  0.2011  1.1021
 9094TIP3   OH248772   6.127   0.158  12.596 -0.3530 -0.2271 -0.1396
 9094TIP3    H148773   6.203   0.184  12.544 -1.2712  0.5165 -1.1555
 9094TIP3    H248774   6.154   0.078  12.641  1.7179  1.1922  1.1707
 9095TIP3   OH248775   5.803   3.773   3.914  0.3082  0.0261  0.1255
 9095TIP3    H148776   5.737   3.829   3.872 -0.1604 -0.7872 -0.2480
 9095TIP3    H248777   5.830   3.713   3.844  0.2495 -0.6977  0.7251
 9096TIP3   OH248778   2.185   2.864  14.451 -0.6757 -0.2394 -0.3837
 9096TIP3    H148779   2.190   2.787  14.508 -0.5000  1.0309  1.3641
 9096TIP3    H248780   2.103   2.853  14.404 -0.3658 -1.7917 -0.5774
 9097TIP3   OH248781   4.442   5.072   3.039 -0.2000  0.0587 -0.8024
 9097TIP3    H148782   4.379   5.135   3.004  1.2663  0.5602 -2.6261
 9097TIP3    H248783   4.390   5.013   3.093 -2.1311  0.8044 -1.8183
 9098TIP3   OH248784   2.788   2.215   4.687  0.4109  0.2494  0.4058
 9098TIP3    H148785   2.740   2.293   4.715 -1.4675 -0.6082 -0.3701
 9098TIP3    H248786   2.880   2.242   4.690 -0.0146  1.6584  2.7719
 9099TIP3   OH248787   6.555   4.673   4.872  0.6448 -0.3251  0.3916
 9099TIP3    H148788   6.606   4.601   4.910  0.9878 -1.2366 -1.7303
 9099TIP3    H248789   6.516   4.637   4.793 -0.4123  1.4070  0.0788
 9100TIP3   OH248790   0.223   5.428  12.878 -0.4176  0.4412  0.1885
 9100TIP3    H148791   0.150   5.412  12.818  0.9299 -3.1835 -0.6240
 9100TIP3    H248792   0.192   5.395  12.962  0.9265 -3.0408 -0.6058
 9101TIP3   OH248793   5.367   4.072  15.355 -0.2976 -0.4409  0.4270
 9101TIP3    H148794   5.304   4.002  15.375  0.9887 -0.5600  4.4547
 9101TIP3    H248795   5.403   4.047  15.269 -0.3772 -4.3840  1.4282
 9102TIP3   OH248796   4.950   3.614   3.195 -0.0050 -0.2662 -0.3438
 9102TIP3    H148797   4.966   3.534   3.145  1.4825 -1.2356  1.6111
 9102TIP3    H248798   4.881   3.591   3.257  1.6929 -0.6508  1.4793
 9103TIP3   OH248799   6.800   3.798  16.928  0.0385  0.0451 -0.7875
 9103TIP3    H148800   6.831   3.765  16.844 -0.8302 -1.1535 -0.6600
 9103TIP3    H248801   6.754   3.724  16.967 -0.8757  1.0421  0.0744
 9104TIP3   OH248802   0.604   5.551  13.845 -0.2399  0.2465 -0.7229
 9104TIP3    H148803   0.653   5.617  13.893  3.0068 -1.5601 -1.3901
 9104TIP3    H248804   0.647   5.547  13.759 -0.8639 -2.1327 -0.9703
 9105TIP3   OH248805   2.611   0.169  12.912  0.9118 -0.6726  0.1832
 9105TIP3    H148806   2.556   0.246  12.902 -1.6699 -2.4057  0.5243
 9105TIP3    H248807   2.632   0.142  12.822  2.0631  0.5644  0.0703
 9106TIP3   OH248808   3.095   5.044   1.591  0.0907  0.2199 -0.0883
 9106TIP3    H148809   3.182   5.043   1.552 -0.2407 -1.3421 -0.8288
 9106TIP3    H248810   3.110   5.073   1.682  1.0472  2.3335 -0.8872
 9107TIP3   OH248811   4.106   3.862  11.882 -0.1313  0.0834 -0.5365
 9107TIP3    H148812   4.021   3.837  11.919  1.0265 -2.1836  0.6623
 9107TIP3    H248813   4.102   3.833  11.791 -0.4756 -0.3724 -0.3755
 9108TIP3   OH248814   4.899   6.676  12.803 -0.0920  0.0975 -0.3016
 9108TIP3    H148815   4.918   6.656  12.895  2.3468 -1.1243 -1.0373
 9108TIP3    H248816   4.970   6.732  12.775 -0.7586  0.3702 -1.4956
 9109TIP3   OH248817   2.962   2.515   2.893  0.6840 -0.0733  0.2078
 9109TIP3    H148818   3.045   2.518   2.845  1.4950 -1.1939  1.4919
 9109TIP3    H248819   2.896   2.504   2.825  1.6567 -0.0727 -0.7664
 9110TIP3   OH248820   6.605   1.800  11.381  0.6405 -0.5371 -0.1745
 9110TIP3    H148821   6.572   1.711  11.363 -0.6669  0.0050 -0.5395
 9110TIP3    H248822   6.632   1.797  11.473 -2.2701 -0.4952  0.7529
 9111TIP3   OH248823   6.338   3.968  13.755  0.0306  0.0421 -0.3306
 9111TIP3    H148824   6.406   4.024  13.718 -0.4681  2.0532  1.6943
 9111TIP3    H248825   6.293   3.931  13.679  0.4687  2.2888 -1.7112
 9112TIP3   OH248826   6.340   4.226   1.708  0.2974  0.4443  0.2764
 9112TIP3    H148827   6.320   4.179   1.789 -0.1814  0.1821  0.0110
 9112TIP3    H248828   6.356   4.156   1.644 -1.6539  0.6034 -0.4339
 9113TIP3   OH248829   2.683   5.647  14.923  0.5405  0.4735 -0.0942
 9113TIP3    H148830   2.605   5.594  14.909  0.6473  0.0201  1.0137
 9113TIP3    H248831   2.671   5.685  15.010  1.4529  0.5727 -0.0099
 9114TIP3   OH248832   1.330   3.379  14.524 -0.2215  0.4252  0.1555
 9114TIP3    H148833   1.375   3.298  14.547 -0.8979  0.1332  0.4440
 9114TIP3    H248834   1.297   3.413  14.607  2.9496  2.7691  0.5722
 9115TIP3   OH248835   0.679   6.149   0.854 -0.4288 -0.8726 -0.9638
 9115TIP3    H148836   0.734   6.192   0.788  0.4236 -2.8590 -1.5826
 9115TIP3    H248837   0.652   6.067   0.813 -2.0602 -0.9160  0.1807
 9116TIP3   OH248838   3.894   0.810  16.459 -0.0329  0.0942 -0.2685
 9116TIP3    H148839   3.858   0.891  16.498 -1.3320 -0.8384  0.5355
 9116TIP3    H248840   3.874   0.817  16.366 -0.3530  0.6055 -0.1670
 9117TIP3   OH248841   0.618   2.596   1.357  0.1651 -0.1001 -0.0603
 9117TIP3    H148842   0.640   2.689   1.351  0.1877 -0.1402 -0.6075
 9117TIP3    H248843   0.572   2.587   1.441 -0.6312  0.5690 -0.4184
 9118TIP3   OH248844   5.141   1.542  16.651 -0.3547 -0.2995 -0.2001
 9118TIP3    H148845   5.149   1.488  16.730 -3.8402  0.3637  0.7093
 9118TIP3    H248846   5.098   1.484  16.587  0.1565 -0.0452 -0.7735
 9119TIP3   OH248847   2.521   1.954  10.427 -0.4512  0.3158  0.1230
 9119TIP3    H148848   2.497   1.862  10.437  1.3999 -0.2244 -0.1209
 9119TIP3    H248849   2.486   1.979  10.342 -0.4410 -0.3526 -0.0797
 9120TIP3   OH248850   5.712   0.289  17.089  0.0916 -0.2228  0.0460
 9120TIP3    H148851   5.675   0.285  17.001 -1.3442  0.0829  0.6254
 9120TIP3    H248852   5.793   0.237  17.083  1.1879  1.6097 -2.0009
 9121TIP3   OH248853   1.565   4.663  15.702 -0.4176  0.0183 -0.3137
 9121TIP3    H148854   1.558   4.569  15.684 -0.3591 -0.1523  0.5067
 9121TIP3    H248855   1.644   4.691  15.656 -0.9756 -0.1293 -1.3692
 9122TIP3   OH248856   4.723   0.525   5.456  0.2520  0.2410  0.0513
 9122TIP3    H148857   4.716   0.556   5.546  0.7674  1.3027 -0.2731
 9122TIP3    H248858   4.644   0.473   5.443  1.4159 -2.1397  1.9570
 9123TIP3   OH248859   1.471   3.603   5.184  0.0623 -0.4474 -0.8715
 9123TIP3    H148860   1.388   3.609   5.230 -0.3174 -0.0468 -1.6065
 9123TIP3    H248861   1.499   3.512   5.197  0.3073 -0.1523  0.7414
 9124TIP3   OH248862   6.587   2.397   5.847 -0.0731 -0.6999 -0.2267
 9124TIP3    H148863   6.503   2.352   5.858  0.2716 -1.0383  1.1115
 9124TIP3    H248864   6.651   2.326   5.834 -0.0569 -0.4218 -1.8343
 9125TIP3   OH248865   5.485   3.901   3.523  0.8061  0.4485  0.1429
 9125TIP3    H148866   5.513   3.810   3.515  1.0415  0.6776 -1.8556
 9125TIP3    H248867   5.545   3.949   3.465 -0.5121  1.6284 -0.2552
 9126TIP3   OH248868   2.172   5.980  12.325  0.1287 -0.6281  0.0793
 9126TIP3    H148869   2.226   5.915  12.370 -0.8427 -1.0707  0.6340
 9126TIP3    H248870   2.190   5.967  12.232  0.9112 -0.8235  0.2618
 9127TIP3   OH248871   4.102   3.839   1.720  0.0508 -0.1608  0.1302
 9127TIP3    H148872   4.153   3.875   1.648 -0.1682 -1.0841 -0.4839
 9127TIP3    H248873   4.059   3.762   1.684  1.5802 -1.8469  1.8172
 9128TIP3   OH248874   4.030   4.751   2.061  0.3828  0.3046  0.0556
 9128TIP3    H148875   4.081   4.811   2.114  0.4548 -0.3424  0.7240
 9128TIP3    H248876   4.094   4.690   2.025  0.2469  0.3032 -0.1895
 9129TIP3   OH248877   6.526   0.940  12.352 -0.5321 -0.0814  0.2225
 9129TIP3    H148878   6.458   1.003  12.377  1.6093  1.5524  2.1445
 9129TIP3    H248879   6.478   0.868  12.312 -3.2310  1.9205 -0.3265
 9130TIP3   OH248880   3.993   3.866   3.607 -0.1611  0.1764  0.1166
 9130TIP3    H148881   3.959   3.839   3.521 -0.7584  0.8482  0.1325
 9130TIP3    H248882   4.004   3.961   3.598  1.9653 -0.0701  0.0313
 9131TIP3   OH248883   2.592   6.354  15.382  0.2907 -0.1711 -0.2811
 9131TIP3    H148884   2.603   6.446  15.358 -1.0698  0.8885  2.8315
 9131TIP3    H248885   2.517   6.324  15.331 -0.1934  0.9087 -0.2282
 9132TIP3   OH248886   0.163   5.370  13.909  0.5149  0.8749 -0.1483
 9132TIP3    H148887   0.242   5.418  13.935  1.6161 -0.8565 -0.1848
 9132TIP3    H248888   0.179   5.347  13.818 -0.0539  0.5562 -0.1637
 9133TIP3   OH248889   3.407   4.126  16.514 -0.0779  0.0430 -0.0371
 9133TIP3    H148890   3.312   4.138  16.524  0.0604  0.9892  0.2500
 9133TIP3    H248891   3.423   4.036  16.540 -1.1949 -0.8117 -2.2156
 9134TIP3   OH248892   1.258   3.059  13.637 -0.8810  0.1836  0.8417
 9134TIP3    H148893   1.230   3.073  13.728  0.3530 -1.0563  1.4379
 9134TIP3    H248894   1.336   3.114  13.628 -1.6902  1.2449  0.1367
 9135TIP3   OH248895   3.887   4.712   1.658  0.3579 -0.3250 -0.2133
 9135TIP3    H148896   3.884   4.643   1.591 -0.5782  0.4579 -0.9989
 9135TIP3    H248897   3.822   4.776   1.628 -0.1882 -0.0431  1.5296
 9136TIP3   OH248898   6.730   5.884   1.540  0.2469  0.5286 -0.7620
 9136TIP3    H148899   6.719   5.970   1.581  2.1901 -0.3071  1.5924
 9136TIP3    H248900   6.640   5.850   1.532 -0.3751  1.8896  0.2496
 9137TIP3   OH248901   3.870   3.308  15.696  0.3686 -0.1693  0.5754
 9137TIP3    H148902   3.801   3.319  15.762  1.4370 -1.4700  1.9487
 9137TIP3    H248903   3.823   3.310  15.613 -1.0413  1.2427  1.3633
 9138TIP3   OH248904   4.081   4.133   3.435 -0.1768  0.3874  0.0132
 9138TIP3    H148905   4.008   4.142   3.496 -1.2790 -1.8269 -0.9188
 9138TIP3    H248906   4.040   4.135   3.348  0.8888 -0.6187 -0.5219
 9139TIP3   OH248907   5.353   1.156   3.779 -0.3424 -0.1367 -0.4447
 9139TIP3    H148908   5.259   1.138   3.776 -0.3344 -0.1734 -0.4633
 9139TIP3    H248909   5.391   1.092   3.720 -0.5698  1.5411 -2.4891
 9140TIP3   OH248910   4.722   1.031   0.940  0.1604 -0.3888  0.1530
 9140TIP3    H148911   4.793   1.091   0.915  0.8723 -1.4321 -0.3604
 9140TIP3    H248912   4.652   1.050   0.877 -0.2839  1.1175  1.0808
 9141TIP3   OH248913   1.054   4.692  14.644 -0.0969 -0.2987  0.2713
 9141TIP3    H148914   1.124   4.747  14.609  0.3589  0.7133  2.6389
 9141TIP3    H248915   0.996   4.676  14.570  1.6458  0.4111 -1.2848
 9142TIP3   OH248916   2.361   2.588   3.561  0.3656 -0.1999 -0.1256
 9142TIP3    H148917   2.447   2.555   3.585  0.8792  0.6301 -0.7856
 9142TIP3    H248918   2.378   2.675   3.524 -0.6990 -0.2249 -0.7092
 9143TIP3   OH248919   2.940   2.483   1.261  0.3050  0.3183  0.8409
 9143TIP3    H148920   2.964   2.393   1.239 -1.7763 -0.4980  1.8095
 9143TIP3    H248921   2.984   2.500   1.344 -1.2695 -0.6833  1.9016
 9144TIP3   OH248922   5.383   5.328  12.064  0.4176 -0.1836 -0.2463
 9144TIP3    H148923   5.374   5.258  12.129  0.8008 -0.8970 -0.9618
 9144TIP3    H248924   5.401   5.407  12.116 -0.2953 -0.5638  0.5752
 9145TIP3   OH248925   4.279   5.926   4.825 -0.6177 -0.1294 -0.1147
 9145TIP3    H148926   4.233   5.994   4.776  0.4142  0.0412 -0.8577
 9145TIP3    H248927   4.226   5.912   4.904 -0.9749  1.3214 -0.1000
 9146TIP3   OH248928   5.375   6.670   0.903 -0.1372 -0.1314  0.0632
 9146TIP3    H148929   5.333   6.756   0.914  1.6551  0.7260  0.4167
 9146TIP3    H248930   5.354   6.623   0.984 -1.3952 -0.1558 -0.2662
 9147TIP3   OH248931   5.706   2.904   4.092  0.0797  0.1127  0.2995
 9147TIP3    H148932   5.699   2.810   4.111 -2.1478  0.3581  0.8628
 9147TIP3    H248933   5.653   2.946   4.161  0.4263  1.7225 -0.4037
 9148TIP3   OH248934   0.559   2.628  11.435  0.0235  0.2925  0.4158
 9148TIP3    H148935   0.647   2.609  11.469 -0.8184 -0.9220  1.9983
 9148TIP3    H248936   0.540   2.555  11.376  0.1597  0.6759 -0.1079
 9149TIP3   OH248937   3.258   1.880  12.501  0.3126 -0.4234  0.2073
 9149TIP3    H148938   3.179   1.841  12.537 -1.3631  4.0693  1.8125
 9149TIP3    H248939   3.242   1.885  12.407 -0.6133 -0.9979  0.3350
 9150TIP3   OH248940   5.180   3.254   3.666 -0.4408  0.3114 -0.6365
 9150TIP3    H148941   5.089   3.224   3.664 -0.1416 -0.5424 -2.8759
 9150TIP3    H248942   5.222   3.209   3.592  1.8382  0.5919  0.4452
 9151TIP3   OH248943   5.236   3.194  15.356  0.1822  0.4287  0.2196
 9151TIP3    H148944   5.259   3.102  15.368  1.3747  0.4956 -1.4524
 9151TIP3    H248945   5.294   3.241  15.414  0.5750  0.2297 -0.0112
 9152TIP3   OH248946   3.391   6.255  13.199 -0.1559 -0.1244 -0.1096
 9152TIP3    H148947   3.324   6.192  13.171  0.1162 -0.3706 -0.2018
 9152TIP3    H248948   3.412   6.230  13.288 -0.6801  0.3725  0.1599
 9153TIP3   OH248949   0.437   2.536  16.038  0.6176  0.4962 -0.2007
 9153TIP3    H148950   0.420   2.490  15.956  0.0317 -1.3019  0.8716
 9153TIP3    H248951   0.424   2.628  16.018  1.5562  0.1712 -2.3714
 9154TIP3   OH248952   5.718   4.121   4.349  0.4784 -0.2937 -0.2115
 9154TIP3    H148953   5.751   4.122   4.439  0.9800  0.7710 -0.3993
 9154TIP3    H248954   5.731   4.031   4.320 -1.1488 -1.0462  1.3106
 9155TIP3   OH248955   5.670   1.461  13.054 -0.5789  0.5638  0.5649
 9155TIP3    H148956   5.692   1.476  12.962 -0.1064 -0.0170  0.5791
 9155TIP3    H248957   5.598   1.398  13.051  1.2014 -1.5452  0.6445
 9156TIP3   OH248958   1.818   3.591   0.798  0.1751  0.1780  0.6846
 9156TIP3    H148959   1.734   3.586   0.844 -0.5288  0.0728 -0.6005
 9156TIP3    H248960   1.862   3.666   0.838 -0.9715  0.8906  0.6284
 9157TIP3   OH248961   6.506   6.019   3.049 -0.0689 -0.6846 -0.6547
 9157TIP3    H148962   6.442   6.084   3.021  0.3733 -0.3787 -0.9687
 9157TIP3    H248963   6.456   5.938   3.057 -0.9579  0.0340  1.3670
 9158TIP3   OH248964   0.773   2.954   3.817  0.3919 -0.2006  0.4596
 9158TIP3    H148965   0.866   2.970   3.832  0.6329 -1.9139  0.8188
 9158TIP3    H248966   0.735   2.955   3.905  0.1356  0.0026  0.3478
 9159TIP3   OH248967   1.025   2.242   1.463  0.4895  0.2659 -0.2295
 9159TIP3    H148968   0.993   2.319   1.509  0.6632  0.6805 -0.7889
 9159TIP3    H248969   1.015   2.264   1.370  0.6813 -0.3242 -0.3917
 9160TIP3   OH248970   5.540   5.258   3.907  0.0206  0.4783  0.1119
 9160TIP3    H148971   5.548   5.284   3.815  0.6078 -0.8866 -0.2387
 9160TIP3    H248972   5.455   5.291   3.934 -0.5830  0.0650 -1.2086
 9161TIP3   OH248973   2.614   0.690  10.739  0.0521  0.3705  0.2304
 9161TIP3    H148974   2.619   0.777  10.699  1.8738  1.4816  2.7204
 9161TIP3    H248975   2.663   0.699  10.821 -0.3560 -2.8229  0.8781
 9162TIP3   OH248976   1.282   3.646  13.837 -0.5156  0.3193 -0.2945
 9162TIP3    H148977   1.333   3.632  13.917 -0.5242  0.0734 -0.3325
 9162TIP3    H248978   1.329   3.716  13.791  1.0222 -1.3767 -1.3748
 9163TIP3   OH248979   4.168   6.551  14.709  0.2576 -0.4162  0.3448
 9163TIP3    H148980   4.193   6.486  14.643  1.4877  1.4662 -1.0902
 9163TIP3    H248981   4.186   6.508  14.792  0.9738 -1.9565 -0.5706
 9164TIP3   OH248982   0.552   2.263   5.214 -0.0967  0.2186 -0.0193
 9164TIP3    H148983   0.607   2.278   5.291 -1.3502  2.1300  0.5666
 9164TIP3    H248984   0.588   2.321   5.147  0.2367 -0.5144 -0.4700
 9165TIP3   OH248985   0.669   0.764  10.504 -0.1614 -0.0781  0.4094
 9165TIP3    H148986   0.750   0.772  10.454 -0.5671 -0.3395 -0.2877
 9165TIP3    H248987   0.663   0.671  10.526 -0.7207 -0.2064 -0.2868
 9166TIP3   OH248988   4.658   2.691  16.393  0.1323  0.4611  0.0453
 9166TIP3    H148989   4.719   2.681  16.466  1.0741 -1.8537 -1.0157
 9166TIP3    H248990   4.692   2.765  16.343 -0.2883  1.8000  1.7251
 9167TIP3   OH248991   0.642   3.922  13.083 -0.8124  0.6251  0.7455
 9167TIP3    H148992   0.575   3.894  13.022 -0.1011  0.8841 -0.1679
 9167TIP3    H248993   0.599   3.986  13.140 -1.8763 -0.7402  1.4919
 9168TIP3   OH248994   3.790   2.819  14.745 -0.0466 -0.2487  0.1580
 9168TIP3    H148995   3.839   2.785  14.670  0.9391  0.1519  0.6199
 9168TIP3    H248996   3.849   2.810  14.819 -1.1798 -1.0565  0.9906
 9169TIP3   OH248997   2.466   1.521  14.754 -0.1252  0.0362  0.0354
 9169TIP3    H148998   2.549   1.531  14.708 -0.6571  0.4321 -0.8448
 9169TIP3    H248999   2.400   1.556  14.694 -1.1126 -1.6402  0.0930
 9170TIP3   OH249000   0.868   3.052  16.140  0.2813 -0.1039  0.3276
 9170TIP3    H149001   0.785   3.020  16.175  0.8002 -2.7816 -0.7146
 9170TIP3    H249002   0.934   2.998  16.183  1.4778  1.8586  0.9916
 9171TIP3   OH249003   3.825   3.686   4.343 -0.1303 -1.0020 -0.9535
 9171TIP3    H149004   3.751   3.646   4.389  0.0709 -0.5005 -0.1797
 9171TIP3    H249005   3.867   3.612   4.298 -1.1263 -1.2764 -1.4539
 9172TIP3   OH249006   6.663   5.583  12.934  0.2515 -0.9278  0.2520
 9172TIP3    H149007   6.669   5.677  12.954  0.8789 -0.4578 -2.0195
 9172TIP3    H249008   6.720   5.542  12.999  0.4828  0.3271  0.8683
 9173TIP3   OH249009   1.605   0.755  12.271  0.2195 -0.7283 -0.7329
 9173TIP3    H149010   1.649   0.691  12.326  0.6020  0.9900  1.0047
 9173TIP3    H249011   1.529   0.782  12.322  0.4813  0.7530 -1.1082
 9174TIP3   OH249012   6.005   3.216   2.819  0.1763 -0.1846  0.2625
 9174TIP3    H149013   5.974   3.218   2.728 -0.5492 -0.8263  0.4942
 9174TIP3    H249014   6.100   3.206   2.811  0.2804  1.1849 -0.4445
 9175TIP3   OH249015   6.552   2.045   1.811  0.2704  0.7315  0.4633
 9175TIP3    H149016   6.640   2.056   1.775  0.5667  0.3459  1.0659
 9175TIP3    H249017   6.557   1.967   1.866 -0.7039  0.1110 -0.2950
 9176TIP3   OH249018   5.332   5.195  10.512  0.0338  0.4602  0.5050
 9176TIP3    H149019   5.412   5.147  10.494  0.2713  0.5641  1.2481
 9176TIP3    H249020   5.288   5.144  10.581  0.0018  0.9916  0.8789
 9177TIP3   OH249021   0.736   5.846  14.943 -0.4082  0.2482 -0.1023
 9177TIP3    H149022   0.773   5.894  15.017  0.3223  0.1692 -0.4134
 9177TIP3    H249023   0.677   5.782  14.984  1.4118 -1.0608  0.5485
 9178TIP3   OH249024   0.812   4.961  15.668  0.1933 -0.3814  0.1559
 9178TIP3    H149025   0.864   4.907  15.609 -0.6250 -0.6321 -0.3458
 9178TIP3    H249026   0.819   5.050  15.634  0.0481 -0.4640 -0.0886
 9179TIP3   OH249027   5.870   2.214  12.564  0.1735  0.1191  0.5068
 9179TIP3    H149028   5.951   2.175  12.531 -0.2513  0.4957 -0.9769
 9179TIP3    H249029   5.823   2.141  12.604 -0.3642 -0.8210 -1.7657
 9180TIP3   OH249030   2.909   5.950  12.793  0.1138 -0.7445  0.3999
 9180TIP3    H149031   2.968   5.961  12.867 -1.5387 -0.3344  1.6864
 9180TIP3    H249032   2.822   5.942  12.833 -0.4622 -3.8184 -1.2744
 9181TIP3   OH249033   6.625   6.747   2.546  0.0512  0.1868  0.3826
 9181TIP3    H149034   6.674   6.762   2.466 -1.4736  3.2052 -0.0384
 9181TIP3    H249035   6.654   6.661   2.577  2.5028  0.1225 -2.0271
 9182TIP3   OH249036   1.996   4.181   6.561 -0.3180 -0.4960 -0.1704
 9182TIP3    H149037   1.925   4.187   6.625 -0.9753 -1.6676 -0.7683
 9182TIP3    H249038   2.037   4.097   6.579  1.2935  0.4017  0.5166
 9183TIP3   OH249039   2.653   0.362   0.058 -0.3944 -0.7253 -0.0445
 9183TIP3    H149040   2.741   0.323   0.057  0.7150  1.6578  0.2934
 9183TIP3    H249041   2.612   0.326   0.136  1.3216  0.2285  1.3419
 9184TIP3   OH249042   3.980   6.819   3.745  0.3197 -0.3782 -0.2229
 9184TIP3    H149043   3.951   6.762   3.816  0.5096 -1.7914 -1.2520
 9184TIP3    H249044   4.043   6.766   3.696 -1.0301 -0.0605 -2.4049
 9185TIP3   OH249045   4.735   1.541  13.075  0.3507 -0.6931 -0.5499
 9185TIP3    H149046   4.680   1.558  13.152 -2.0081  0.0542 -2.3563
 9185TIP3    H249047   4.806   1.605  13.082  0.9166 -1.5099  1.6800
 9186TIP3   OH249048   4.564   0.413   3.572 -0.4252 -0.1115  0.2430
 9186TIP3    H149049   4.586   0.483   3.510 -0.1051 -0.0769  0.3914
 9186TIP3    H249050   4.648   0.390   3.612 -1.0613  2.0917  3.0104
 9187TIP3   OH249051   3.142   6.165  13.929  0.0820 -0.4059 -0.0414
 9187TIP3    H149052   3.216   6.192  13.984 -0.5617  1.0388  0.1177
 9187TIP3    H249053   3.174   6.173  13.839  0.3560 -0.5296  0.0426
 9188TIP3   OH249054   3.082   5.810   1.647 -0.0843  0.1267 -0.0502
 9188TIP3    H149055   3.084   5.898   1.608  0.1191 -0.1098 -0.5691
 9188TIP3    H249056   3.055   5.826   1.738 -0.4592  0.6904 -0.2496
 9189TIP3   OH249057   3.250   6.467   0.624 -0.1298  0.8302 -0.3802
 9189TIP3    H149058   3.306   6.403   0.667  0.5282  1.0784 -0.8553
 9189TIP3    H249059   3.180   6.416   0.584  0.9140  0.3004 -1.5789
 9190TIP3   OH249060   3.945   1.278  12.883 -0.2556 -0.2614 -0.0231
 9190TIP3    H149061   3.970   1.242  12.798  0.1051  1.6299 -0.7475
 9190TIP3    H249062   4.022   1.328  12.912 -0.5580 -0.4698  1.1675
 9191TIP3   OH249063   5.251   6.236  10.876  0.1596  0.0384  0.3111
 9191TIP3    H149064   5.242   6.144  10.899  1.5831 -0.0112  0.7233
 9191TIP3    H249065   5.166   6.261  10.840 -0.4784 -1.2197  0.9412
 9192TIP3   OH249066   6.116   0.937  12.576 -0.3013  0.2305  0.3066
 9192TIP3    H149067   6.063   0.934  12.655 -1.1254 -3.3031 -0.2925
 9192TIP3    H249068   6.059   0.978  12.511 -0.9481 -0.1490  0.6269
 9193TIP3   OH249069   0.358   6.288   1.688  0.1247 -0.1117 -0.1860
 9193TIP3    H149070   0.316   6.359   1.736  1.7602  2.0618 -1.8577
 9193TIP3    H249071   0.444   6.278   1.730 -0.2972 -1.4909  0.3857
 9194TIP3   OH249072   3.940   0.012  14.657 -0.2979 -0.2180  0.1962
 9194TIP3    H149073   4.003   0.076  14.623 -0.6246 -0.1336 -0.2489
 9194TIP3    H249074   3.857   0.060  14.660 -0.8360 -1.0283 -1.4307
 9195TIP3   OH249075   2.844   5.441   1.239 -0.5675 -0.5520 -0.0020
 9195TIP3    H149076   2.751   5.448   1.261 -0.8252 -3.3320 -0.0227
 9195TIP3    H249077   2.864   5.348   1.249  1.5149 -0.4682 -2.7912
 9196TIP3   OH249078   1.268   6.621   2.831 -0.6119  0.1805 -0.2191
 9196TIP3    H149079   1.207   6.549   2.812 -1.2483 -0.4226  3.5884
 9196TIP3    H249080   1.212   6.695   2.851  0.0155  1.0341 -1.5678
 9197TIP3   OH249081   6.787   5.751   0.397  0.2692  0.3938  0.1174
 9197TIP3    H149082   6.854   5.818   0.392 -1.9965  2.6686 -1.0112
 9197TIP3    H249083   6.763   5.747   0.490  2.2539 -0.8224  0.6203
 9198TIP3   OH249084   0.733   5.185   4.192 -0.4982  0.1289  0.3025
 9198TIP3    H149085   0.825   5.168   4.171 -0.7402 -1.2155  0.2826
 9198TIP3    H249086   0.729   5.279   4.211  1.0275  0.0454  1.0696
 9199TIP3   OH249087   5.924   6.400   2.759 -0.4093 -0.3688 -0.4452
 9199TIP3    H149088   5.928   6.450   2.840 -0.4039  0.4646 -0.9564
 9199TIP3    H249089   6.010   6.413   2.719 -0.5957 -0.3517 -0.8391
 9200TIP3   OH249090   3.795   4.299  15.139  0.5668  0.6438 -0.0194
 9200TIP3    H149091   3.722   4.356  15.162  0.6521  0.4264  0.8084
 9200TIP3    H249092   3.773   4.214  15.177  1.4696  0.7025  0.6635
 9201TIP3   OH249093   5.204   5.238  13.646  0.1105  0.3012  0.0032
 9201TIP3    H149094   5.114   5.219  13.619 -0.4323 -0.6921  2.4101
 9201TIP3    H249095   5.247   5.152  13.646  0.6101  0.5547  0.4862
 9202TIP3   OH249096   0.205   0.233  10.984 -0.1369 -0.3219 -0.1962
 9202TIP3    H149097   0.162   0.230  10.899  1.2082  0.4366 -0.9098
 9202TIP3    H249098   0.270   0.302  10.976 -0.1116 -0.1239  1.5091
 9203TIP3   OH249099   1.147   1.645  14.720 -0.1893  0.3522  0.0223
 9203TIP3    H149100   1.166   1.644  14.627  2.9520  1.1180  0.5899
 9203TIP3    H249101   1.212   1.587  14.759 -0.3467  1.3905  1.9187
 9204TIP3   OH249102   4.636   5.709  12.576  0.4357 -0.1741 -0.1883
 9204TIP3    H149103   4.629   5.691  12.482  0.2651  0.0022 -0.2099
 9204TIP3    H249104   4.717   5.759  12.585 -0.9687  2.2640 -0.6087
 9205TIP3   OH249105   1.020   6.336   6.598  0.3131 -0.2622  0.6872
 9205TIP3    H149106   0.947   6.303   6.650 -0.1829 -2.5064 -1.3446
 9205TIP3    H249107   0.983   6.407   6.547 -0.0413 -0.3075  0.8815
 9206TIP3   OH249108   5.669   1.339  14.084 -0.1455  0.4376 -0.3401
 9206TIP3    H149109   5.610   1.335  14.159  0.0177  0.9134 -0.1869
 9206TIP3    H249110   5.637   1.413  14.032  0.4592  0.8448 -0.1377
 9207TIP3   OH249111   1.967   6.044   4.639 -0.2812 -0.0936  0.0818
 9207TIP3    H149112   1.890   5.987   4.636 -0.1966 -0.3219  1.5023
 9207TIP3    H249113   1.968   6.090   4.555 -2.5413  0.6480  0.4352
 9208TIP3   OH249114   5.278   6.471   5.106  0.5005  0.1615  0.4246
 9208TIP3    H149115   5.261   6.530   5.180 -0.8167  0.4777 -0.1235
 9208TIP3    H249116   5.374   6.463   5.104  0.5377 -0.1072  2.3562
 9209TIP3   OH249117   4.544   2.588   5.551  0.4083  0.4759  0.1747
 9209TIP3    H149118   4.540   2.616   5.460  0.0671  1.9994  0.6421
 9209TIP3    H249119   4.631   2.613   5.581  1.0730 -1.3664 -0.1308
 9210TIP3   OH249120   6.213   5.968  15.891 -0.3530  0.1474  0.1011
 9210TIP3    H149121   6.217   5.978  15.796  1.6380 -2.8079 -0.2205
 9210TIP3    H249122   6.256   6.046  15.925 -0.0217  0.6752 -1.4816
 9211TIP3   OH249123   0.005   4.206  16.353 -0.1650  0.1717 -0.3025
 9211TIP3    H149124   0.025   4.244  16.267  0.5181 -1.3449 -0.8329
 9211TIP3    H249125   0.078   4.147  16.371 -0.9532 -0.5008  0.7348
 9212TIP3   OH249126   4.065   5.902  14.449  0.0916 -0.8055 -0.0462
 9212TIP3    H149127   3.993   5.882  14.510 -0.3494 -0.5333 -0.4697
 9212TIP3    H249128   4.134   5.939  14.504 -0.8863  0.8811  0.0862
 9213TIP3   OH249129   0.078   0.881   3.163  0.4856  0.0239  0.1627
 9213TIP3    H149130   0.142   0.904   3.096  1.3263  1.0972  1.3108
 9213TIP3    H249131  -0.006   0.881   3.117  1.1969 -0.6112 -1.1779
 9214TIP3   OH249132   1.112   2.873   2.986 -0.1737 -0.4994 -0.2900
 9214TIP3    H149133   1.181   2.924   3.028 -0.7771  0.0545  0.0464
 9214TIP3    H249134   1.064   2.834   3.059  0.0333 -1.2117 -0.5345
 9215TIP3   OH249135   6.095   6.026   3.971 -0.5903 -0.1911 -0.6107
 9215TIP3    H149136   6.117   6.118   3.956 -3.0778  0.2926 -1.6298
 9215TIP3    H249137   6.151   5.978   3.910 -0.6344  0.8031 -1.4573
 9216TIP3   OH249138   2.389   2.282  14.885 -0.4062 -0.6960  0.4166
 9216TIP3    H149139   2.317   2.248  14.832  0.7391  1.2534 -2.4678
 9216TIP3    H249140   2.454   2.212  14.885  0.2612 -0.1208 -2.1422
 9217TIP3   OH249141   1.431   0.854   6.763 -0.3897 -0.4256  0.1732
 9217TIP3    H149142   1.487   0.804   6.703  0.4986  1.3631 -0.5357
 9217TIP3    H249143   1.342   0.823   6.744  0.0711 -1.2534 -0.7204
 9218TIP3   OH249144   5.808   1.955   3.823 -0.1227 -0.0885 -0.1668
 9218TIP3    H149145   5.871   1.953   3.751  0.6215  1.0093  0.4306
 9218TIP3    H249146   5.791   2.048   3.837 -2.1952 -0.3905 -0.5798
 9219TIP3   OH249147   5.667   3.400   3.504 -0.5953 -0.3673 -0.5827
 9219TIP3    H149148   5.619   3.338   3.559 -0.7017 -1.1037 -1.4789
 9219TIP3    H249149   5.677   3.354   3.421  1.7262 -0.2382 -0.3915
 9220TIP3   OH249150   1.130   1.701   3.841  0.1737  0.3657 -0.4966
 9220TIP3    H149151   1.128   1.784   3.887 -0.3814 -1.0323  2.1277
 9220TIP3    H249152   1.223   1.683   3.828  0.2747  1.8640 -2.0574
 9221TIP3   OH249153   2.077   6.027   2.315 -0.0188 -0.1945 -0.3048
 9221TIP3    H149154   2.060   6.004   2.224  2.1366  1.3097 -1.1386
 9221TIP3    H249155   2.160   6.075   2.313  0.0732 -0.1237  2.4533
 9222TIP3   OH249156   6.109   4.659  16.612  0.2089 -0.5062  0.4253
 9222TIP3    H149157   6.023   4.634  16.648  0.6362 -0.3876  1.5551
 9222TIP3    H249158   6.097   4.656  16.517 -1.2788  0.2935  0.5749
 9223TIP3   OH249159   2.936   1.166   5.925  0.2291 -0.1158  0.1674
 9223TIP3    H149160   2.872   1.234   5.942  2.5075  1.6037  2.2421
 9223TIP3    H249161   2.983   1.155   6.008  1.4107 -2.5957 -0.7720
 9224TIP3   OH249162   5.815   1.033   4.179  0.2300  0.0040  0.0172
 9224TIP3    H149163   5.897   1.043   4.130  1.2668 -0.8701  1.5316
 9224TIP3    H249164   5.785   0.944   4.158  0.5327 -0.2714  0.7296
 9225TIP3   OH249165   1.744   3.294   3.950 -0.4075 -0.2242  0.3614
 9225TIP3    H149166   1.726   3.243   3.871  1.7071 -0.7923  0.2109
 9225TIP3    H249167   1.661   3.335   3.972 -1.5562 -1.8444 -0.8861
 9226TIP3   OH249168   3.565   1.493   0.598  0.6256 -0.3194  0.1512
 9226TIP3    H149169   3.566   1.499   0.693 -0.2454  0.4472  0.1264
 9226TIP3    H249170   3.511   1.568   0.570  1.0371 -0.4219 -0.9461
 9227TIP3   OH249171   2.652   2.614  12.491  0.5139 -0.0488  0.1761
 9227TIP3    H149172   2.653   2.644  12.582  0.4964 -0.7140  0.3986
 9227TIP3    H249173   2.594   2.675  12.446  0.1783  0.0212  0.7009
 9228TIP3   OH249174   5.422   3.098  16.272 -0.3220 -0.0618  0.0623
 9228TIP3    H149175   5.479   3.156  16.323  0.9736 -0.2842 -1.0959
 9228TIP3    H249176   5.334   3.124  16.296  0.2296  2.2092 -0.1871
 9229TIP3   OH249177   1.351   0.839   1.339  0.0537 -0.5040 -0.4547
 9229TIP3    H149178   1.258   0.828   1.359 -0.2616  2.6297  0.2132
 9229TIP3    H249179   1.381   0.752   1.313 -2.6976 -1.9033  0.8005
 9230TIP3   OH249180   3.778   0.518   2.503 -0.0559  0.2889 -0.3144
 9230TIP3    H149181   3.706   0.547   2.560  1.1794  1.5640  0.6405
 9230TIP3    H249182   3.819   0.600   2.473  0.7113 -0.4179 -1.2170
 9231TIP3   OH249183   6.338   4.806   5.498 -0.5497 -0.0330  0.0702
 9231TIP3    H149184   6.325   4.721   5.540 -0.7322 -0.1421 -0.2052
 9231TIP3    H249185   6.397   4.787   5.424  0.4432  0.2990  0.7669
 9232TIP3   OH249186   0.406   3.399   2.447 -0.5428 -0.3792 -0.4681
 9232TIP3    H149187   0.341   3.407   2.378 -0.4537 -0.0710 -0.5160
 9232TIP3    H249188   0.389   3.472   2.505 -0.2421 -0.2998 -0.4793
 9233TIP3   OH249189   4.085   2.135  10.899 -0.1208  0.0171  0.4049
 9233TIP3    H149190   4.175   2.104  10.902 -0.0708 -0.1098 -1.5638
 9233TIP3    H249191   4.033   2.063  10.934  0.3779 -0.6466 -0.2172
 9234TIP3   OH249192   0.220   6.360  16.321  0.3512 -0.0993  0.2699
 9234TIP3    H149193   0.188   6.342  16.410  1.1803  0.0997  0.6083
 9234TIP3    H249194   0.258   6.448  16.326  1.0698 -0.3834 -0.1025
 9235TIP3   OH249195   6.017   6.744  14.594  0.6126 -0.6376 -0.1677
 9235TIP3    H149196   5.941   6.752  14.538  1.0569 -0.0576 -0.6862
 9235TIP3    H249197   6.040   6.834  14.618  1.7159 -0.7329 -0.8082
 9236TIP3   OH249198   4.557   3.255  11.231 -0.7472  0.0326  0.0901
 9236TIP3    H149199   4.559   3.214  11.317  0.9707  1.1836  0.6422
 9236TIP3    H249200   4.484   3.214  11.185 -2.1833 -0.0129  2.3777
 9237TIP3   OH249201   5.645   3.225  15.774 -0.1203  0.1697 -0.1022
 9237TIP3    H149202   5.628   3.143  15.727  0.8066  0.6104 -1.2170
 9237TIP3    H249203   5.596   3.215  15.856 -0.6707 -1.1636 -0.5646
 9238TIP3   OH249204   0.456   4.408   5.925 -0.2393 -0.2515 -0.4508
 9238TIP3    H149205   0.505   4.488   5.943  0.0144 -0.1476 -1.5508
 9238TIP3    H249206   0.481   4.348   5.995 -0.2198  0.5331  0.2248
 9239TIP3   OH249207   2.770   4.730   1.354  0.4773  0.2307 -0.3389
 9239TIP3    H149208   2.756   4.736   1.259  0.2297  1.4242 -0.2314
 9239TIP3    H249209   2.865   4.741   1.364  0.5992 -0.6579 -0.5066
 9240TIP3   OH249210   1.245   4.220  14.465  0.4202  0.5050  0.4668
 9240TIP3    H149211   1.182   4.267  14.521 -0.6442 -0.7637  0.3661
 9240TIP3    H249212   1.218   4.128  14.471  2.0136  0.0001  0.0687
 9241TIP3   OH249213   2.176   6.260   6.671  0.2350 -0.0020  0.0613
 9241TIP3    H149214   2.242   6.296   6.731 -0.0122  0.4970  0.0325
 9241TIP3    H249215   2.092   6.282   6.712  0.0690  0.1389 -0.3584
 9242TIP3   OH249216   4.458   6.695  14.479  0.1691 -0.1830  0.4883
 9242TIP3    H149217   4.369   6.728  14.491  1.2593  3.9520 -1.8328
 9242TIP3    H249218   4.496   6.694  14.567 -0.8405  2.1019  0.9673
 9243TIP3   OH249219   3.188   0.051   4.964  0.5789 -0.4444  0.4763
 9243TIP3    H149220   3.182  -0.005   5.041  0.3011  0.3507  1.0299
 9243TIP3    H249221   3.193  -0.011   4.891 -1.9609 -1.2008  0.9021
 9244TIP3   OH249222   0.707   4.892  13.924  0.8179 -0.1311 -0.6903
 9244TIP3    H149223   0.771   4.955  13.957  0.2107 -0.5066  1.3218
 9244TIP3    H249224   0.753   4.844  13.856  2.6635 -0.3158  0.6414
 9245TIP3   OH249225   6.582   5.679   3.991  0.5826 -0.1807  0.0512
 9245TIP3    H149226   6.569   5.769   3.962  0.2329 -0.3130 -0.2044
 9245TIP3    H249227   6.496   5.651   4.022  0.2782 -0.9890 -1.4603
 9246TIP3   OH249228   5.692   0.535  15.639  0.1151  0.0843 -0.4216
 9246TIP3    H149229   5.667   0.614  15.688  0.3563 -1.0691  1.6281
 9246TIP3    H249230   5.749   0.487  15.699  4.6862  1.0759 -3.7778
 9247TIP3   OH249231   0.190   4.989  11.577 -0.4401  0.8298 -0.2549
 9247TIP3    H149232   0.177   5.044  11.654 -1.9237  1.3429 -0.8377
 9247TIP3    H249233   0.237   5.045  11.515  0.7728  0.4092  0.2815
 9248TIP3   OH249234   4.884   6.264   5.894  0.0342 -0.2580  0.5417
 9248TIP3    H149235   4.844   6.305   5.971 -0.6580 -1.6120  0.9211
 9248TIP3    H249236   4.901   6.174   5.922  0.2419 -0.6151 -0.7290
 9249TIP3   OH249237   0.296   3.897   4.477 -0.3652 -0.0150  0.4154
 9249TIP3    H149238   0.371   3.957   4.479 -1.6642  1.6341  0.6801
 9249TIP3    H249239   0.222   3.953   4.454 -0.9539 -2.2431 -3.5751
 9250TIP3   OH249240   2.160   5.840   2.034 -0.2840  0.0089 -0.0768
 9250TIP3    H149241   2.254   5.855   2.024 -0.3414 -0.7299 -1.9941
 9250TIP3    H249242   2.154   5.761   2.088  0.2973 -1.8424 -2.6079
 9251TIP3   OH249243   0.403   5.628   1.207 -0.5883 -0.5407  0.1103
 9251TIP3    H149244   0.353   5.577   1.271  0.7064  0.3486  1.8709
 9251TIP3    H249245   0.368   5.717   1.214 -1.0736 -0.6134 -1.1163
 9252TIP3   OH249246   5.465   0.465  11.920  0.4305 -0.2895 -0.3958
 9252TIP3    H149247   5.490   0.466  11.827  1.1293  1.6676 -0.2209
 9252TIP3    H249248   5.546   0.481  11.967 -0.1557  0.1406  0.4791
 9253TIP3   OH249249   0.682   4.422   3.385  0.2105  0.7105  0.2862
 9253TIP3    H149250   0.662   4.449   3.295 -1.5777  1.8526  0.9922
 9253TIP3    H249251   0.734   4.495   3.421  1.8666 -0.2351 -0.1409
 9254TIP3   OH249252   2.283   2.849  14.932  0.6868  0.2142 -0.1292
 9254TIP3    H149253   2.306   2.906  15.005  1.1793 -1.5580  1.1193
 9254TIP3    H249254   2.360   2.793  14.920 -0.3175 -1.1404 -0.4070
 9255TIP3   OH249255   5.083   4.716  16.203  0.2243  0.7813 -0.0452
 9255TIP3    H149256   5.165   4.667  16.196 -0.5700 -0.2616 -2.4904
 9255TIP3    H249257   5.037   4.677  16.277  0.8790 -0.2426 -0.1739
 9256TIP3   OH249258   5.925   0.181  14.017 -0.3183  0.1718 -0.5458
 9256TIP3    H149259   5.921   0.102  14.071  0.5684  1.0532  0.8565
 9256TIP3    H249260   5.871   0.245  14.064  3.5928  2.1963  1.5308
 9257TIP3   OH249261   5.170   1.652  10.400  0.0738  0.2022  0.1454
 9257TIP3    H149262   5.234   1.609  10.344 -0.5206  0.5991 -0.8480
 9257TIP3    H249263   5.097   1.591  10.406  0.4589 -0.1790  1.1424
 9258TIP3   OH249264   3.709   5.255  14.868 -0.2935 -0.1388  0.3120
 9258TIP3    H149265   3.790   5.233  14.915  0.6623  1.2405 -0.6770
 9258TIP3    H249266   3.666   5.321  14.923  0.1665  0.4931 -0.0901
 9259TIP3   OH249267   0.912   3.314   4.690 -0.2270 -0.4264 -0.5433
 9259TIP3    H149268   0.968   3.387   4.718 -0.2430 -1.8521  3.5453
 9259TIP3    H249269   0.832   3.356   4.660  0.4487  1.3451  0.0312
 9260TIP3   OH249270   5.513   1.556  12.445  0.2918  0.4207  0.0092
 9260TIP3    H149271   5.542   1.637  12.486  1.0221 -0.1771  0.7002
 9260TIP3    H249272   5.418   1.554  12.460  0.2905  1.0915  0.0883
 9261TIP3   OH249273   0.888   1.195  14.169 -0.0750 -0.1622  0.0206
 9261TIP3    H149274   0.875   1.126  14.234  0.8038  0.2246  0.6226
 9261TIP3    H249275   0.824   1.176  14.100  1.0374 -2.3205 -0.4568
 9262TIP3   OH249276   6.092   5.502   2.899 -0.3416  0.3205  0.9966
 9262TIP3    H149277   6.010   5.476   2.857 -0.9852  1.4076  1.5655
 9262TIP3    H249278   6.117   5.427   2.953 -0.9739  0.0006  0.8381
 9263TIP3   OH249279   1.698   3.483   2.490 -0.2964 -0.3444 -0.1828
 9263TIP3    H149280   1.700   3.481   2.586 -0.3278 -1.1967 -0.1975
 9263TIP3    H249281   1.786   3.456   2.464  0.2296  1.4901 -0.3837
 9264TIP3   OH249282   4.978   0.724   2.275  0.1663 -0.0225 -0.2016
 9264TIP3    H149283   5.074   0.716   2.280  0.0490 -1.3675 -0.1183
 9264TIP3    H249284   4.958   0.798   2.332  1.0395 -0.5073  0.7518
 9265TIP3   OH249285   6.511   6.319   5.853  0.1169  0.3261  0.2443
 9265TIP3    H149286   6.464   6.328   5.935  1.5186 -0.6330  1.1748
 9265TIP3    H249287   6.509   6.226   5.833  2.7888  0.0574  1.0386
 9266TIP3   OH249288   1.147   6.744  11.551  0.4946 -0.7532 -0.0723
 9266TIP3    H149289   1.070   6.785  11.591  0.7049 -0.1489 -0.2766
 9266TIP3    H249290   1.213   6.746  11.621  0.6216 -0.3972 -0.1996
 9267TIP3   OH249291   1.029   2.974   3.921 -0.0200 -0.0675  0.2338
 9267TIP3    H149292   1.073   2.889   3.918  0.7614  0.3303  0.1646
 9267TIP3    H249293   1.068   3.023   3.848  0.1661  0.6526  0.8149
 9268TIP3   OH249294   5.929   3.175  15.046 -0.2024  0.0081 -0.4221
 9268TIP3    H149295   5.972   3.225  15.115 -2.5971  0.9476  0.4438
 9268TIP3    H249296   5.845   3.220  15.032  0.1692 -0.2400 -3.8622
 9269TIP3   OH249297   3.563   0.659  15.022  1.0591 -0.3203  0.2486
 9269TIP3    H149298   3.613   0.653  14.941  2.1988 -2.1294  1.0527
 9269TIP3    H249299   3.555   0.568  15.053 -0.7640  0.1768  1.3103
 9270TIP3   OH249300   3.606   5.624  16.323 -0.2995  0.0546  0.4880
 9270TIP3    H149301   3.629   5.681  16.396 -1.6243  1.2559 -0.0070
 9270TIP3    H249302   3.626   5.536  16.353 -0.2334  0.5983  2.0561
 9271TIP3   OH249303   0.715   6.012   3.721  0.3937  0.4762  0.1295
 9271TIP3    H149304   0.742   5.931   3.679  0.8968  1.5210 -1.6086
 9271TIP3    H249305   0.783   6.030   3.786  1.0107  0.2289 -0.4452
 9272TIP3   OH249306   2.548   3.904  16.435 -0.7384 -0.0927  0.1271
 9272TIP3    H149307   2.502   3.968  16.381 -1.1288 -0.4675  0.0109
 9272TIP3    H249308   2.496   3.824  16.426 -0.7724 -0.1735  1.0040
 9273TIP3   OH249309   2.885   4.880  11.310 -0.3072 -0.4754 -0.2595
 9273TIP3    H149310   2.805   4.877  11.257  1.3887 -0.0463 -2.9819
 9273TIP3    H249311   2.920   4.968  11.294  1.4057 -1.1325 -0.1974
 9274TIP3   OH249312   5.287   4.718   0.007 -0.1460  0.3552 -0.6550
 9274TIP3    H149313   5.261   4.665  -0.069  0.3027  1.4939 -1.6181
 9274TIP3    H249314   5.220   4.787   0.011 -0.0430  0.4221 -0.1528
 9275TIP3   OH249315   2.049   0.912   1.957 -0.2527 -0.0389  0.2240
 9275TIP3    H149316   2.041   0.981   1.891  0.3329 -1.0564 -0.9292
 9275TIP3    H249317   2.143   0.893   1.960 -0.0249  1.1970  2.6264
 9276TIP3   OH249318   2.805   0.616  12.031  0.0395  0.5655  0.1870
 9276TIP3    H149319   2.830   0.637  12.121 -0.3389 -0.9304  0.6478
 9276TIP3    H249320   2.873   0.557  12.000 -1.0320 -0.7365  0.2698
 9277TIP3   OH249321   5.641   5.534  12.536 -0.6493  0.5765 -0.0139
 9277TIP3    H149322   5.711   5.586  12.496 -1.5867  1.3240 -0.7094
 9277TIP3    H249323   5.620   5.468  12.471 -0.6228  0.3819  0.1750
 9278TIP3   OH249324   6.818   3.462   3.147 -0.6744 -0.4893  0.1377
 9278TIP3    H149325   6.759   3.410   3.201 -0.5051 -0.0142  0.7801
 9278TIP3    H249326   6.819   3.548   3.189 -0.3847 -0.1805 -0.5027
 9279TIP3   OH249327   0.308   0.317  16.217  0.0037  0.1163  0.0138
 9279TIP3    H149328   0.384   0.267  16.185  0.1821  0.4661 -0.1117
 9279TIP3    H249329   0.340   0.408  16.222  0.4410 -0.1317  2.5772
 9280TIP3   OH249330   3.560   6.243   1.551 -0.1479 -0.2125  0.6198
 9280TIP3    H149331   3.471   6.218   1.572 -0.2136  1.6299  2.6507
 9280TIP3    H249332   3.565   6.337   1.570  2.3267 -0.3543  0.9448
 9281TIP3   OH249333   3.077   5.170  13.230  0.2871 -0.3087 -0.9791
 9281TIP3    H149334   3.011   5.226  13.270  0.9580  0.2231 -0.6031
 9281TIP3    H249335   3.042   5.150  13.143  0.2190  1.0064 -1.2639
 9282TIP3   OH249336   0.599   3.278   4.702 -0.0124 -0.2150  0.9699
 9282TIP3    H149337   0.590   3.309   4.792 -0.3204 -1.0126  1.2167
 9282TIP3    H249338   0.633   3.353   4.654 -1.3221  0.7051  1.4397
 9283TIP3   OH249339   1.168   2.209  14.856 -0.5234 -0.1452 -0.3506
 9283TIP3    H149340   1.146   2.171  14.770  0.1783  1.1263 -1.1067
 9283TIP3    H249341   1.248   2.258  14.840  1.1489 -2.1343  1.6700
 9284TIP3   OH249342   2.130   0.381   3.481  0.4324  0.1921  0.1336
 9284TIP3    H149343   2.141   0.352   3.572  0.4106  1.5130  0.5582
 9284TIP3    H249344   2.170   0.468   3.478  0.8171 -0.0219 -1.2288
 9285TIP3   OH249345   0.917   3.651  11.649 -0.1976 -0.2304  0.9000
 9285TIP3    H149346   0.899   3.702  11.728  1.0499 -0.9014  1.6289
 9285TIP3    H249347   0.832   3.644  11.606 -0.4854  2.0538  1.0293
 9286TIP3   OH249348   3.267   1.482   5.476  0.1759 -0.5251 -0.0836
 9286TIP3    H149349   3.184   1.506   5.516  1.0086 -2.0444  2.7251
 9286TIP3    H249350   3.332   1.534   5.524  1.2852 -3.0344  1.2761
 9287TIP3   OH249351   0.735   1.841   1.359  0.8035 -0.5126 -0.5535
 9287TIP3    H149352   0.721   1.841   1.454  1.6470 -0.2142 -0.4195
 9287TIP3    H249353   0.648   1.837   1.322  0.4484 -0.3355  0.2408
 9288TIP3   OH249354   4.366   1.922   2.042 -0.3319  0.1096 -0.3731
 9288TIP3    H149355   4.357   1.884   2.130 -0.5630  0.5786 -0.1942
 9288TIP3    H249356   4.304   1.995   2.041  0.8221  1.1046 -0.3793
 9289TIP3   OH249357   4.386   3.748   1.925  0.2571 -0.2529 -0.0811
 9289TIP3    H149358   4.467   3.705   1.899  0.6551  0.3735  0.1170
 9289TIP3    H249359   4.395   3.838   1.893  1.0134  0.7020  2.7022
 9290TIP3   OH249360   4.386   2.052   0.631 -0.7281  1.0684 -0.0239
 9290TIP3    H149361   4.299   2.082   0.603 -0.4752  2.7720  0.9283
 9290TIP3    H249362   4.413   1.990   0.563 -2.2156  1.3666 -0.9155
 9291TIP3   OH249363   0.379   1.665   2.968  0.1146 -0.1158 -0.1742
 9291TIP3    H149364   0.335   1.651   2.885  0.4120 -0.9541 -0.1948
 9291TIP3    H249365   0.446   1.731   2.949  0.5388 -0.6937 -0.7336
 9292TIP3   OH249366   1.297   5.742  15.303 -0.7606 -0.0623  0.4128
 9292TIP3    H149367   1.347   5.726  15.223 -0.2191 -3.7243  1.4133
 9292TIP3    H249368   1.215   5.694  15.290 -1.7809  1.4735  1.0205
 9293TIP3   OH249369   5.417   4.767  15.403 -0.2200 -0.1116  0.5213
 9293TIP3    H149370   5.500   4.785  15.359 -0.2534 -0.6835  0.2286
 9293TIP3    H249371   5.443   4.740  15.492  0.0673 -3.2630 -0.4834
 9294TIP3   OH249372   1.054   6.491  15.199 -0.2653  0.0421 -0.2204
 9294TIP3    H149373   0.984   6.431  15.171 -1.4185  0.4369  1.6816
 9294TIP3    H249374   1.093   6.449  15.275  0.6088  0.5072 -0.4081
 9295TIP3   OH249375   5.798   0.787   0.082  0.1783  0.1619  0.1254
 9295TIP3    H149376   5.841   0.715   0.128  0.2724 -0.0499 -0.2970
 9295TIP3    H249377   5.871   0.841   0.050  0.0991  0.8766  1.1329
 9296TIP3   OH249378   1.716   1.162  12.092 -0.3688 -0.5342 -0.1671
 9296TIP3    H149379   1.769   1.238  12.065 -0.8517 -0.4076 -0.7759
 9296TIP3    H249380   1.752   1.089  12.042 -0.8571 -0.4227 -0.6785
 9297TIP3   OH249381   0.225   2.223   2.339 -0.3665 -0.3330  0.1417
 9297TIP3    H149382   0.140   2.247   2.374  0.5368  0.6509  1.7164
 9297TIP3    H249383   0.238   2.283   2.265 -0.2606  0.7662  1.0298
 9298TIP3   OH249384   6.522   6.262  15.450 -0.1592  0.1451 -0.2962
 9298TIP3    H149385   6.606   6.231  15.484 -0.5510  0.4302  0.9591
 9298TIP3    H249386   6.515   6.222  15.364  0.4489 -1.3410  0.3256
 9299TIP3   OH249387   5.335   1.168  15.051  0.4653 -0.6078  0.6386
 9299TIP3    H149388   5.283   1.123  15.118  0.7249 -1.6392  0.1515
 9299TIP3    H249389   5.387   1.099  15.010 -1.7440 -0.5101 -2.5351
 9300TIP3   OH249390   3.500   0.564   1.858 -0.1457  0.4228 -0.2113
 9300TIP3    H149391   3.500   0.656   1.830 -3.0583 -0.1171 -2.2231
 9300TIP3    H249392   3.591   0.538   1.855  0.4178  2.4961 -2.2365
 9301TIP3   OH249393   3.099   1.702   2.049 -0.1368  0.4448 -0.1219
 9301TIP3    H149394   3.101   1.710   1.953  1.7147 -1.2490 -0.2584
 9301TIP3    H249395   3.006   1.700   2.071 -0.6200 -1.7352 -2.1508
 9302TIP3   OH249396   6.194   5.776   4.784 -0.0854  0.2615 -0.2452
 9302TIP3    H149397   6.240   5.723   4.849  0.9250 -0.4668 -1.5423
 9302TIP3    H249398   6.243   5.858   4.782 -1.3603  1.1072  1.4045
 9303TIP3   OH249399   4.271   3.539   5.686  0.3128  0.6324 -0.2789
 9303TIP3    H149400   4.220   3.603   5.735 -0.5641  0.8298 -1.4343
 9303TIP3    H249401   4.321   3.591   5.624 -1.0971  0.1401 -1.8471
 9304TIP3   OH249402   3.582   1.575   5.346  0.0025 -0.1268 -0.2123
 9304TIP3    H149403   3.560   1.606   5.434 -0.9678 -1.8272  0.1584
 9304TIP3    H249404   3.677   1.564   5.348  0.1314  1.0107  0.2324
 9305TIP3   OH249405   2.668   0.109  13.397 -0.2706  0.0027 -0.0057
 9305TIP3    H149406   2.589   0.123  13.450  0.1883  0.3180  0.6032
 9305TIP3    H249407   2.635   0.098  13.308 -1.0596 -0.6250  0.3532
 9306TIP3   OH249408   4.868   2.320   2.693 -0.4036  0.5550 -0.3344
 9306TIP3    H149409   4.960   2.319   2.666  0.3220  1.8941  1.9482
 9306TIP3    H249410   4.848   2.229   2.714  1.0241  0.5380  1.0765
 9307TIP3   OH249411   5.997   0.399  17.286  0.4729  0.2135  0.1998
 9307TIP3    H149412   5.947   0.459  17.342 -0.8089 -2.1249  1.6870
 9307TIP3    H249413   6.066   0.452  17.248 -2.0384  3.1682 -0.4291
 9308TIP3   OH249414   4.003   5.084   5.863 -0.3915  0.5646 -0.3355
 9308TIP3    H149415   3.985   5.127   5.946 -1.7153  0.4629 -0.5577
 9308TIP3    H249416   4.098   5.093   5.851 -0.2737  1.0480  0.9135
 9309TIP3   OH249417   4.195   0.992  12.508 -0.3227 -0.0582  0.2366
 9309TIP3    H149418   4.248   1.056  12.461 -1.0229  0.7847  0.5800
 9309TIP3    H249419   4.255   0.921  12.529 -0.2118 -0.9253 -2.8152
 9310TIP3   OH249420   6.197   6.217   1.156  0.1232  0.2284 -0.2351
 9310TIP3    H149421   6.242   6.188   1.236 -1.9534 -0.6856  0.6439
 9310TIP3    H249422   6.132   6.280   1.187 -2.3810 -1.9487 -0.8196
 9311TIP3   OH249423   2.415   3.374  12.668  0.2064  0.4019 -0.3923
 9311TIP3    H149424   2.320   3.363  12.660  0.0062  1.0062  0.9124
 9311TIP3    H249425   2.436   3.450  12.614 -0.0270  0.1457 -0.8411
 9312TIP3   OH249426   6.662   3.316   1.417 -0.4748  0.0439  0.1745
 9312TIP3    H149427   6.569   3.325   1.436  0.1382  0.7698  3.0440
 9312TIP3    H249428   6.703   3.388   1.465  1.8589 -2.0600  1.4453
 9313TIP3   OH249429   1.891   3.751  12.687 -0.4186 -0.1383 -0.3873
 9313TIP3    H149430   1.895   3.685  12.756 -0.5120 -0.4553 -0.6777
 9313TIP3    H249431   1.824   3.718  12.627  0.3241 -0.3463 -1.1152
 9314TIP3   OH249432   2.755   2.891   6.065 -1.0653  0.4388  0.5433
 9314TIP3    H149433   2.798   2.861   5.985 -0.9402  0.9091  0.4320
 9314TIP3    H249434   2.780   2.827   6.132 -0.6169  0.4243  0.3594
 9315TIP3   OH249435   0.791   4.663   2.972 -0.7237 -0.3601  0.2793
 9315TIP3    H149436   0.741   4.586   2.946 -0.8512  0.1089 -0.8731
 9315TIP3    H249437   0.744   4.737   2.933  0.7693  0.0969 -0.6819
 9316TIP3   OH249438   6.161   0.838   3.502 -0.2614  0.1272 -0.1181
 9316TIP3    H149439   6.079   0.812   3.460 -1.4293  1.1088  1.5124
 9316TIP3    H249440   6.145   0.927   3.532  1.2716  0.1766  0.5691
 9317TIP3   OH249441   5.999   2.567  15.836  0.2103  0.2320  0.0815
 9317TIP3    H149442   6.060   2.597  15.769 -1.0417  1.4195 -0.5435
 9317TIP3    H249443   5.960   2.647  15.871  0.0698 -0.4351  1.5016
 9318TIP3   OH249444   6.779   1.943  13.105  0.0892  0.3318  0.5455
 9318TIP3    H149445   6.782   2.034  13.075  0.9035 -0.2292 -1.1013
 9318TIP3    H249446   6.696   1.910  13.071 -0.1330  0.3907  1.0138
 9319TIP3   OH249447   2.998   3.728   5.356  0.6286 -0.3464  0.2652
 9319TIP3    H149448   3.046   3.715   5.274 -1.9658 -2.2167 -1.0297
 9319TIP3    H249449   3.040   3.670   5.419  0.6338 -1.2920 -0.6027
 9320TIP3   OH249450   6.033   2.356  12.708 -0.0638 -0.8257  0.1321
 9320TIP3    H149451   5.952   2.331  12.665 -0.4819  1.9180 -0.7775
 9320TIP3    H249452   6.054   2.442  12.671  3.2228 -1.4467  0.3902
 9321TIP3   OH249453   5.771   4.077   3.702  0.1962  0.1542  0.0389
 9321TIP3    H149454   5.857   4.073   3.745 -0.1418  1.3655  0.8474
 9321TIP3    H249455   5.792   4.094   3.610  0.9473 -2.9411 -0.4272
 9322TIP3   OH249456   3.192   5.704   3.143  0.3063 -0.2209 -0.1877
 9322TIP3    H149457   3.215   5.712   3.050  0.0520  0.2836 -0.2104
 9322TIP3    H249458   3.232   5.781   3.184 -0.6281  0.2151 -0.0859
 9323TIP3   OH249459   0.623   3.539  15.604  0.2354 -0.6149 -0.1095
 9323TIP3    H149460   0.563   3.600  15.562 -0.9305 -1.6093  0.0951
 9323TIP3    H249461   0.637   3.574  15.692 -0.4107 -0.6296 -0.0007
 9324TIP3   OH249462   2.849   6.692  13.135 -0.3711  0.3201  0.7684
 9324TIP3    H149463   2.881   6.778  13.108 -1.8483  0.8409  0.6227
 9324TIP3    H249464   2.844   6.698  13.231  0.0602  0.2029  0.7996
 9325TIP3   OH249465   2.307   5.444  12.056  0.0702  0.2025  0.1356
 9325TIP3    H149466   2.350   5.528  12.074  0.4854 -0.0438  0.2877
 9325TIP3    H249467   2.266   5.457  11.970  0.6810  0.3428 -0.1338
 9326TIP3   OH249468   5.035   0.009   5.597  1.0212  0.1916  0.3718
 9326TIP3    H149469   5.121   0.044   5.572  1.3955 -0.3838  0.8339
 9326TIP3    H249470   5.044  -0.013   5.689  0.1955  0.6471  0.5651
 9327TIP3   OH249471   5.312   4.706   3.630 -0.2700 -0.4851 -0.0481
 9327TIP3    H149472   5.304   4.801   3.638  0.4207 -0.1259 -2.8312
 9327TIP3    H249473   5.402   4.687   3.655  0.0955 -0.1708 -1.0973
 9328TIP3   OH249474   5.227   1.043  17.072 -1.1475  0.2628  0.5403
 9328TIP3    H149475   5.266   0.956  17.074 -1.1321  0.2966  1.5678
 9328TIP3    H249476   5.151   1.037  17.129 -1.2649  0.8730  0.4591
 9329TIP3   OH249477   2.317   3.463  13.878  0.4860 -0.0386  0.4487
 9329TIP3    H149478   2.408   3.488  13.860 -0.1492 -0.1916 -3.5145
 9329TIP3    H249479   2.323   3.372  13.906  1.5145 -0.3991 -0.8655
 9330TIP3   OH249480   4.120   5.725  16.190 -0.3121  0.6577 -0.1961
 9330TIP3    H149481   4.041   5.750  16.237 -1.0755 -1.4420 -0.3165
 9330TIP3    H249482   4.169   5.671  16.252  0.4987  1.0198 -0.5112
 9331TIP3   OH249483   4.723   5.855  13.270 -0.6826 -0.5765 -0.4144
 9331TIP3    H149484   4.699   5.941  13.235 -1.7919 -0.3881  0.8045
 9331TIP3    H249485   4.641   5.817  13.300  0.1150 -1.1082  1.1481
 9332TIP3   OH249486   1.157   2.275   6.269  0.4264 -0.0066  0.3415
 9332TIP3    H149487   1.194   2.190   6.244 -0.6021  0.1510 -1.7824
 9332TIP3    H249488   1.078   2.284   6.216 -0.2151  1.6931  1.5325
 9333TIP3   OH249489   1.745   1.137  13.580 -0.6730 -0.2253  0.1302
 9333TIP3    H149490   1.803   1.199  13.536 -0.5007  1.1584  2.2284
 9333TIP3    H249491   1.665   1.137  13.528 -0.3391  1.0995 -0.3941
 9334TIP3   OH249492   4.558   0.798   4.139 -0.1121  0.2103 -0.0928
 9334TIP3    H149493   4.639   0.849   4.134  1.0864 -1.6716 -0.0966
 9334TIP3    H249494   4.524   0.816   4.227  1.8443 -1.2564  1.0027
 9335TIP3   OH249495   4.447   2.516  11.133 -0.7830 -0.3991 -0.4384
 9335TIP3    H149496   4.541   2.503  11.123 -0.7042  0.4817 -0.9165
 9335TIP3    H249497   4.427   2.483  11.220 -0.0900 -0.9012 -0.4660
 9336TIP3   OH249498   1.711   0.990   5.704 -0.0962 -0.0186 -0.1029
 9336TIP3    H149499   1.667   1.052   5.761 -1.4062 -0.5934 -0.4716
 9336TIP3    H249500   1.804   1.003   5.722 -0.4400  0.6683  1.2544
 9337TIP3   OH249501   3.250   4.603  15.872  0.2907  0.6877 -0.4621
 9337TIP3    H149502   3.238   4.556  15.789 -0.0965  0.5970 -0.3522
 9337TIP3    H249503   3.189   4.562  15.933  3.4867 -2.0562  1.0608
 9338TIP3   OH249504   1.389   4.105  12.401  0.3756 -0.3225 -0.0784
 9338TIP3    H149505   1.462   4.114  12.339 -0.9064 -0.1528 -1.6048
 9338TIP3    H249506   1.364   4.013  12.394 -0.1553 -0.1660 -0.2611
 9339TIP3   OH249507   2.529   1.554  15.198 -0.0625  0.1992 -0.2870
 9339TIP3    H149508   2.549   1.643  15.226  1.7317 -0.4556  0.6154
 9339TIP3    H249509   2.610   1.522  15.158 -0.2458 -1.4773  0.6104
 9340TIP3   OH249510   5.949   2.310   5.506 -0.3039 -0.0224 -0.4594
 9340TIP3    H149511   5.909   2.343   5.426 -0.0638  0.6438 -0.3014
 9340TIP3    H249512   5.960   2.387   5.562 -1.1644 -0.5851  0.5153
 9341TIP3   OH249513   5.210   1.977   4.800 -0.1043 -0.1599  0.0964
 9341TIP3    H149514   5.247   2.020   4.723 -0.2481 -2.4103 -1.2776
 9341TIP3    H249515   5.264   2.008   4.873  1.2166  0.5814 -1.1710
 9342TIP3   OH249516   1.368   2.059   0.532 -0.2091 -0.2194  0.1762
 9342TIP3    H149517   1.377   2.135   0.589 -0.4454 -1.8132  2.4077
 9342TIP3    H249518   1.437   1.999   0.561  0.4845 -0.5413 -2.0727
 9343TIP3   OH249519   0.646   6.397   5.626  0.2096 -0.2182  0.4655
 9343TIP3    H149520   0.676   6.480   5.589  2.5561 -1.0161  0.5036
 9343TIP3    H249521   0.724   6.358   5.665 -0.7845 -2.5622  0.2173
 9344TIP3   OH249522   2.941   0.476  15.883  0.3451  0.3756 -0.1351
 9344TIP3    H149523   3.036   0.490  15.885  0.5879 -1.0254 -1.5068
 9344TIP3    H249524   2.919   0.473  15.790 -0.8827 -0.3180  0.1712
 9345TIP3   OH249525   4.343   0.263   3.152 -0.4085  0.2344  0.7960
 9345TIP3    H149526   4.361   0.255   3.245 -0.0552 -0.7155  0.6542
 9345TIP3    H249527   4.430   0.263   3.111 -0.5235  1.6284  0.5354
 9346TIP3   OH249528   0.628   1.554  11.591  0.0668  0.5891  0.0337
 9346TIP3    H149529   0.588   1.634  11.558  0.2384  1.8613  2.7182
 9346TIP3    H249530   0.714   1.549  11.549 -0.6334  0.9021 -1.4275
 9347TIP3   OH249531   3.946   3.741  11.212 -0.0918  0.3631  0.2998
 9347TIP3    H149532   3.934   3.736  11.306 -0.3791  1.9407  0.3670
 9347TIP3    H249533   3.914   3.657  11.179 -1.5209  0.4267  1.4670
 9348TIP3   OH249534   5.262   6.209  11.722  0.1450 -0.2332  0.0527
 9348TIP3    H149535   5.238   6.203  11.815 -1.0008  0.2444 -0.1952
 9348TIP3    H249536   5.182   6.243  11.680 -0.1054 -2.6433 -1.4548
 9349TIP3   OH249537   6.295   3.688  11.754 -0.6256 -0.0305  0.4032
 9349TIP3    H149538   6.339   3.618  11.706 -1.1729 -0.8020  1.0207
 9349TIP3    H249539   6.347   3.699  11.834 -1.6476 -1.0908  1.2356
 9350TIP3   OH249540   4.991   6.028  11.566  0.6387 -0.2817  0.8446
 9350TIP3    H149541   4.921   5.997  11.624  1.2746  1.9313  2.8587
 9350TIP3    H249542   4.948   6.090  11.508  0.5529 -0.3669  0.8160
 9351TIP3   OH249543   2.693   5.452   1.997 -0.0187 -0.7916 -0.4511
 9351TIP3    H149544   2.678   5.506   2.075  1.0617 -2.7219  1.1189
 9351TIP3    H249545   2.717   5.515   1.929 -0.6670  0.8914  0.8503
 9352TIP3   OH249546   2.656   5.148   6.129  0.3425 -0.0916  0.9727
 9352TIP3    H149547   2.586   5.122   6.069 -0.1920  1.9640  0.6483
 9352TIP3    H249548   2.610   5.193   6.200  1.2552  0.4492  1.2254
 9353TIP3   OH249549   1.113   0.579  15.521  0.6201  0.1573 -0.5547
 9353TIP3    H149550   1.204   0.585  15.492  0.4326  0.4551 -1.0820
 9353TIP3    H249551   1.061   0.610  15.447  0.0090 -1.2736 -0.7590
 9354TIP3   OH249552   0.989   0.024   0.006 -0.0031 -0.4469 -0.2538
 9354TIP3    H149553   0.932   0.018  -0.071 -0.9110  0.3717  0.3397
 9354TIP3    H249554   1.028   0.111  -0.000  0.5794 -0.7055 -0.2323
 9355TIP3   OH249555   5.592   4.564  13.380 -0.4543 -0.1156  0.0461
 9355TIP3    H149556   5.503   4.596  13.369 -0.4990 -0.5872 -0.9772
 9355TIP3    H249557   5.611   4.515  13.300 -0.5396 -3.0164  1.7351
 9356TIP3   OH249558   2.702   5.310  16.542 -0.0728  0.1729  0.3737
 9356TIP3    H149559   2.633   5.301  16.607  0.3259  1.1030  0.9384
 9356TIP3    H249560   2.662   5.281  16.460 -0.9349  0.1165  0.8107
 9357TIP3   OH249561   1.017   2.588   4.212  0.3587 -0.3724  0.4683
 9357TIP3    H149562   1.089   2.526   4.217  2.3885  1.9212  0.5524
 9357TIP3    H249563   0.954   2.547   4.153  1.9611 -2.1632 -0.0449
 9358TIP3   OH249564   0.480   2.600   5.696  0.1831 -0.1098 -0.3680
 9358TIP3    H149565   0.506   2.517   5.657 -0.2177 -0.2883 -0.2554
 9358TIP3    H249566   0.445   2.576   5.782  0.8127  0.2508 -0.0061
 9359TIP3   OH249567   5.556   1.453  10.807 -0.0956 -0.0118  0.2909
 9359TIP3    H149568   5.633   1.459  10.749  0.1948 -2.1451  0.4351
 9359TIP3    H249569   5.488   1.501  10.761  0.8996  0.6266 -0.5492
 9360TIP3   OH249570   0.986   6.078  16.254  0.0150  0.2836  0.2596
 9360TIP3    H149571   0.953   5.989  16.245 -0.2091  0.4828 -1.0238
 9360TIP3    H249572   1.082   6.069  16.250 -0.0223  0.1560 -0.5855
 9361TIP3   OH249573   2.329   6.164   4.497 -0.3450 -0.1457  0.0626
 9361TIP3    H149574   2.356   6.220   4.569  0.0238  0.2663 -0.3968
 9361TIP3    H249575   2.302   6.224   4.428  1.5716 -0.4857 -1.0195
 9362TIP3   OH249576   3.089   2.285   6.307 -0.0026  0.0621 -0.4788
 9362TIP3    H149577   3.175   2.259   6.274 -0.5673 -1.0606 -1.1288
 9362TIP3    H249578   3.056   2.207   6.353 -0.8377  0.3274 -0.6097
 9363TIP3   OH249579   1.914   5.923  14.483  0.3931  0.5639  0.2239
 9363TIP3    H149580   1.841   5.961  14.532  0.4467  0.5074  0.3498
 9363TIP3    H249581   1.876   5.894  14.401  0.4931  1.5288 -0.1689
 9364TIP3   OH249582   6.648   5.793   5.356  0.6790 -0.0901  0.1399
 9364TIP3    H149583   6.664   5.835   5.441  0.7438  1.5425 -0.6562
 9364TIP3    H249584   6.732   5.800   5.310  0.3403 -0.0108 -0.4617
 9365TIP3   OH249585   3.310   6.143  14.215 -0.6406 -0.8239  0.1501
 9365TIP3    H149586   3.218   6.126  14.236 -0.4392  1.1429  2.9420
 9365TIP3    H249587   3.359   6.086  14.275 -0.0546  1.3667  1.8096
 9366TIP3   OH249588   5.618   2.286   1.482  0.4973  0.3719 -0.8629
 9366TIP3    H149589   5.582   2.199   1.500  3.8518 -0.7819  0.5237
 9366TIP3    H249590   5.586   2.340   1.554  1.8870 -0.7473  0.6186
 9367TIP3   OH249591   2.322   3.758   4.076  0.0656 -0.1003 -0.0471
 9367TIP3    H149592   2.287   3.775   4.163  0.4889 -2.1293  0.5384
 9367TIP3    H249593   2.343   3.665   4.076  1.6190  0.2130 -1.7631
 9368TIP3   OH249594   3.811   6.632  10.856 -0.5776  0.0520  0.8061
 9368TIP3    H149595   3.880   6.597  10.799 -1.1863 -0.8961  0.6394
 9368TIP3    H249596   3.755   6.683  10.798 -0.2483  0.4978  0.8719
 9369TIP3   OH249597   5.524   3.724  14.449  0.5545  0.3236 -0.2287
 9369TIP3    H149598   5.466   3.777  14.394 -0.4880 -0.9393 -0.3680
 9369TIP3    H249599   5.495   3.634  14.435  1.1992 -0.1418  1.3021
 9370TIP3   OH249600   4.663   2.225  10.936 -0.1856 -0.6291  0.0087
 9370TIP3    H149601   4.621   2.306  10.906 -0.8787 -0.1975  2.0575
 9370TIP3    H249602   4.634   2.159  10.873  0.3840  0.6909 -1.6889
 9371TIP3   OH249603   0.957   3.497  15.336 -0.1797 -0.0321 -0.0406
 9371TIP3    H149604   0.906   3.567  15.376 -0.9031 -0.9448  0.6599
 9371TIP3    H249605   1.047   3.512  15.366 -0.3087  0.6557  0.0060
 9372TIP3   OH249606   4.888   0.841  14.165 -0.4645 -0.5024  0.1066
 9372TIP3    H149607   4.918   0.925  14.200  0.1371 -0.5990 -0.1604
 9372TIP3    H249608   4.793   0.850  14.158 -0.4115  0.1278  0.1605
 9373TIP3   OH249609   2.746   3.906   0.388 -0.0416 -0.2370 -0.0253
 9373TIP3    H149610   2.715   3.816   0.393 -0.1888 -0.3272 -2.2044
 9373TIP3    H249611   2.823   3.903   0.331  0.9980  0.7605  1.2921
 9374TIP3   OH249612   4.861   1.604  11.652 -0.4259  0.1940 -0.1099
 9374TIP3    H149613   4.956   1.592  11.642 -0.3646 -0.7673  1.4264
 9374TIP3    H249614   4.852   1.689  11.693 -0.1787 -0.1054  0.5687
 9375TIP3   OH249615   1.317   5.826   5.605 -0.1173  0.4791 -0.1586
 9375TIP3    H149616   1.329   5.766   5.531  0.6309 -1.3363  1.4107
 9375TIP3    H249617   1.405   5.839   5.640 -0.4454  1.4826  0.3271
 9376TIP3   OH249618   5.143   1.033  15.825  0.2450 -0.0020  0.3249
 9376TIP3    H149619   5.233   1.026  15.792 -0.4759 -0.5297 -1.5899
 9376TIP3    H249620   5.144   1.112  15.880  1.4460  1.0511 -1.1586
 9377TIP3   OH249621   5.169   1.171   6.147 -0.2379 -0.4829 -0.3676
 9377TIP3    H149622   5.222   1.104   6.103  1.9354  1.0247 -0.1160
 9377TIP3    H249623   5.143   1.129   6.230 -2.1422 -2.3593 -1.8465
 9378TIP3   OH249624   5.963   5.913   2.592 -0.6787  0.4242  0.0050
 9378TIP3    H149625   5.969   6.008   2.601 -2.1577  0.4566  0.9288
 9378TIP3    H249626   6.044   5.880   2.631 -0.2380  1.3025 -0.1534
 9379TIP3   OH249627   4.346   1.119  11.699 -0.1589 -0.6157  0.1183
 9379TIP3    H149628   4.269   1.122  11.756 -0.9270 -1.0764 -0.8806
 9379TIP3    H249629   4.418   1.093  11.756 -0.5137  0.9266  1.3047
 9380TIP3   OH249630   0.405   0.967  10.913  0.0093  0.1498  0.7115
 9380TIP3    H149631   0.403   0.873  10.894 -0.3680  0.2456  0.2752
 9380TIP3    H249632   0.489   0.996  10.878  0.3837 -0.1369  1.3727
 9381TIP3   OH249633   2.172   6.286   4.056 -0.6524  0.2173 -0.1059
 9381TIP3    H149634   2.080   6.259   4.064 -0.6841  0.6943  1.3264
 9381TIP3    H249635   2.167   6.377   4.027 -0.6410  0.2667  0.0444
 9382TIP3   OH249636   4.619   3.525  11.282 -0.1085 -0.3216 -0.3806
 9382TIP3    H149637   4.658   3.548  11.198  0.1228  0.1676 -0.1391
 9382TIP3    H249638   4.606   3.430  11.277 -0.7841 -0.1899 -1.2566
 9383TIP3   OH249639   2.629   0.966   5.528 -0.3990 -0.4067 -0.3075
 9383TIP3    H149640   2.670   0.887   5.493 -0.3670 -0.6379  0.2424
 9383TIP3    H249641   2.657   0.969   5.620  0.3116  0.7189 -0.5506
 9384TIP3   OH249642   1.053   5.661  17.086 -0.3694  0.6834 -0.2652
 9384TIP3    H149643   1.024   5.577  17.050 -0.2289  0.7369 -0.5127
 9384TIP3    H249644   1.083   5.641  17.174 -0.1512  0.4397 -0.3951
 9385TIP3   OH249645   3.111   2.168  11.563 -0.5413 -0.1942  0.1768
 9385TIP3    H149646   3.158   2.237  11.517 -0.5641 -0.4536 -0.2264
 9385TIP3    H249647   3.128   2.089  11.513 -1.0125 -0.3735  0.2999
 9386TIP3   OH249648   5.352   2.340  14.564 -0.4511 -0.0095 -0.1565
 9386TIP3    H149649   5.434   2.327  14.516 -0.9075  0.1260 -0.9968
 9386TIP3    H249650   5.301   2.261  14.546 -0.6653  0.0880  0.0232
 9387TIP3   OH249651   5.543   1.745   3.308  0.5131 -0.2222  0.4261
 9387TIP3    H149652   5.605   1.803   3.352 -0.0826  1.2618 -0.6621
 9387TIP3    H249653   5.488   1.711   3.379 -0.7176  2.4734  0.8254
 9388TIP3   OH249654   0.235   5.557  15.391  0.6522  0.6065  0.1239
 9388TIP3    H149655   0.226   5.511  15.474  0.8590 -1.0112 -0.7192
 9388TIP3    H249656   0.229   5.649  15.414 -0.6607  0.1408  1.7470
 9389TIP3   OH249657   2.128   0.225   2.487  0.3535 -0.1000 -0.4611
 9389TIP3    H149658   2.190   0.290   2.453  0.3561  0.3473  0.3733
 9389TIP3    H249659   2.179   0.175   2.551 -0.2800  0.6129  0.6122
 9390TIP3   OH249660   0.548   6.447  16.269 -0.2241  0.1670 -0.0849
 9390TIP3    H149661   0.493   6.431  16.346 -0.4956  0.6015 -0.1885
 9390TIP3    H249662   0.607   6.517  16.297  1.9832 -2.0083  0.8736
 9391TIP3   OH249663   4.025   2.814   1.748  0.2373  0.0210 -0.2405
 9391TIP3    H149664   4.067   2.849   1.669  0.4897  0.2331 -0.0152
 9391TIP3    H249665   4.090   2.753   1.785  0.3091  0.2723  0.0536
 9392TIP3   OH249666   6.347   4.375  13.413 -0.3996  0.1800 -0.3737
 9392TIP3    H149667   6.342   4.282  13.388  0.8576  0.0662 -0.2151
 9392TIP3    H249668   6.432   4.404  13.380 -0.9300  1.3671 -0.7067
 9393TIP3   OH249669   1.269   6.114   2.217  0.4708 -0.1370 -0.2181
 9393TIP3    H149670   1.178   6.142   2.224  0.1184 -0.7145 -2.4063
 9393TIP3    H249671   1.269   6.023   2.245  0.2306 -0.3866 -1.0266
 9394TIP3   OH249672   5.594   5.334  12.323  0.1765 -0.5011  0.2312
 9394TIP3    H149673   5.502   5.318  12.304  0.0949  0.1633  0.0328
 9394TIP3    H249674   5.640   5.302  12.245 -0.0863  1.3825 -0.7276
 9395TIP3   OH249675   3.563   4.486   2.543  0.2878 -0.5631 -0.9788
 9395TIP3    H149676   3.607   4.413   2.586 -0.2012 -0.6623 -0.6393
 9395TIP3    H249677   3.632   4.530   2.493  0.4732 -1.5766 -1.6235
 9396TIP3   OH249678   4.430   3.246  13.157 -0.2001  0.3064 -0.5015
 9396TIP3    H149679   4.362   3.313  13.153  0.1835  0.6322 -1.4131
 9396TIP3    H249680   4.384   3.168  13.190 -0.5390  1.1300  1.0372
 9397TIP3   OH249681   6.483   0.536  13.653 -0.3529  0.4748 -0.4922
 9397TIP3    H149682   6.504   0.630  13.653  1.0236  0.2148 -3.1407
 9397TIP3    H249683   6.417   0.527  13.585  0.3601 -0.6476 -1.0393
 9398TIP3   OH249684   0.326   0.814   1.760 -0.1955 -0.2762  0.0545
 9398TIP3    H149685   0.397   0.849   1.706 -0.8260 -0.5405 -0.9613
 9398TIP3    H249686   0.260   0.784   1.697 -1.8239  1.2284  0.9930
 9399TIP3   OH249687   1.698   5.186  11.820  0.4641  0.3020 -0.2319
 9399TIP3    H149688   1.780   5.146  11.848  0.3372 -0.3853 -0.8241
 9399TIP3    H249689   1.645   5.190  11.899  0.9576  0.4781  0.0910
 9400TIP3   OH249690   0.982   1.467  15.621  0.0715  0.2177  0.4673
 9400TIP3    H149691   1.030   1.532  15.672  2.5235 -2.5467  1.8411
 9400TIP3    H249692   0.972   1.392  15.680 -2.5973 -0.7537 -1.0916
 9401TIP3   OH249693   3.781   2.049   6.117 -0.5941 -0.0645  0.1404
 9401TIP3    H149694   3.801   2.107   6.190 -0.8654 -0.0361  0.1946
 9401TIP3    H249695   3.752   1.968   6.157  0.0070 -0.3161  0.0634
 9402TIP3   OH249696   3.559   3.231   2.428 -0.1709 -0.1779 -0.7376
 9402TIP3    H149697   3.653   3.250   2.427 -0.0495 -0.6970  0.0895
 9402TIP3    H249698   3.520   3.304   2.381  0.4658  1.1500  0.7172
 9403TIP3   OH249699   2.344   1.894   0.338 -0.1278 -0.5959 -0.1441
 9403TIP3    H149700   2.390   1.831   0.283 -1.0988 -1.9986  0.6235
 9403TIP3    H249701   2.409   1.962   0.356  0.7180 -0.9990 -1.5625
 9404TIP3   OH249702   1.829   5.587  17.154  0.2131  0.5990 -0.6785
 9404TIP3    H149703   1.782   5.512  17.116 -0.6496  0.4267  0.7112
 9404TIP3    H249704   1.906   5.548  17.196 -0.3568  0.4625  0.2429
 9405TIP3   OH249705   2.557   4.492  15.806  0.2614 -0.3837  0.2532
 9405TIP3    H149706   2.527   4.538  15.728  2.0278  1.4851  0.5967
 9405TIP3    H249707   2.487   4.431  15.827 -1.3803  0.8939 -1.3098
 9406TIP3   OH249708   0.818   1.839  11.635  0.4476 -0.2163 -0.3985
 9406TIP3    H149709   0.861   1.757  11.658 -0.7866 -0.6893  0.2098
 9406TIP3    H249710   0.725   1.822  11.645 -0.0423  0.1268 -3.9499
 9407TIP3   OH249711   4.049   3.862  11.602  0.3888  0.7709 -0.0588
 9407TIP3    H149712   4.051   3.780  11.554 -1.9991  0.8216 -0.3380
 9407TIP3    H249713   4.019   3.927  11.538  2.3987  1.8897  0.1201
 9408TIP3   OH249714   0.372   4.369   1.983  0.1325 -0.2308 -0.5789
 9408TIP3    H149715   0.405   4.290   2.024 -0.4379 -0.3631 -0.3721
 9408TIP3    H249716   0.280   4.350   1.964 -0.2755  0.7445  0.3867
 9409TIP3   OH249717   3.819   5.373   3.028  0.2379  0.3055 -0.4341
 9409TIP3    H149718   3.797   5.388   2.937  2.2503  0.6969 -0.8877
 9409TIP3    H249719   3.869   5.292   3.028 -0.8414 -0.3823  0.5028
 9410TIP3   OH249720   4.010   5.768   1.212 -0.2378 -0.4622 -0.1564
 9410TIP3    H149721   4.009   5.738   1.121 -2.2630 -0.4079 -0.1779
 9410TIP3    H249722   4.053   5.854   1.209 -1.8718  0.3295 -1.3295
 9411TIP3   OH249723   1.700   1.467   0.018  0.2216 -0.4074 -0.5110
 9411TIP3    H149724   1.794   1.481   0.002  0.3130  1.0309  1.1115
 9411TIP3    H249725   1.697   1.398   0.083  0.1884  0.0345 -0.0406
 9412TIP3   OH249726   2.966   4.740  14.557 -0.0619 -0.0156  0.2375
 9412TIP3    H149727   3.036   4.753  14.493  0.9208 -1.7452  0.9239
 9412TIP3    H249728   2.993   4.662  14.606 -1.3006  0.6807  2.0794
 9413TIP3   OH249729   6.803   4.419   5.180  0.0283 -0.1902 -0.6098
 9413TIP3    H149730   6.870   4.371   5.229  0.4426  0.2936 -0.6990
 9413TIP3    H249731   6.737   4.442   5.245  0.9012  1.0460 -0.1331
 9414TIP3   OH249732   2.340   6.137  14.224  0.1324  0.1609  0.2040
 9414TIP3    H149733   2.278   6.135  14.297  1.6904  0.9662  1.6078
 9414TIP3    H249734   2.395   6.214  14.242  2.1448 -1.0845 -0.4572
 9415TIP3   OH249735   1.145   5.568   2.797 -0.1986 -0.2690  0.9915
 9415TIP3    H149736   1.202   5.492   2.806 -1.2738 -1.5018 -2.0564
 9415TIP3    H249737   1.057   5.531   2.792 -0.6046  1.0110 -2.1090
 9416TIP3   OH249738   6.209   3.798  13.582  0.6465 -0.1550 -0.1845
 9416TIP3    H149739   6.195   3.723  13.640  2.2998 -0.7903 -0.5633
 9416TIP3    H249740   6.121   3.826  13.557 -0.0480 -0.7570  1.4935
 9417TIP3   OH249741   6.189   1.459   3.877 -0.3179  0.2595 -0.0720
 9417TIP3    H149742   6.257   1.392   3.867 -0.6991  0.3679 -4.1251
 9417TIP3    H249743   6.222   1.535   3.830 -1.3992  1.8312  1.6214
 9418TIP3   OH249744   1.179   3.503  16.052 -0.9812 -0.6120  0.2551
 9418TIP3    H149745   1.166   3.594  16.028 -2.1100 -0.4151  1.5494
 9418TIP3    H249746   1.093   3.472  16.082 -0.6719 -2.1632 -0.3842
 9419TIP3   OH249747   2.835   2.851   2.406  0.0535 -0.2416 -0.0508
 9419TIP3    H149748   2.803   2.886   2.489 -0.4788 -1.3452  0.2210
 9419TIP3    H249749   2.928   2.835   2.422  0.1112  0.2445  0.1005
 9420TIP3   OH249750   4.216   5.141  15.174  0.0598  0.3385  0.2602
 9420TIP3    H149751   4.144   5.082  15.152  0.1782 -0.1047  1.0483
 9420TIP3    H249752   4.189   5.226  15.138 -0.2834 -0.1033 -0.5401
 9421TIP3   OH249753   0.306   1.655  11.377  0.2519  0.0753 -0.0218
 9421TIP3    H149754   0.247   1.583  11.353 -0.8316  0.2126  2.0830
 9421TIP3    H249755   0.256   1.708  11.439  1.9677  1.1804  0.4723
 9422TIP3   OH249756   4.651   4.293   6.432 -0.4573  0.7136  0.0649
 9422TIP3    H149757   4.705   4.367   6.404 -0.2531 -0.0375 -1.5525
 9422TIP3    H249758   4.594   4.275   6.358  0.2210 -1.4096  0.0256
 9423TIP3   OH249759   4.104   6.268   5.053 -0.1713  0.1611  0.3604
 9423TIP3    H149760   4.087   6.281   4.960  1.0692  1.1470  0.2676
 9423TIP3    H249761   4.190   6.226   5.057 -0.8016 -1.1043  1.0118
 9424TIP3   OH249762   3.188   1.438  17.200 -0.1380 -0.4243  0.3180
 9424TIP3    H149763   3.136   1.394  17.267 -0.9330 -0.5943 -0.4008
 9424TIP3    H249764   3.200   1.527  17.233 -1.3628 -0.2193  0.2557
 9425TIP3   OH249765   1.929   1.713   3.244 -0.7803  0.3360  0.7915
 9425TIP3    H149766   1.934   1.726   3.149 -0.0416  1.0670  0.9322
 9425TIP3    H249767   2.019   1.695   3.271 -0.8121  1.2408  1.5159
 9426TIP3   OH249768   2.250   1.466  12.934  0.5705  0.0558  0.0859
 9426TIP3    H149769   2.319   1.400  12.936  0.2844 -0.2556 -0.1752
 9426TIP3    H249770   2.290   1.543  12.893  0.4197 -0.5265 -1.1763
 9427TIP3   OH249771   5.207   2.286   3.692  0.1922 -0.0297  0.4754
 9427TIP3    H149772   5.136   2.336   3.652  0.4431 -0.8386 -1.0136
 9427TIP3    H249773   5.168   2.200   3.711  0.3349  0.0468  1.1228
 9428TIP3   OH249774   5.670   3.539   2.254 -0.3232  0.2927  0.5019
 9428TIP3    H149775   5.643   3.628   2.232 -0.4196  0.5422  1.5642
 9428TIP3    H249776   5.608   3.512   2.323  0.0006 -0.4121  0.5266
 9429TIP3   OH249777   5.701   6.400   3.952 -0.5870 -0.0068 -0.7891
 9429TIP3    H149778   5.776   6.454   3.927  0.8719 -1.6080 -0.0297
 9429TIP3    H249779   5.625   6.459   3.946  0.7523  1.7048 -1.3507
 9430TIP3   OH249780   1.836   2.656   5.431 -0.0892  0.2186 -0.4871
 9430TIP3    H149781   1.820   2.750   5.436 -1.1704  0.1063 -1.4272
 9430TIP3    H249782   1.892   2.646   5.354  2.1770  0.3165  1.0902
 9431TIP3   OH249783   0.291   0.908   1.285 -0.9234  0.4646  0.3551
 9431TIP3    H149784   0.365   0.960   1.252  0.8669 -2.1286  0.1341
 9431TIP3    H249785   0.214   0.958   1.259  0.7078  2.8762 -0.0720
 9432TIP3   OH249786   6.718   2.882   5.903  0.1482 -0.0412 -0.1542
 9432TIP3    H149787   6.684   2.946   5.840 -0.2540 -0.5466 -0.4567
 9432TIP3    H249788   6.641   2.852   5.951  0.4080  0.0869  0.3430
 9433TIP3   OH249789   5.384   6.161  14.238 -0.2072  0.0476  0.0301
 9433TIP3    H149790   5.353   6.073  14.259 -1.7188  0.5379 -0.1257
 9433TIP3    H249791   5.479   6.151  14.228  0.0140 -1.0078  2.8000
 9434TIP3   OH249792   3.958   2.526  16.875  0.3557 -0.0152  0.0594
 9434TIP3    H149793   3.957   2.481  16.959  0.4797  0.8205  0.5187
 9434TIP3    H249794   3.913   2.609  16.891 -0.3067 -0.1795 -0.8872
 9435TIP3   OH249795   1.786   4.870  15.564  0.4280 -0.2883 -0.2479
 9435TIP3    H149796   1.765   4.941  15.504  1.5917  0.4119  0.1653
 9435TIP3    H249797   1.800   4.913  15.649  1.2119 -0.9954 -0.0133
 9436TIP3   OH249798   2.717   2.553  13.433 -0.6225  0.4840 -0.2566
 9436TIP3    H149799   2.648   2.492  13.460 -0.9939  0.4197 -1.3354
 9436TIP3    H249800   2.678   2.640  13.444 -0.6708  0.4713 -0.3311
 9437TIP3   OH249801   3.840   0.086  15.539 -0.3600 -0.1506 -0.7401
 9437TIP3    H149802   3.874   0.125  15.619  0.9341 -1.5706 -0.5811
 9437TIP3    H249803   3.746   0.080  15.554 -0.2505  0.4974  0.2680
 9438TIP3   OH249804   4.300   3.004   5.238 -0.4219 -0.0028 -0.3280
 9438TIP3    H149805   4.256   3.032   5.158  0.6053  0.6895 -0.6578
 9438TIP3    H249806   4.378   2.959   5.208 -0.8780 -1.1937  0.2568
 9439TIP3   OH249807   2.584   4.222   5.125 -0.1621 -0.4956 -0.1194
 9439TIP3    H149808   2.617   4.276   5.053 -0.1855  0.9525  0.9505
 9439TIP3    H249809   2.491   4.212   5.107 -0.2484  0.2091 -0.0908
 9440TIP3   OH249810   5.754   5.586   1.895  0.3694  0.0957 -0.0690
 9440TIP3    H149811   5.845   5.557   1.896 -0.0030 -1.0854  1.9319
 9440TIP3    H249812   5.703   5.507   1.912 -0.8805  1.2180  1.5677
 9441TIP3   OH249813   1.307   2.343  13.853  0.1847  0.6530 -0.0774
 9441TIP3    H149814   1.393   2.353  13.894  0.7573 -0.4041 -0.9861
 9441TIP3    H249815   1.325   2.348  13.759 -0.3381 -2.2201 -0.3879
 9442TIP3   OH249816   5.495   0.284   2.797  0.1139  0.2805 -0.1038
 9442TIP3    H149817   5.456   0.294   2.884 -1.4900  0.1534 -0.8033
 9442TIP3    H249818   5.425   0.250   2.742  0.9738  0.8044 -1.5713
 9443TIP3   OH249819   4.034   5.232   5.489 -0.5474  0.0067  0.7701
 9443TIP3    H149820   4.088   5.274   5.423 -0.3299  1.8718  2.0781
 9443TIP3    H249821   4.058   5.275   5.571 -2.4705 -0.6200  1.7029
 9444TIP3   OH249822   1.458   2.486  12.810  0.6790  0.2485  0.0485
 9444TIP3    H149823   1.365   2.495  12.834  0.3519 -1.2096 -0.6133
 9444TIP3    H249824   1.478   2.566  12.762 -0.7128 -0.1632 -1.2820
 9445TIP3   OH249825   1.793   2.851  13.072 -0.1157 -0.6815  0.2009
 9445TIP3    H149826   1.827   2.940  13.080  1.8343 -1.2447 -1.3929
 9445TIP3    H249827   1.780   2.822  13.163  1.1514  0.5060  0.7757
 9446TIP3   OH249828   4.071   4.593   2.942  0.2487 -0.2039  0.0743
 9446TIP3    H149829   4.023   4.563   3.019  3.8192 -0.8973  2.1347
 9446TIP3    H249830   4.068   4.519   2.881 -0.6172 -0.5188  0.4923
 9447TIP3   OH249831   6.687   6.595  16.752 -0.6211  0.4916  0.1713
 9447TIP3    H149832   6.682   6.573  16.659  0.1789  0.3874  0.1554
 9447TIP3    H249833   6.598   6.578  16.785  0.1962 -3.9410  0.4186
 9448TIP3   OH249834   0.376   5.100   5.970 -0.2350 -0.4040 -0.0622
 9448TIP3    H149835   0.383   5.052   6.052 -0.6315 -1.2684 -0.5262
 9448TIP3    H249836   0.296   5.152   5.979 -0.9735 -1.4513 -0.3745
 9449TIP3   OH249837   3.587   4.930   6.028 -0.3432  0.2427  0.3275
 9449TIP3    H149838   3.529   4.879   6.085  0.8932 -0.5535  0.8836
 9449TIP3    H249839   3.599   4.874   5.951  1.2470 -0.4431  1.0647
 9450TIP3   OH249840   3.796   5.757   2.279 -0.5272 -0.0343  0.4553
 9450TIP3    H149841   3.822   5.738   2.369  2.4960  1.5524 -0.0429
 9450TIP3    H249842   3.848   5.697   2.225 -0.8560  0.4023 -0.3634
 9451TIP3   OH249843   5.835   5.776   4.665  0.1467 -0.2779 -0.1116
 9451TIP3    H149844   5.746   5.809   4.676  1.3966  2.3532  2.8475
 9451TIP3    H249845   5.850   5.722   4.743  1.6066  0.4253  0.0966
 9452TIP3   OH249846   5.761   4.646  11.283 -0.1813 -0.2072  0.2856
 9452TIP3    H149847   5.705   4.697  11.225 -0.2134  2.7550  2.8259
 9452TIP3    H249848   5.709   4.569  11.305 -2.2256  1.2068  0.5061
 9453TIP3   OH249849   0.162   2.755   6.846  0.2907 -0.0785 -0.2984
 9453TIP3    H149850   0.155   2.680   6.905 -0.9938 -0.1943 -0.5931
 9453TIP3    H249851   0.083   2.806   6.862  0.5392  0.5493 -1.0316
 9454TIP3   OH249852   3.530   1.192   0.050 -0.0220 -0.0415  0.5828
 9454TIP3    H149853   3.565   1.263  -0.003  1.3844 -0.1053  1.3903
 9454TIP3    H249854   3.482   1.235   0.121  1.7886  0.1623  1.7239
 9455TIP3   OH249855   4.214   4.756   0.239  0.4161 -0.3342 -0.0368
 9455TIP3    H149856   4.253   4.674   0.208  2.3134  0.9657 -1.1941
 9455TIP3    H249857   4.274   4.787   0.307 -1.7235 -1.2340  2.3689
 9456TIP3   OH249858   4.844   4.247  13.566  0.3392 -0.1705  0.2952
 9456TIP3    H149859   4.926   4.206  13.537 -0.0914 -2.2791  1.8264
 9456TIP3    H249860   4.786   4.241  13.491  1.8951  2.3376 -1.1726
 9457TIP3   OH249861   5.216   2.140  16.370 -0.5248  1.0531  0.3057
 9457TIP3    H149862   5.126   2.170  16.366 -0.6877  0.4340 -0.7969
 9457TIP3    H249863   5.212   2.048  16.344  0.6026  1.3843 -1.0622
 9458TIP3   OH249864   4.766   1.799   1.759  0.1881 -0.5607  0.1299
 9458TIP3    H149865   4.769   1.853   1.838  0.4322 -0.3832  0.0015
 9458TIP3    H249866   4.790   1.712   1.789  3.2000  0.0819 -0.2233
 9459TIP3   OH249867   6.181   5.790  16.502  0.0215  0.0071 -0.3671
 9459TIP3    H149868   6.254   5.743  16.543 -0.3939  0.7527  1.2780
 9459TIP3    H249869   6.122   5.720  16.473 -0.7845 -0.5672  2.4146
 9460TIP3   OH249870   1.244   4.642  14.051 -0.4507  0.1041  0.6056
 9460TIP3    H149871   1.333   4.634  14.086 -0.1955  0.6290  0.0713
 9460TIP3    H249872   1.195   4.573  14.096  0.3045 -0.4117  0.6493
 9461TIP3   OH249873   6.161   4.445   0.278  0.0116 -0.8787 -0.5464
 9461TIP3    H149874   6.079   4.413   0.314 -0.5096  1.6056  0.5838
 9461TIP3    H249875   6.135   4.494   0.199  0.5425 -1.1171 -0.8732
 9462TIP3   OH249876   5.225   5.569  11.499  0.3520  0.3466  0.5760
 9462TIP3    H149877   5.207   5.656  11.536 -0.6247  0.6142 -0.5104
 9462TIP3    H249878   5.220   5.509  11.574 -0.7076  0.9903  1.0265
 9463TIP3   OH249879   0.572   5.227  11.550  0.9214 -0.2090 -0.8163
 9463TIP3    H149880   0.489   5.190  11.520  0.2555  1.2921 -0.8366
 9463TIP3    H249881   0.588   5.301  11.492  0.0379  2.2151  1.9543
 9464TIP3   OH249882   3.391   4.711  14.345 -0.2886  0.3848  0.0620
 9464TIP3    H149883   3.390   4.788  14.402 -3.0307  0.5678 -0.1686
 9464TIP3    H249884   3.484   4.690  14.334  0.3895  2.0678  2.2582
 9465TIP3   OH249885   2.513   4.785   3.799  0.1746  0.0589 -0.1109
 9465TIP3    H149886   2.453   4.846   3.756 -1.0816 -0.2279  1.1684
 9465TIP3    H249887   2.577   4.762   3.732  0.5670  2.6410 -0.6774
 9466TIP3   OH249888   3.466   1.632  14.871  0.5079  0.2184  0.1434
 9466TIP3    H149889   3.460   1.672  14.785 -0.7699  0.8605  0.5217
 9466TIP3    H249890   3.479   1.539  14.854  1.3104  0.4861 -0.7376
 9467TIP3   OH249891   1.412   0.733   3.566 -0.5073  0.4926  0.0382
 9467TIP3    H149892   1.360   0.708   3.489 -1.1055  2.2172 -0.1331
 9467TIP3    H249893   1.419   0.653   3.617  0.9407 -1.0117 -2.4125
 9468TIP3   OH249894   3.083   5.509  13.342  0.1077 -0.1251  0.0855
 9468TIP3    H149895   3.003   5.457  13.335  1.3129 -2.1759  1.0379
 9468TIP3    H249896   3.141   5.473  13.275  0.4854  0.9104 -0.1573
 9469TIP3   OH249897   1.442   2.150  16.976 -0.7616  0.5383 -0.3783
 9469TIP3    H149898   1.459   2.191  17.061 -0.3554  1.5259 -0.9266
 9469TIP3    H249899   1.499   2.197  16.915 -1.0262 -0.1849 -1.1932
 9470TIP3   OH249900   6.204   2.322   3.652 -0.1721 -0.4890  0.3394
 9470TIP3    H149901   6.253   2.393   3.694  0.2531  0.3386 -1.4936
 9470TIP3    H249902   6.117   2.327   3.690  0.0895  0.4893  0.8378
 9471TIP3   OH249903   0.099   1.141  13.901  0.2727  0.4026 -0.2360
 9471TIP3    H149904   0.094   1.168  13.993  0.2951 -2.8733  0.7730
 9471TIP3    H249905   0.010   1.154  13.868  0.7859  3.8615 -0.5070
 9472TIP3   OH249906   3.097   6.276  12.944 -0.6151 -0.3877 -0.0951
 9472TIP3    H149907   3.056   6.338  13.004 -2.5116 -1.9586  0.2705
 9472TIP3    H249908   3.054   6.293  12.860  1.3505  1.1456 -0.8308
 9473TIP3   OH249909   2.104   0.279   3.724 -0.0960  0.2167 -0.4017
 9473TIP3    H149910   2.017   0.240   3.736 -0.3702  0.3248 -1.8663
 9473TIP3    H249911   2.112   0.342   3.795 -0.6434 -0.7941  0.5661
 9474TIP3   OH249912   6.556   0.585  14.893  0.2698  0.1468 -0.2951
 9474TIP3    H149913   6.525   0.517  14.833  0.3091  0.0683 -0.2263
 9474TIP3    H249914   6.481   0.602  14.951  0.9473 -1.3801  1.0705
 9475TIP3   OH249915   5.631   4.545  12.888  0.9748  0.2857 -0.5077
 9475TIP3    H149916   5.662   4.602  12.818  3.1527 -0.4962 -0.2334
 9475TIP3    H249917   5.636   4.457  12.850  0.5752  0.0168  0.0694
 9476TIP3   OH249918   3.273   0.440  12.303  0.3736 -0.6977  0.2178
 9476TIP3    H149919   3.305   0.439  12.393 -0.6915 -3.4908  0.6270
 9476TIP3    H249920   3.178   0.442  12.310  0.2702 -1.3343 -0.8131
 9477TIP3   OH249921   1.625   0.200  15.095 -0.4645  0.2502  0.3647
 9477TIP3    H149922   1.666   0.215  15.009 -0.4667 -0.9443  0.1348
 9477TIP3    H249923   1.612   0.287  15.131  0.4417  0.7328 -0.4348
 9478TIP3   OH249924   4.396   4.443  12.044 -0.0827  0.0122 -0.2699
 9478TIP3    H149925   4.407   4.438  11.949  1.4236  1.4939 -0.1984
 9478TIP3    H249926   4.358   4.358  12.068 -1.0077 -0.1638 -2.2527
 9479TIP3   OH249927   1.040   3.018   0.092 -0.2024  0.1668  0.2809
 9479TIP3    H149928   1.055   3.011  -0.002  1.7680  1.2112  0.5024
 9479TIP3    H249929   1.105   3.081   0.122 -0.7951 -0.1837  2.3624
 9480TIP3   OH249930   2.814   6.324  16.326 -0.5016 -0.1340  0.2816
 9480TIP3    H149931   2.798   6.364  16.412 -0.5108 -0.8638  0.6226
 9480TIP3    H249932   2.728   6.292  16.298 -0.7003  1.0815 -0.4993
 9481TIP3   OH249933   3.700   6.789  12.040 -0.5111  0.3169  0.3237
 9481TIP3    H149934   3.657   6.711  12.077  0.8508 -0.7607 -0.3095
 9481TIP3    H249935   3.760   6.817  12.109 -0.3420  0.2697  0.1938
 9482TIP3   OH249936   2.386   6.394   6.031  0.0363 -0.5404 -0.0475
 9482TIP3    H149937   2.390   6.311   5.983 -0.9576 -0.0302 -1.0521
 9482TIP3    H249938   2.409   6.372   6.121  1.7295 -1.5631 -0.7260
 9483TIP3   OH249939   5.561   5.541   2.581  0.5309 -0.1138 -0.0672
 9483TIP3    H149940   5.635   5.596   2.607  0.5678  0.1439 -0.6990
 9483TIP3    H249941   5.493   5.560   2.645  1.0005 -0.3280  0.5012
 9484TIP3   OH249942   4.255   1.442  12.478 -0.0074 -0.2210  0.1330
 9484TIP3    H149943   4.263   1.349  12.456  1.8187  0.2268 -1.2817
 9484TIP3    H249944   4.242   1.486  12.393 -2.7161  0.6564  0.9712
 9485TIP3   OH249945   6.423   3.375   5.781  0.3283  0.4038 -0.5050
 9485TIP3    H149946   6.361   3.351   5.850  0.9212  1.2166  0.3237
 9485TIP3    H249947   6.507   3.342   5.812  0.5311  0.4340 -1.0271
 9486TIP3   OH249948   6.307   3.114  13.789 -0.2155 -0.1015  0.2320
 9486TIP3    H149949   6.313   3.053  13.716  1.2869 -1.1900  1.2369
 9486TIP3    H249950   6.242   3.075  13.848  0.8558 -0.8446  0.9461
 9487TIP3   OH249951   0.182   0.345   4.904  0.0349  1.1135  0.2009
 9487TIP3    H149952   0.204   0.417   4.962 -0.7913  0.2495  1.6145
 9487TIP3    H249953   0.164   0.271   4.962 -0.5325  0.1508 -1.1544
 9488TIP3   OH249954   5.314   5.330   0.426 -0.0996  0.8532  0.1272
 9488TIP3    H149955   5.313   5.320   0.521  1.8624  0.9832  0.1916
 9488TIP3    H249956   5.329   5.424   0.412  0.0459  0.7693 -0.2945
 9489TIP3   OH249957   1.206   2.822  15.066 -0.2342  0.2723  0.6478
 9489TIP3    H149958   1.119   2.863  15.068  0.1409  1.1395 -0.2212
 9489TIP3    H249959   1.237   2.837  14.977  1.5983  1.6051  1.4954
 9490TIP3   OH249960   1.216   6.751   0.117 -0.0676 -0.1790  0.1254
 9490TIP3    H149961   1.210   6.656   0.110  0.8828 -0.2825  0.6387
 9490TIP3    H249962   1.129   6.783   0.093 -0.1845 -1.1347 -0.7344
 9491TIP3   OH249963   4.205   1.656   0.670 -0.7442 -0.1155  0.1222
 9491TIP3    H149964   4.229   1.566   0.689 -0.3731 -0.4753 -1.9554
 9491TIP3    H249965   4.129   1.649   0.612 -0.8781  0.9141  0.1652
 9492TIP3   OH249966   6.630   5.664   4.416 -0.3183  0.5023  0.0486
 9492TIP3    H149967   6.546   5.632   4.448  0.5038 -0.8790  0.8865
 9492TIP3    H249968   6.667   5.713   4.489  0.9807 -1.5436  0.7928
 9493TIP3   OH249969   3.401   4.959   1.032  0.1266 -0.1919 -0.1141
 9493TIP3    H149970   3.434   4.879   1.072  2.2731  0.9642  0.5173
 9493TIP3    H249971   3.306   4.947   1.029  0.3071 -2.1784  1.2471
 9494TIP3   OH249972   5.279   0.764  13.760  0.2716 -0.5322 -0.6396
 9494TIP3    H149973   5.234   0.730  13.838 -0.8526 -0.5788 -1.2921
 9494TIP3    H249974   5.311   0.850  13.787  1.2918 -1.2210  0.3696
 9495TIP3   OH249975   2.185   4.404  12.998 -0.0623 -0.2627 -0.2303
 9495TIP3    H149976   2.210   4.402  13.090 -0.1816  1.0288 -0.1510
 9495TIP3    H249977   2.177   4.498  12.978 -0.0833 -0.5389 -1.5370
 9496TIP3   OH249978   0.622   3.978  11.994  0.2278 -0.0095 -0.2290
 9496TIP3    H149979   0.667   4.051  12.037  1.0772 -0.4610 -0.3331
 9496TIP3    H249980   0.659   3.978  11.905  1.0398 -1.2540  0.1042
 9497TIP3   OH249981   2.683   1.617  17.187 -0.3094 -0.2372 -0.3503
 9497TIP3    H149982   2.741   1.613  17.110  0.1655  1.7620 -0.1052
 9497TIP3    H249983   2.597   1.597  17.152  0.0484 -0.2379 -1.2593
 9498TIP3   OH249984   4.971   1.954   4.384  0.5125  0.6213  0.2083
 9498TIP3    H149985   5.033   1.922   4.449 -0.8874  0.1516  1.3470
 9498TIP3    H249986   4.952   1.877   4.329  1.6680  1.0090 -0.7502
 9499TIP3   OH249987   3.711   2.210   0.294  0.3009  0.4295  0.4940
 9499TIP3    H149988   3.748   2.141   0.348 -0.1345  0.1116  0.3843
 9499TIP3    H249989   3.704   2.285   0.354  0.0507  0.1524  0.8162
 9500TIP3   OH249990   4.577   2.378   1.126 -0.0716 -0.2561 -0.2212
 9500TIP3    H149991   4.486   2.388   1.155 -0.3576 -0.2741 -1.0835
 9500TIP3    H249992   4.623   2.343   1.202 -0.4725  1.1971  0.7148
 9501TIP3   OH249993   6.596   1.509  13.847  0.5097  0.0454  0.1313
 9501TIP3    H149994   6.586   1.432  13.903 -0.0685  1.7120  2.3861
 9501TIP3    H249995   6.687   1.536  13.859  0.1033  1.0254  1.1579
 9502TIP3   OH249996   0.805   3.288   1.139  0.5422  0.2243  0.5654
 9502TIP3    H149997   0.802   3.211   1.196  0.4758  1.0191  1.6548
 9502TIP3    H249998   0.894   3.323   1.149  0.4308  0.5539  0.4273
 9503TIP3   OH249999   1.502   6.593   1.050 -0.2396  0.3735  0.2580
 9503TIP3    H150000   1.558   6.587   0.972  0.7692  1.7822  0.8455
 9503TIP3    H250001   1.504   6.505   1.087  1.7499  0.4350  0.3587
 9504TIP3   OH250002   4.630   3.905  13.705 -0.2249 -0.1708  0.1251
 9504TIP3    H150003   4.599   3.835  13.763 -0.0063  1.1602  1.9036
 9504TIP3    H250004   4.612   3.986  13.754 -1.0221  1.0671 -2.1346
 9505TIP3   OH250005   1.148   5.381  13.518 -1.3020  0.2229 -0.6706
 9505TIP3    H150006   1.108   5.438  13.583 -1.0557 -1.0800  0.6625
 9505TIP3    H250007   1.242   5.400  13.524 -1.4934  1.7918 -2.3320
 9506TIP3   OH250008   3.769   3.260  13.322  0.3450  0.4122 -0.2057
 9506TIP3    H150009   3.721   3.338  13.353 -0.5072  0.5637 -1.8424
 9506TIP3    H250010   3.702   3.191  13.318  1.4146 -0.8739  2.7511
 9507TIP3   OH250011   2.015   2.340  12.532  0.1095 -0.3838  0.7070
 9507TIP3    H150012   2.025   2.396  12.455  0.3583 -0.6384  0.5554
 9507TIP3    H250013   2.059   2.389  12.602  2.0971 -1.3103  0.1358
 9508TIP3   OH250014   4.085   2.090  17.250  0.1488  0.4644  0.4290
 9508TIP3    H150015   4.025   2.154  17.287 -0.8626 -0.5375  0.5532
 9508TIP3    H250016   4.055   2.077  17.160  0.9013  0.8281  0.1215
 9509TIP3   OH250017   1.763   0.416  11.915 -0.4258  0.2598 -0.3380
 9509TIP3    H150018   1.735   0.500  11.950 -1.0969 -0.4977  0.9939
 9509TIP3    H250019   1.682   0.372  11.891 -0.1247 -0.3187 -0.3057
 9510TIP3   OH250020   6.564   6.549  14.651  0.0679 -0.8659  0.8991
 9510TIP3    H150021   6.609   6.598  14.582 -0.7371  0.4318  1.2766
 9510TIP3    H250022   6.612   6.466  14.657  0.7004 -0.6263 -0.5952
 9511TIP3   OH250023   4.517   4.992   6.380 -0.6622  0.0412  0.3208
 9511TIP3    H150024   4.513   4.997   6.284 -2.5506 -1.2241  0.3053
 9511TIP3    H250025   4.610   4.985   6.400 -0.2829 -0.2119 -1.4415
 9512TIP3   OH250026   1.644   2.491   3.847 -0.2186  0.2958  0.0984
 9512TIP3    H150027   1.626   2.398   3.857  0.4739  0.2668  1.2397
 9512TIP3    H250028   1.559   2.531   3.828 -0.3832 -0.6674 -1.1789
 9513TIP3   OH250029   5.640   3.615   3.716  0.3173  0.3636  0.2509
 9513TIP3    H150030   5.731   3.634   3.691  0.6880 -0.6577  0.7731
 9513TIP3    H250031   5.620   3.534   3.669 -0.6285  1.0546 -0.5545
 9514TIP3   OH250032   4.740   6.640  10.657 -0.1491  1.1093 -0.1528
 9514TIP3    H150033   4.703   6.699  10.591 -0.7474  0.7611 -0.1313
 9514TIP3    H250034   4.666   6.589  10.688  0.2307  0.8831  0.3945
 9515TIP3   OH250035   4.582   1.725   1.075  0.1690 -0.8004  0.5640
 9515TIP3    H150036   4.678   1.727   1.076  0.1544  0.0894  0.5026
 9515TIP3    H250037   4.560   1.687   0.991  0.4695 -0.9846  0.5660
 9516TIP3   OH250038   1.191   4.200   0.378 -0.3341 -0.1049  0.7624
 9516TIP3    H150039   1.260   4.252   0.337 -1.0824  0.8416  0.7048
 9516TIP3    H250040   1.127   4.186   0.308  0.3812 -2.0427  0.4645
 9517TIP3   OH250041   1.835   1.781  12.562 -0.2238  0.1653  0.0674
 9517TIP3    H150042   1.881   1.724  12.624  0.4120  0.3437 -0.2364
 9517TIP3    H250043   1.886   1.775  12.481 -0.6626  0.4640 -0.2315
 9518TIP3   OH250044   2.104   1.869   4.591  0.2366 -0.3892 -0.1516
 9518TIP3    H150045   2.121   1.961   4.612 -0.9006 -0.6996  2.2249
 9518TIP3    H250046   2.176   1.821   4.633 -1.3777 -0.9062  2.0971
 9519TIP3   OH250047   6.739   1.519  12.700 -0.2039 -0.3431  0.2969
 9519TIP3    H150048   6.817   1.567  12.729  1.6407 -2.8462 -0.2988
 9519TIP3    H250049   6.721   1.552  12.613 -1.3393  1.9935  1.3741
 9520TIP3   OH250050   5.334   3.366  15.768  0.3694 -0.4806 -0.2516
 9520TIP3    H150051   5.369   3.326  15.688  0.4405  2.3817 -1.6877
 9520TIP3    H250052   5.241   3.380  15.749  0.7892  1.9699 -0.5705
 9521TIP3   OH250053   4.432   2.229  13.344  0.1663  0.2832  0.3788
 9521TIP3    H150054   4.341   2.199  13.338 -0.0444  0.8256  0.8816
 9521TIP3    H250055   4.454   2.256  13.254 -0.5043  1.1288  0.4682
 9522TIP3   OH250056   4.648   3.724   1.177 -0.2571 -0.1765  0.3154
 9522TIP3    H150057   4.582   3.696   1.241 -0.2130 -0.9179  0.0469
 9522TIP3    H250058   4.642   3.658   1.107  0.7942 -0.2592  0.3028
 9523TIP3   OH250059   1.151   0.939  14.089  0.4589 -0.7194  0.0415
 9523TIP3    H150060   1.198   1.012  14.130 -1.1998  0.1637  0.4058
 9523TIP3    H250061   1.072   0.929  14.142 -0.8627 -0.7000 -1.8976
 9524TIP3   OH250062   5.190   0.086   1.690  0.5443  0.0541  0.5845
 9524TIP3    H150063   5.141   0.159   1.730 -0.5891  0.2845 -1.1666
 9524TIP3    H250064   5.167   0.010   1.744 -1.8000  0.1499 -0.2070
 9525TIP3   OH250065   6.808   1.688   0.896  0.0773 -0.7661 -0.2998
 9525TIP3    H150066   6.882   1.626   0.900  0.3213 -0.4661 -0.1512
 9525TIP3    H250067   6.807   1.719   0.806 -0.3549 -1.3617 -0.5050
 9526TIP3   OH250068   0.076   5.254  17.165  0.0922 -0.3310 -0.7165
 9526TIP3    H150069   0.141   5.316  17.131 -1.2850  0.8892 -1.1454
 9526TIP3    H250070   0.068   5.275  17.258  1.0246 -1.1444 -0.4391
 9527TIP3   OH250071   3.009   2.906  14.927 -0.4635 -0.1460 -0.4138
 9527TIP3    H150072   3.029   2.963  15.002 -0.0198 -1.7619  0.7083
 9527TIP3    H250073   3.095   2.883  14.891 -0.5306 -1.9641  0.5489
 9528TIP3   OH250074   5.090   2.737   0.041 -0.3287  0.5618  0.8843
 9528TIP3    H150075   5.185   2.728   0.049 -0.3875 -0.5011  0.5111
 9528TIP3    H250076   5.069   2.819   0.086  0.8744  1.2688  0.1675
 9529TIP3   OH250077   2.162   5.837  15.642  0.3546  0.0032  0.2461
 9529TIP3    H150078   2.170   5.930  15.664 -1.4079  0.3890 -0.5929
 9529TIP3    H250079   2.142   5.837  15.548  0.9229 -1.2650  0.1148
 9530TIP3   OH250080   2.350   0.510  17.119 -0.4679 -0.6551  0.3160
 9530TIP3    H150081   2.356   0.575  17.189  1.3478  0.3292 -0.7148
 9530TIP3    H250082   2.287   0.548  17.057 -0.6122 -0.6244  0.4820
 9531TIP3   OH250083   3.192   0.339   2.932 -0.5966  0.3990  0.4540
 9531TIP3    H150084   3.175   0.397   3.006  0.4209  0.9953  0.2176
 9531TIP3    H250085   3.105   0.307   2.907 -0.8611 -0.6452  2.5777
 9532TIP3   OH250086   2.897   6.321  13.342 -0.2831 -0.0809 -0.3097
 9532TIP3    H150087   2.890   6.342  13.248 -1.2195  1.8560  0.1614
 9532TIP3    H250088   2.808   6.297  13.367  0.0929 -1.2103 -0.0496
 9533TIP3   OH250089   3.082   2.059  14.051  0.0357 -0.0793 -0.0267
 9533TIP3    H150090   3.132   1.990  14.007  1.0016  1.3396 -1.1949
 9533TIP3    H250091   3.021   2.090  13.984 -1.2269 -0.5902  0.8578
 9534TIP3   OH250092   1.606   6.518  12.430  0.4967 -0.1200 -0.3740
 9534TIP3    H150093   1.690   6.539  12.389  0.7224  2.1066  1.1365
 9534TIP3    H250094   1.555   6.598  12.423 -0.9750 -0.9988  0.0462
 9535TIP3   OH250095   5.965   5.430  14.715 -0.2071  0.4605 -0.0892
 9535TIP3    H150096   6.038   5.472  14.761 -0.5608  1.1457 -0.1580
 9535TIP3    H250097   6.001   5.346  14.686  1.0566  1.4551 -1.4927
 9536TIP3   OH250098   3.885   1.830   1.087  0.5543 -0.0816  0.6147
 9536TIP3    H150099   3.978   1.811   1.077  0.8500  1.9751 -0.7710
 9536TIP3    H250100   3.881   1.924   1.104 -1.1121 -0.6013  3.3471
 9537TIP3   OH250101   2.304   4.295  17.255 -0.3567 -0.1573 -0.3148
 9537TIP3    H150102   2.284   4.388  17.266 -1.4635 -0.4556  0.2835
 9537TIP3    H250103   2.390   4.294  17.214 -0.1807  1.1291 -0.0065
 9538TIP3   OH250104   6.277   1.642   4.942  0.4259  0.0352  0.1140
 9538TIP3    H150105   6.351   1.689   4.903 -1.4160  3.0925  0.1135
 9538TIP3    H250106   6.207   1.650   4.877 -0.5760 -0.8692  1.0710
 9539TIP3   OH250107   3.516   0.036   2.433  0.4826 -0.7138  0.2762
 9539TIP3    H150108   3.490  -0.056   2.426  1.7804 -1.0903  0.2693
 9539TIP3    H250109   3.591   0.044   2.374  0.1373  0.4422 -0.0137
 9540TIP3   OH250110   1.812   6.663   5.494 -0.5264  0.4738  0.6850
 9540TIP3    H150111   1.758   6.585   5.508 -0.1766  0.0843 -0.0918
 9540TIP3    H250112   1.894   6.643   5.539 -0.4172  0.3714  0.4404
 9541TIP3   OH250113   4.563   0.436   4.750  0.3053 -0.4157 -0.2467
 9541TIP3    H150114   4.501   0.414   4.680 -0.1689 -0.5948  0.2236
 9541TIP3    H250115   4.597   0.523   4.726 -0.0711 -0.3488 -0.5438
 9542TIP3   OH250116   5.268   2.495   3.838 -0.3481  0.2376  0.4803
 9542TIP3    H150117   5.284   2.407   3.806  2.2294  1.0433 -0.6047
 9542TIP3    H250118   5.321   2.502   3.917  1.6253  1.6411 -0.9151
 9543TIP3   OH250119   3.390   1.209  12.380  0.6041  0.0565 -0.1371
 9543TIP3    H150120   3.335   1.165  12.445  1.3075 -1.6134 -0.6452
 9543TIP3    H250121   3.377   1.158  12.300  1.8811  0.4263 -0.5869
 9544TIP3   OH250122   4.364   0.068   3.555 -0.0206 -0.1205  0.0922
 9544TIP3    H150123   4.305   0.143   3.545 -0.5648 -0.3991  1.1650
 9544TIP3    H250124   4.307  -0.004   3.581  0.3417 -1.2100 -2.0773
 9545TIP3   OH250125   3.719   2.096   0.668  0.6301 -0.1132  0.2397
 9545TIP3    H150126   3.799   2.138   0.700  0.6881  0.5458 -0.7456
 9545TIP3    H250127   3.680   2.056   0.746  0.7186  1.5278  1.1501
 9546TIP3   OH250128   4.718   0.219   0.354 -0.7436 -0.5556 -0.0885
 9546TIP3    H150129   4.792   0.239   0.411 -1.8178  0.6906  0.8936
 9546TIP3    H250130   4.645   0.268   0.391 -1.6331 -0.2896 -2.1394
 9547TIP3   OH250131   3.455   2.117  14.915 -0.5674 -0.0636  0.2839
 9547TIP3    H150132   3.421   2.200  14.951 -1.2657 -0.0012 -0.4969
 9547TIP3    H250133   3.403   2.049  14.959  0.9773 -0.1667  1.9784
 9548TIP3   OH250134   2.009   3.740   3.654  0.2387  0.1698  0.5976
 9548TIP3    H150135   2.082   3.803   3.658  0.4073 -0.0379  0.8217
 9548TIP3    H250136   2.012   3.695   3.738 -1.0720  1.1762  1.1937
 9549TIP3   OH250137   4.821   4.782  15.866 -0.6808 -0.2403  0.2785
 9549TIP3    H150138   4.834   4.689  15.883 -1.1412 -0.1964  0.8796
 9549TIP3    H250139   4.909   4.821  15.872  0.1393 -1.2115 -3.6906
 9550TIP3   OH250140   6.338   2.936   0.625  0.3787  0.0815  0.0111
 9550TIP3    H150141   6.361   3.003   0.560 -0.4085 -1.0086 -1.4065
 9550TIP3    H250142   6.420   2.889   0.641  0.4174 -0.1123 -0.7391
 9551TIP3   OH250143   1.487   3.552   1.793  0.1697  0.1165  0.5434
 9551TIP3    H150144   1.462   3.483   1.732  2.3047  0.6989 -1.0779
 9551TIP3    H250145   1.445   3.631   1.758 -1.7863 -0.2377  2.0567
 9552TIP3   OH250146   5.108   5.596   2.527  0.4077  0.0891  0.1676
 9552TIP3    H150147   5.191   5.599   2.480  0.2406 -1.9971 -0.3163
 9552TIP3    H250148   5.128   5.553   2.610 -0.5755 -2.7665 -0.9738
 9553TIP3   OH250149   1.494   4.327  15.181 -0.1920  0.3113 -0.1112
 9553TIP3    H150150   1.571   4.383  15.171 -0.2192  0.7066  1.8257
 9553TIP3    H250151   1.504   4.288  15.268 -1.9562  0.0191 -0.0316
 9554TIP3   OH250152   2.245   6.584   4.564  0.0954 -0.1671  0.2868
 9554TIP3    H150153   2.319   6.576   4.504 -1.1192 -3.9979 -0.7803
 9554TIP3    H250154   2.177   6.629   4.513  0.2475 -0.3211 -0.0528
 9555TIP3   OH250155   0.139   3.105  16.354 -0.3826  0.2845 -0.6256
 9555TIP3    H150156   0.193   3.174  16.314 -1.8142  0.5935 -2.0958
 9555TIP3    H250157   0.064   3.097  16.295 -1.4678 -0.8083  0.8775
 9556TIP3   OH250158   4.411   0.545   5.563 -0.1860  0.1063 -0.5860
 9556TIP3    H150159   4.354   0.622   5.559 -1.8125 -1.1491 -2.1458
 9556TIP3    H250160   4.365   0.477   5.514 -1.2053 -3.4443  4.7462
 9557TIP3   OH250161   5.733   0.548  11.500  0.6063 -0.4677  0.3224
 9557TIP3    H150162   5.788   0.569  11.575 -1.8518  2.0198  1.5375
 9557TIP3    H250163   5.787   0.567  11.424  2.4396 -1.0456  1.4598
 9558TIP3   OH250164   6.012   1.943   4.913  0.3785 -0.0344  0.3381
 9558TIP3    H150165   6.045   1.966   4.826 -0.0994 -0.5649  0.0135
 9558TIP3    H250166   6.089   1.951   4.970  0.8479 -0.2997 -0.2416
 9559TIP3   OH250167   3.853   4.392   5.201  0.1890  0.4718  0.4265
 9559TIP3    H150168   3.856   4.352   5.114 -0.1560  2.5821 -0.5806
 9559TIP3    H250169   3.891   4.479   5.188 -1.3220  1.3911  2.0684
 9560TIP3   OH250170   6.154   2.285   4.255 -0.4103  0.4244  0.0283
 9560TIP3    H150171   6.226   2.262   4.196 -0.3516  0.6547  0.0106
 9560TIP3    H250172   6.161   2.222   4.327 -1.4269 -0.8432 -0.9737
 9561TIP3   OH250173   2.706   3.728  16.797  0.6033  0.4606 -0.1775
 9561TIP3    H150174   2.690   3.817  16.765  0.6127  0.8588  0.8959
 9561TIP3    H250175   2.647   3.718  16.871  1.1807 -0.1320  0.2132
 9562TIP3   OH250176   6.293   6.128  10.722 -0.0809 -0.1315 -0.1930
 9562TIP3    H150177   6.212   6.080  10.705 -0.4571  0.0399  1.0752
 9562TIP3    H250178   6.274   6.218  10.696 -0.6332  0.1182  1.0481
 9563TIP3   OH250179   1.289   1.780   6.342  0.4885  0.5258  0.3270
 9563TIP3    H150180   1.275   1.729   6.422 -0.0962  0.6326  0.2986
 9563TIP3    H250181   1.368   1.742   6.303 -0.0781 -0.5350  0.1791
 9564TIP3   OH250182   2.512   4.219   4.640 -0.0224 -0.0930  0.0189
 9564TIP3    H150183   2.603   4.222   4.610  0.2342  0.5342  0.8690
 9564TIP3    H250184   2.461   4.214   4.559  0.7150  0.6127 -0.4978
 9565TIP3   OH250185   2.100   6.690   6.782  0.4973  0.0941 -0.1951
 9565TIP3    H150186   2.142   6.608   6.753  0.0908 -0.0219 -0.4676
 9565TIP3    H250187   2.011   6.664   6.805  0.6291  0.3051  0.5729
 9566TIP3   OH250188   3.888   5.117  16.899  0.8296 -0.1814  0.2354
 9566TIP3    H150189   3.899   5.183  16.968 -0.0995  0.1067  0.1161
 9566TIP3    H250190   3.914   5.035  16.940 -2.0772 -0.4142  1.7307
 9567TIP3   OH250191   2.516   3.265   2.568 -0.0072  0.3471  0.4714
 9567TIP3    H150192   2.497   3.343   2.514  0.7739  0.0626 -0.2233
 9567TIP3    H250193   2.590   3.223   2.524 -0.0726 -0.4953  1.1570
 9568TIP3   OH250194   5.483   4.499  17.109 -0.5351 -0.0287 -0.1364
 9568TIP3    H150195   5.453   4.584  17.076 -2.0345 -0.7636 -0.7103
 9568TIP3    H250196   5.437   4.434  17.056  0.1944 -1.2172  0.6393
 9569TIP3   OH250197   1.603   5.737  17.229  0.1387  0.1493  0.5325
 9569TIP3    H150198   1.685   5.722  17.181  0.0708 -0.1765  0.5132
 9569TIP3    H250199   1.623   5.809  17.289  0.7276 -0.5764  1.2149
 9570TIP3   OH250200   1.801   4.594  14.095  0.0144 -0.3053  0.0422
 9570TIP3    H150201   1.838   4.508  14.110 -1.7783 -1.0421  0.3771
 9570TIP3    H250202   1.752   4.614  14.174 -1.7940 -0.1732 -1.0689
 9571TIP3   OH250203   0.951   6.500  14.413 -0.1726  0.2147  0.3010
 9571TIP3    H150204   1.032   6.498  14.361 -0.1027  0.8542  0.3774
 9571TIP3    H250205   0.913   6.413  14.402 -0.4530  0.5147 -1.2965
 9572TIP3   OH250206   2.985   1.042  13.835  0.0117 -0.3193 -0.1249
 9572TIP3    H150207   2.952   1.132  13.825 -2.1263 -1.0097  0.3052
 9572TIP3    H250208   2.963   0.999  13.753  1.6853 -0.2587 -0.6051
 9573TIP3   OH250209   6.095   3.901   4.476 -0.3613  0.6166  0.3468
 9573TIP3    H150210   6.171   3.914   4.419 -1.4768  0.6884 -1.1370
 9573TIP3    H250211   6.105   3.968   4.544  2.9195 -1.7735  2.3777
 9574TIP3   OH250212   4.939   5.908   3.429  0.6486  0.0481 -0.0248
 9574TIP3    H150213   4.909   5.818   3.446 -0.8565  0.0261 -2.5574
 9574TIP3    H250214   4.940   5.949   3.515 -1.3621 -1.6042  0.8372
 9575TIP3   OH250215   0.339   1.951   3.990 -0.1280  0.6290  0.0798
 9575TIP3    H150216   0.287   1.930   4.067 -0.9673 -1.1826 -0.9436
 9575TIP3    H250217   0.317   2.042   3.970 -2.6484  0.0204 -0.1142
 9576TIP3   OH250218   5.329   4.197   3.670  0.2669 -0.0370 -0.3302
 9576TIP3    H150219   5.270   4.265   3.636 -0.7684 -0.0070  1.5060
 9576TIP3    H250220   5.401   4.246   3.710 -0.2741 -0.0165  0.6286
 9577TIP3   OH250221   2.917   2.694  15.292 -0.6778  0.0778  0.3570
 9577TIP3    H150222   2.862   2.644  15.232 -2.5255 -0.8190  2.7245
 9577TIP3    H250223   3.003   2.695  15.250 -1.2699 -2.7564 -1.0665
 9578TIP3   OH250224   6.223   3.813   1.757 -0.7448 -0.2807  0.7377
 9578TIP3    H150225   6.157   3.753   1.792 -1.2686 -0.6143 -0.7972
 9578TIP3    H250226   6.185   3.900   1.769 -1.7882 -0.5136 -0.7938
 9579TIP3   OH250227   0.962   1.156  13.441  0.0355 -0.0701  0.0552
 9579TIP3    H150228   0.905   1.197  13.505 -0.4231  0.1426 -0.4921
 9579TIP3    H250229   0.935   1.064  13.440 -1.6700  0.4199 -1.6705
 9580TIP3   OH250230   3.964   4.841  11.730  0.1874 -0.5070 -0.1344
 9580TIP3    H150231   4.042   4.859  11.677  0.6853  1.2251  1.1389
 9580TIP3    H250232   3.892   4.872  11.676  0.6072  0.2709 -0.2638
 9581TIP3   OH250233   2.976   6.639   0.609 -0.3376 -0.6975 -0.4651
 9581TIP3    H150234   2.931   6.714   0.648  1.0913  0.0901 -0.2713
 9581TIP3    H250235   3.002   6.586   0.684  0.2399 -0.4535 -0.4908
 9582TIP3   OH250236   0.165   4.359   2.264  0.2110  0.0609  0.1915
 9582TIP3    H150237   0.119   4.441   2.281 -3.5333 -1.9163  0.1678
 9582TIP3    H250238   0.150   4.342   2.171  1.7696 -0.2052 -0.0280
 9583TIP3   OH250239   4.034   3.867   4.327  0.1112  0.7110 -0.0095
 9583TIP3    H150240   4.015   3.899   4.415 -1.9997  1.4904 -0.7281
 9583TIP3    H250241   3.964   3.805   4.308  1.6990 -0.9892 -0.3668
 9584TIP3   OH250242   0.315   6.031   0.137  0.0748  0.2771 -0.7179
 9584TIP3    H150243   0.372   6.010   0.211 -1.2022  1.1352  0.5257
 9584TIP3    H250244   0.226   6.016   0.170 -0.5173  0.7140 -2.0636
 9585TIP3   OH250245   2.852   1.164   5.467 -0.7331 -0.1633 -0.4933
 9585TIP3    H150246   2.870   1.073   5.448 -3.3422  0.2260 -5.7483
 9585TIP3    H250247   2.756   1.170   5.467 -0.6178  2.5492 -0.2451
 9586TIP3   OH250248   4.965   6.325  16.161  0.0573  0.5543  0.2727
 9586TIP3    H150249   4.872   6.319  16.142  0.1384 -0.0292  0.0385
 9586TIP3    H250250   4.992   6.410  16.125  0.2710 -0.6466 -2.5161
 9587TIP3   OH250251   5.598   2.787  16.236 -0.1626  0.0948  0.7986
 9587TIP3    H150252   5.533   2.851  16.207 -2.0579 -1.9281  0.4501
 9587TIP3    H250253   5.556   2.702  16.222  2.7268 -1.2944  0.2107
 9588TIP3   OH250254   5.585   1.829   5.288 -0.0515  0.1839  0.1475
 9588TIP3    H150255   5.663   1.876   5.260  0.7734 -1.1492  0.1306
 9588TIP3    H250256   5.582   1.842   5.383 -0.5280  1.2937 -0.0205
 9589TIP3   OH250257   4.643   1.952   1.973  0.0119  0.1183  0.0090
 9589TIP3    H150258   4.664   1.935   2.065 -0.7631 -0.1327  0.1468
 9589TIP3    H250259   4.555   1.917   1.962  0.2495 -0.2016 -0.9299
 9590TIP3   OH250260   0.334   5.023  17.045  0.2519 -0.3376  0.5364
 9590TIP3    H150261   0.343   4.931  17.024  0.3621 -0.4738  1.1737
 9590TIP3    H250262   0.329   5.026  17.140 -0.6075  0.2405  0.4878
 9591TIP3   OH250263   3.244   5.960   3.206 -0.0434 -0.2577 -0.0156
 9591TIP3    H150264   3.199   5.989   3.285 -0.7422 -0.3300 -0.3863
 9591TIP3    H250265   3.185   5.983   3.134 -1.2818 -3.8900 -0.2374
 9592TIP3   OH250266   1.310   6.482  16.916  0.1896  0.1569 -0.0816
 9592TIP3    H150267   1.390   6.526  16.888 -0.2988  2.8939  2.5973
 9592TIP3    H250268   1.239   6.541  16.889 -0.9573 -2.0382 -2.0720
 9593TIP3   OH250269   2.582   4.912  16.227  0.3280 -0.7605  0.3080
 9593TIP3    H150270   2.527   4.859  16.169  1.2225 -1.3504 -0.0154
 9593TIP3    H250271   2.578   4.868  16.311 -1.4084  0.3976  0.8627
 9594TIP3   OH250272   2.971   3.473   3.201 -0.2736  0.3488  0.3573
 9594TIP3    H150273   3.047   3.494   3.145 -0.0517 -0.7479  0.2465
 9594TIP3    H250274   3.006   3.413   3.267 -1.2961 -1.0855 -0.3945
 9595TIP3   OH250275   2.316   0.295  13.322 -0.0748  0.2747 -0.0674
 9595TIP3    H150276   2.361   0.362  13.374 -0.9129 -2.3602  4.3235
 9595TIP3    H250277   2.224   0.318  13.328 -0.2873 -0.7240  0.7720
 9596TIP3   OH250278   1.895   6.263   2.190 -0.8174  0.1688 -0.2761
 9596TIP3    H150279   1.873   6.204   2.262  0.5793 -0.4072 -0.3238
 9596TIP3    H250280   1.930   6.206   2.121  0.7893  1.0707 -0.2215
 9597TIP3   OH250281   2.080   1.931  15.026 -0.0097 -0.6140 -0.1365
 9597TIP3    H150282   2.051   1.941  14.936  1.1901  0.8697 -0.3698
 9597TIP3    H250283   2.130   1.849  15.026  1.5487  0.3164 -1.2346
 9598TIP3   OH250284   5.243   2.600  13.018  0.0590 -0.3857  0.7121
 9598TIP3    H150285   5.168   2.600  12.958  1.2701  0.4219 -0.8531
 9598TIP3    H250286   5.236   2.684  13.064 -0.9099 -1.0344  1.7583
 9599TIP3   OH250287   2.258   3.580  17.031 -0.0108  0.2702  0.5558
 9599TIP3    H150288   2.233   3.493  17.001 -0.1033  0.7025 -0.6369
 9599TIP3    H250289   2.349   3.571  17.058 -0.3791 -0.4735  1.5728
 9600TIP3   OH250290   2.154   0.542  10.575  0.2109  0.9573  0.1848
 9600TIP3    H150291   2.246   0.520  10.559  0.3520 -0.4749  2.6606
 9600TIP3    H250292   2.106   0.462  10.556 -0.5024  1.5787 -0.6919
 9601TIP3   OH250293   3.288   0.001   4.147 -0.3397 -0.2804  0.3138
 9601TIP3    H150294   3.280   0.013   4.241 -2.0442  0.6462  0.0669
 9601TIP3    H250295   3.320   0.086   4.115 -0.0380 -0.5016  0.0282
 9602TIP3   OH250296   0.156   1.541  13.010  0.1977 -0.4870 -0.5673
 9602TIP3    H150297   0.145   1.583  13.095  0.1756 -1.6118 -0.0065
 9602TIP3    H250298   0.130   1.451  13.024  0.1412 -0.6699 -1.7886
 9603TIP3   OH250299   3.311   6.532   5.662 -0.5855  0.3098 -0.0149
 9603TIP3    H150300   3.348   6.546   5.749  2.2141 -1.4925 -0.8252
 9603TIP3    H250301   3.312   6.437   5.650  0.2289  0.5789 -2.4606
 9604TIP3   OH250302   2.582   1.005   1.539  0.1948  0.6712 -0.2653
 9604TIP3    H150303   2.659   1.059   1.552 -0.7097  1.5759  1.5336
 9604TIP3    H250304   2.510   1.058   1.575 -0.9168 -1.0802  0.1208
 9605TIP3   OH250305   0.178   2.854  11.696  0.0608  0.2704 -0.0647
 9605TIP3    H150306   0.102   2.898  11.658  0.7730  1.1961 -0.4740
 9605TIP3    H250307   0.247   2.867  11.631  0.5768 -0.5003  0.3292
 9606TIP3   OH250308   2.389   1.666   3.486  0.4461  0.2908 -0.4740
 9606TIP3    H150309   2.401   1.608   3.411  0.5880  0.0367 -0.2573
 9606TIP3    H250310   2.463   1.727   3.482 -0.4543  1.3333 -1.4877
 9607TIP3   OH250311   5.070   0.164  12.468 -0.8364 -0.3610 -0.5778
 9607TIP3    H150312   4.994   0.173  12.412 -3.4281  4.0025  3.2339
 9607TIP3    H250313   5.043   0.104  12.537 -0.3901  0.0915  0.0088
 9608TIP3   OH250314   1.718   5.299   3.768 -0.7308 -0.0118 -0.4534
 9608TIP3    H150315   1.789   5.250   3.726 -1.5661 -0.8558 -0.8760
 9608TIP3    H250316   1.668   5.336   3.696 -1.3394 -0.2846 -0.1727
 9609TIP3   OH250317   2.660   6.458   0.870 -0.0927 -0.6082 -0.1329
 9609TIP3    H150318   2.640   6.368   0.847 -2.1086 -0.6309  1.5229
 9609TIP3    H250319   2.628   6.468   0.960 -3.0075  2.6654 -1.4087
 9610TIP3   OH250320   2.114   1.383  13.945 -0.0925 -1.1542  0.0706
 9610TIP3    H150321   2.041   1.407  14.003 -0.4969  0.6618 -1.1665
 9610TIP3    H250322   2.072   1.335  13.873  0.2274 -2.0377  0.4577
 9611TIP3   OH250323   5.200   2.380  14.308 -0.2716  0.6624  0.0990
 9611TIP3    H150324   5.194   2.285  14.302 -2.0354  0.7016  0.6984
 9611TIP3    H250325   5.208   2.398  14.402  1.2948  1.0651 -0.0999
 9612TIP3   OH250326   4.389   2.928  15.029  0.1364  0.0416 -0.6310
 9612TIP3    H150327   4.305   2.948  14.989 -0.4940  0.1947  0.7423
 9612TIP3    H250328   4.369   2.913  15.121  1.7447  1.0664 -0.0953
 9613TIP3   OH250329   3.723   6.012  14.397 -0.5940  0.6061  0.2355
 9613TIP3    H150330   3.629   6.003  14.379 -0.6093 -1.3265  1.1678
 9613TIP3    H250331   3.765   5.949  14.339  0.0864  1.0067  0.2844
 9614TIP3   OH250332   3.052   3.944  12.428 -0.1732 -0.1164  0.6250
 9614TIP3    H150333   2.991   3.871  12.439 -1.5482  1.1459  1.7429
 9614TIP3    H250334   3.129   3.920  12.478 -0.2132 -1.2173  0.1711
 9615TIP3   OH250335   5.824   3.799  16.049  0.2028  0.5485  0.1196
 9615TIP3    H150336   5.732   3.812  16.029  0.2255 -1.3832 -1.4395
 9615TIP3    H250337   5.825   3.771  16.141 -0.7777  0.5725  0.1373
 9616TIP3   OH250338   5.535   2.325   0.788 -0.0091  0.1287 -0.1043
 9616TIP3    H150339   5.521   2.381   0.712 -0.2474 -0.5251 -0.5493
 9616TIP3    H250340   5.449   2.319   0.830  0.0317  0.1598 -0.0163
 9617TIP3   OH250341   0.541   1.881   4.238 -0.1715 -0.4685  0.2407
 9617TIP3    H150342   0.607   1.936   4.280  0.4027  0.2203 -1.5246
 9617TIP3    H250343   0.585   1.798   4.224  0.0638 -0.2770 -0.1759
 9618TIP3   OH250344   3.293   0.263  11.800 -0.2672 -0.3820 -0.1757
 9618TIP3    H150345   3.300   0.323  11.874 -0.6419 -0.9682  0.3414
 9618TIP3    H250346   3.341   0.185  11.828 -1.9085 -1.2992  0.1785
 9619TIP3   OH250347   5.025   5.828  16.271 -0.0431  0.0471  0.0989
 9619TIP3    H150348   5.108   5.872  16.291  1.2554 -1.2170 -2.2433
 9619TIP3    H250349   4.989   5.877  16.197 -0.2346 -0.7777 -0.3668
 9620TIP3   OH250350   3.804   0.187   3.141 -0.8225 -0.3689  0.3546
 9620TIP3    H150351   3.776   0.157   3.055 -0.8357 -0.8222  0.5138
 9620TIP3    H250352   3.844   0.273   3.125 -3.0860  0.6978  0.2551
 9621TIP3   OH250353   2.340   3.228  11.893 -0.1765 -0.3911 -0.1497
 9621TIP3    H150354   2.271   3.180  11.847 -0.7561 -1.4535  1.7432
 9621TIP3    H250355   2.412   3.233  11.831 -1.2010 -1.1066 -1.4236
 9622TIP3   OH250356   4.942   3.100   0.632 -0.0494  0.2527 -0.3543
 9622TIP3    H150357   5.022   3.128   0.676 -0.3046  0.4267  0.0052
 9622TIP3    H250358   4.964   3.015   0.595  0.5874  0.7151 -1.0562
 9623TIP3   OH250359   3.473   3.657  14.608 -0.1176  0.2041  0.3498
 9623TIP3    H150360   3.556   3.705  14.604 -0.4659  0.8409  0.7779
 9623TIP3    H250361   3.493   3.573  14.567  0.2545  1.0490 -1.2578
 9624TIP3   OH250362   2.021   5.222  12.964 -0.4846 -0.4752 -0.3794
 9624TIP3    H150363   2.023   5.318  12.974 -3.3240 -0.4116  0.0433
 9624TIP3    H250364   2.029   5.189  13.053  0.2200 -0.6293 -0.4992
 9625TIP3   OH250365   2.860   3.445  11.823  0.0963  1.0453  0.0630
 9625TIP3    H150366   2.921   3.462  11.895 -1.0470  0.4938  1.1841
 9625TIP3    H250367   2.828   3.356  11.840 -1.5359  1.5818 -0.1007
 9626TIP3   OH250368   1.987   4.084   5.601  0.2169 -0.7567 -0.0364
 9626TIP3    H150369   2.007   4.155   5.540 -0.1709 -0.9707 -0.4183
 9626TIP3    H250370   2.070   4.065   5.645  0.7471 -1.3283 -1.2672
 9627TIP3   OH250371   0.568   4.643  17.149  0.4556 -0.1172  0.0629
 9627TIP3    H150372   0.522   4.667  17.068  1.8970  1.2812 -0.3796
 9627TIP3    H250373   0.521   4.688  17.218 -0.6929 -1.1925 -0.0075
 9628TIP3   OH250374   0.850   1.503  15.888  0.2143 -0.2015 -0.5513
 9628TIP3    H150375   0.810   1.553  15.816  1.3291  1.3195 -0.1337
 9628TIP3    H250376   0.814   1.415  15.879 -0.8901  0.3834 -2.0112
 9629TIP3   OH250377   0.599   4.600   1.961  0.3012 -0.6800 -0.9933
 9629TIP3    H150378   0.510   4.564   1.961 -0.1245  0.3067  0.7027
 9629TIP3    H250379   0.656   4.523   1.959 -0.5946 -1.4097  0.4465
 9630TIP3   OH250380   4.757   2.300  11.639  0.2755  0.8619 -0.7840
 9630TIP3    H150381   4.735   2.324  11.729  0.3558  0.8110 -0.7518
 9630TIP3    H250382   4.783   2.208  11.645  0.2718  0.8558 -0.8613
 9631TIP3   OH250383   0.103   5.126   2.379 -0.2084  0.2297  0.0246
 9631TIP3    H150384   0.109   5.221   2.371  0.6090  0.0900 -1.1815
 9631TIP3    H250385   0.045   5.100   2.308 -0.9685 -0.1126  0.7664
 9632TIP3   OH250386   4.439   4.503   2.464 -0.4376  0.6231 -0.4039
 9632TIP3    H150387   4.422   4.539   2.552  2.7993 -0.0500  0.5587
 9632TIP3    H250388   4.369   4.440   2.450 -0.2620 -0.2202  2.2748
 9633TIP3   OH250389   6.764   1.630  12.457  0.2154  0.4004 -0.0387
 9633TIP3    H150390   6.834   1.616  12.394 -0.8870 -1.7680 -0.8329
 9633TIP3    H250391   6.684   1.630  12.404 -0.7629 -1.8840  1.3503
 9634TIP3   OH250392   1.262   6.516   1.517 -0.9056 -0.4283 -0.3554
 9634TIP3    H150393   1.295   6.537   1.604 -0.9269 -1.2720 -0.1388
 9634TIP3    H250394   1.273   6.421   1.509  0.2144 -0.2133 -1.7256
 9635TIP3   OH250395   0.185   3.762  11.277 -0.6305  0.2017 -0.5989
 9635TIP3    H150396   0.184   3.858  11.282 -1.2469  0.1914 -0.4680
 9635TIP3    H250397   0.272   3.741  11.243  0.8004  0.6210  2.6412
 9636TIP3   OH250398   1.975   2.473   5.039  0.5202  0.3218 -0.0245
 9636TIP3    H150399   1.996   2.400   5.098  0.5774  0.6421  0.3534
 9636TIP3    H250400   2.019   2.548   5.078 -0.4748  0.7873  0.2143
 9637TIP3   OH250401   4.759   2.348  11.354  0.1041  0.8692  0.0924
 9637TIP3    H150402   4.777   2.337  11.448  2.8071  0.0742 -0.4780
 9637TIP3    H250403   4.751   2.259  11.321  0.7613  1.0997 -0.7047
 9638TIP3   OH250404   6.127   5.945  13.184 -0.1653  0.0593  0.4799
 9638TIP3    H150405   6.050   5.897  13.155 -0.7366  1.3831 -0.2663
 9638TIP3    H250406   6.176   5.883  13.238 -2.6445 -0.2491  2.4428
 9639TIP3   OH250407   5.965   0.818  15.669 -0.3452 -0.0756 -0.1561
 9639TIP3    H150408   5.873   0.826  15.693 -0.2317 -0.3168  0.3559
 9639TIP3    H250409   5.966   0.749  15.602 -0.5966  0.2711 -0.5241
 9640TIP3   OH250410   6.590   6.511   1.057 -0.5225 -0.3266 -0.8008
 9640TIP3    H150411   6.668   6.536   1.106 -0.9587  1.6311 -1.0351
 9640TIP3    H250412   6.541   6.454   1.116  0.8920 -1.2435 -0.5029
 9641TIP3   OH250413   6.703   3.561   1.576  0.2744 -0.2477 -0.6120
 9641TIP3    H150414   6.666   3.647   1.599  1.1995 -0.1429  0.5688
 9641TIP3    H250415   6.792   3.581   1.547 -0.2938 -0.5784 -2.6537
 9642TIP3   OH250416   5.063   4.127  10.242  0.1559  0.4126 -0.2341
 9642TIP3    H150417   5.129   4.195  10.233  0.8614 -0.5009 -2.1431
 9642TIP3    H250418   5.098   4.069  10.310  0.2279  1.1438  0.3634
 9643TIP3   OH250419   3.944   5.335  13.851 -0.1990 -0.2159  0.0120
 9643TIP3    H150420   4.036   5.342  13.827 -0.1968 -0.2179  0.0203
 9643TIP3    H250421   3.923   5.420  13.891  0.0036 -0.4837  0.7038
 9644TIP3   OH250422   4.415   0.792  15.588  0.6652  0.1995  0.0510
 9644TIP3    H150423   4.342   0.765  15.644  1.9345  1.4510  2.4060
 9644TIP3    H250424   4.492   0.753  15.630  2.0180  3.7042  0.9909
 9645TIP3   OH250425   0.958   6.122  16.969 -0.4766 -0.5919 -0.2910
 9645TIP3    H150426   0.929   6.101  17.057 -1.2115  1.5218  0.0062
 9645TIP3    H250427   1.009   6.203  16.979 -0.5286 -0.3525 -1.7879
 9646TIP3   OH250428   1.081   6.233   5.860  0.0740 -0.6875 -0.0163
 9646TIP3    H150429   1.155   6.280   5.899 -0.7082 -0.6438  1.4173
 9646TIP3    H250430   1.122   6.168   5.803  1.2540 -1.3746  1.5897
 9647TIP3   OH250431   4.364   2.913  16.967 -0.2167  0.0352 -0.4668
 9647TIP3    H150432   4.429   2.845  16.985  0.1997  0.3514 -0.7616
 9647TIP3    H250433   4.317   2.881  16.890  0.9355  0.7374 -1.4917
 9648TIP3   OH250434   2.351   4.376   3.069 -0.0931 -0.5069  0.3321
 9648TIP3    H150435   2.282   4.334   3.018 -1.5638 -0.2675  2.0795
 9648TIP3    H250436   2.316   4.380   3.158  1.7257  0.6318  1.0203
 9649TIP3   OH250437   3.350   6.792  12.155 -0.0600 -0.2799 -0.7102
 9649TIP3    H150438   3.429   6.756  12.197 -0.3656 -0.4416 -0.2724
 9649TIP3    H250439   3.384   6.844  12.082  0.4989  0.3437 -0.0155
 9650TIP3   OH250440   1.364   0.761  12.442  0.8972  0.2443 -0.2960
 9650TIP3    H150441   1.401   0.677  12.417  1.0039  0.0575  0.4808
 9650TIP3    H250442   1.335   0.749  12.532  0.8635  1.0199 -0.1996
 9651TIP3   OH250443   4.271   3.267   3.970  0.5447  0.5784  0.0051
 9651TIP3    H150444   4.218   3.203   4.019  0.0384 -0.0940 -1.3968
 9651TIP3    H250445   4.359   3.256   4.006  0.1475  0.2421  0.9098
 9652TIP3   OH250446   3.456   4.890  15.081 -0.3719  0.1471 -0.4040
 9652TIP3    H150447   3.520   4.924  15.019  1.3689 -0.3448  1.0825
 9652TIP3    H250448   3.427   4.807  15.042  1.1271 -0.4338 -0.3121
 9653TIP3   OH250449   4.288   0.103   2.911 -0.3170 -0.0548  0.2213
 9653TIP3    H150450   4.332   0.134   2.990  0.7813  1.8135 -1.0896
 9653TIP3    H250451   4.206   0.153   2.908 -1.7791 -2.2757  1.7302
 9654TIP3   OH250452   4.850   3.517  16.494  0.2525  0.3198  0.6494
 9654TIP3    H150453   4.785   3.575  16.532 -0.4288 -1.4928  2.3306
 9654TIP3    H250454   4.800   3.460  16.435  0.5519 -0.1092  0.8056
 9655TIP3   OH250455   1.458   0.282  12.707 -0.6097 -0.3243  0.1028
 9655TIP3    H150456   1.536   0.338  12.716 -0.3601 -0.6966  0.2670
 9655TIP3    H250457   1.428   0.270  12.797 -0.9798 -0.0123  0.0233
 9656TIP3   OH250458   4.002   1.343   2.040  0.6666  0.2401  0.1871
 9656TIP3    H150459   4.017   1.314   1.950  0.2995  0.6025  0.0065
 9656TIP3    H250460   3.924   1.398   2.035  0.1762 -0.3686  0.8573
 9657TIP3   OH250461   5.415   0.194   6.549  0.3683 -0.0566  0.2811
 9657TIP3    H150462   5.428   0.139   6.626 -0.4443  0.3951  0.7446
 9657TIP3    H250463   5.324   0.224   6.556 -0.1462 -1.1496 -1.5941
 9658TIP3   OH250464   0.961   3.330   3.134 -0.2097  0.7423 -0.3462
 9658TIP3    H150465   0.904   3.279   3.191 -1.6582 -2.0009 -4.0312
 9658TIP3    H250466   0.903   3.394   3.092  0.0595  0.1356 -1.6558
 9659TIP3   OH250467   2.712   2.934  14.713 -0.1392  0.1290 -0.0789
 9659TIP3    H150468   2.734   2.893  14.797 -3.1046  1.1257  1.2319
 9659TIP3    H250469   2.689   3.024  14.735 -3.9347 -0.4107 -1.4857
 9660TIP3   OH250470   3.156   3.100  11.299 -0.3064  0.6035  0.0487
 9660TIP3    H150471   3.203   3.065  11.224 -1.0419  1.2471 -0.7148
 9660TIP3    H250472   3.065   3.073  11.287 -0.6379  1.6679  0.1136
 9661TIP3   OH250473   5.201   4.840   5.825  0.3889  0.2343  0.3593
 9661TIP3    H150474   5.177   4.801   5.910  0.0644 -0.3627 -0.0037
 9661TIP3    H250475   5.213   4.765   5.767  1.3079  0.6138  0.0528
 9662TIP3   OH250476   2.993   1.021   0.086 -0.3289  0.1443 -0.2192
 9662TIP3    H150477   2.924   1.029   0.152  0.3427 -0.7440  0.6089
 9662TIP3    H250478   3.074   1.037   0.134  0.0471  1.1380 -1.1777
 9663TIP3   OH250479   0.193   3.363   3.841  0.0634 -0.1261 -0.3778
 9663TIP3    H150480   0.186   3.402   3.928  0.9127  0.0745 -0.3885
 9663TIP3    H250481   0.146   3.423   3.784  1.1232  0.7478 -0.3464
 9664TIP3   OH250482   5.916   3.247   4.064  0.2318  0.2454  0.3475
 9664TIP3    H150483   5.909   3.296   4.146 -1.2941  0.7098 -0.0411
 9664TIP3    H250484   5.826   3.238   4.034  0.6905 -0.8680 -0.7298
 9665TIP3   OH250485   2.418   6.681   6.915 -0.4871  0.1238  0.0052
 9665TIP3    H150486   2.511   6.662   6.905 -0.4112 -0.4808  1.6709
 9665TIP3    H250487   2.415   6.767   6.956 -0.5778 -0.7756  1.9670
 9666TIP3   OH250488   1.339   1.450  15.247 -0.1418 -0.1523 -0.2172
 9666TIP3    H150489   1.413   1.495  15.288 -0.6990 -0.6767  1.4031
 9666TIP3    H250490   1.275   1.519  15.231  0.1248  0.0747 -0.3224
 9667TIP3   OH250491   4.417   4.559  15.512 -0.2714  0.1052 -0.1081
 9667TIP3    H150492   4.417   4.640  15.462 -0.1850  0.1659 -0.0099
 9667TIP3    H250493   4.354   4.503  15.466 -1.0163  0.5595  0.3572
 9668TIP3   OH250494   2.309   3.200  15.671 -0.2384 -0.0635  0.1402
 9668TIP3    H150495   2.306   3.123  15.614  1.1241 -1.1329  1.4781
 9668TIP3    H250496   2.217   3.223  15.684 -0.6210 -0.7403 -1.2340
 9669TIP3   OH250497   5.857   3.209   1.893  0.5442  0.1855  0.4957
 9669TIP3    H150498   5.835   3.271   1.823 -0.7487  0.0918  0.8032
 9669TIP3    H250499   5.861   3.263   1.972 -0.6714 -0.1288  0.7785
 9670TIP3   OH250500   2.895   0.829  16.644 -0.2648  0.4828 -0.0208
 9670TIP3    H150501   2.876   0.748  16.693  2.2855 -1.1473 -1.6175
 9670TIP3    H250502   2.858   0.899  16.698 -1.5255 -1.6569  1.9667
 9671TIP3   OH250503   3.206   0.362   5.644 -0.3404  0.5253 -0.4534
 9671TIP3    H150504   3.162   0.300   5.585 -0.2981 -1.2514  1.3353
 9671TIP3    H250505   3.277   0.312   5.683  0.4252  2.0573  0.1665
 9672TIP3   OH250506   3.342   6.266   1.289 -0.2404 -0.0822 -0.7773
 9672TIP3    H150507   3.332   6.170   1.291  0.6419 -0.1415  1.7453
 9672TIP3    H250508   3.417   6.281   1.232  0.3118 -0.9516 -0.2857
 9673TIP3   OH250509   6.223   2.150   3.428 -0.4774  0.3463  0.5683
 9673TIP3    H150510   6.295   2.106   3.473  0.0263  0.9309  0.3267
 9673TIP3    H250511   6.192   2.215   3.491 -0.3166  0.5975  0.3840
 9674TIP3   OH250512   2.460   1.176   5.275  0.0316 -0.1758 -0.1100
 9674TIP3    H150513   2.373   1.178   5.316 -0.2092 -0.1609 -0.6221
 9674TIP3    H250514   2.464   1.090   5.233 -0.8375  0.9043 -2.4887
 9675TIP3   OH250515   0.767   4.088   4.693  0.0058  0.0191 -0.8617
 9675TIP3    H150516   0.859   4.106   4.716 -0.0356 -0.5962 -0.2253
 9675TIP3    H250517   0.758   3.994   4.701 -1.1236  0.2556  0.6861
 9676TIP3   OH250518   5.853   1.439   2.283 -0.4935 -0.7168 -0.1899
 9676TIP3    H150519   5.762   1.447   2.310  0.6541  1.6622  3.3433
 9676TIP3    H250520   5.879   1.351   2.310 -1.7666 -1.4631 -1.3765
 9677TIP3   OH250521   4.383   3.897   5.768  0.1999 -0.5737 -0.7552
 9677TIP3    H150522   4.345   3.962   5.828 -0.6318 -0.3423 -1.5215
 9677TIP3    H250523   4.462   3.866   5.813  1.3663  1.9522 -0.9749
 9678TIP3   OH250524   1.808   0.351  14.429 -0.1502 -0.1594 -0.2850
 9678TIP3    H150525   1.800   0.267  14.384 -0.4288 -0.5742  0.5443
 9678TIP3    H250526   1.720   0.388  14.429  0.0949  0.4447 -1.2448
 9679TIP3   OH250527   3.183   1.089  13.570 -0.3724 -0.2101 -0.3467
 9679TIP3    H150528   3.266   1.129  13.544 -0.7339 -0.0249 -1.2017
 9679TIP3    H250529   3.117   1.133  13.517 -1.1586  0.4401  1.1512
 9680TIP3   OH250530   0.747   2.321   0.502 -0.1982 -0.5422  0.2095
 9680TIP3    H150531   0.842   2.313   0.504 -0.0983  0.7858  1.8693
 9680TIP3    H250532   0.729   2.386   0.434  0.1449 -0.1233  0.5173
 9681TIP3   OH250533   4.117   4.848   5.606  0.6865 -0.5444  0.6608
 9681TIP3    H150534   4.198   4.890   5.633 -0.1291  0.2409  1.9547
 9681TIP3    H250535   4.085   4.902   5.533  1.6743 -1.2797 -0.3408
 9682TIP3   OH250536   0.651   5.285  10.583 -0.5773  0.4215 -0.1752
 9682TIP3    H150537   0.591   5.359  10.584 -1.3680 -0.2232  0.4277
 9682TIP3    H250538   0.729   5.318  10.538 -0.1200  2.2202  1.8548
 9683TIP3   OH250539   5.050   4.654   1.024  0.1747  0.9787 -0.1354
 9683TIP3    H150540   5.115   4.625   1.088  0.0092 -0.3755 -0.5535
 9683TIP3    H250541   4.970   4.607   1.049 -0.2385  1.4859 -0.5157
 9684TIP3   OH250542   2.381   5.744   0.298 -0.1867  0.2534 -0.1310
 9684TIP3    H150543   2.294   5.716   0.269 -0.0374 -0.6350  0.2772
 9684TIP3    H250544   2.364   5.811   0.364 -0.5776 -0.7725  0.8096
 9685TIP3   OH250545   0.914   4.511   1.493 -0.0257  0.5738  0.0552
 9685TIP3    H150546   0.924   4.435   1.436  0.2801 -0.6263  1.6606
 9685TIP3    H250547   1.000   4.523   1.533 -0.7867 -0.0155  1.9572
 9686TIP3   OH250548   6.437   5.773  11.464  0.1963 -0.3579  0.0515
 9686TIP3    H150549   6.352   5.757  11.505  0.6194 -2.2791  0.2331
 9686TIP3    H250550   6.472   5.849  11.511 -1.5223  0.6410 -0.2243
 9687TIP3   OH250551   0.768   5.699  16.280 -0.3509  0.3942 -0.3594
 9687TIP3    H150552   0.764   5.632  16.212 -0.9158  1.1221 -1.0628
 9687TIP3    H250553   0.813   5.773  16.238 -1.9421  1.3677 -0.4195
 9688TIP3   OH250554   1.547   4.219   0.523 -0.4757  0.0688 -0.1094
 9688TIP3    H150555   1.479   4.198   0.588  0.2984 -0.3140  0.5851
 9688TIP3    H250556   1.629   4.201   0.568  0.0610 -1.1846 -1.5327
 9689TIP3   OH250557   0.022   0.469   2.963  0.3780 -0.0743  0.6201
 9689TIP3    H150558   0.057   0.380   2.954 -0.3586 -0.2094 -1.0329
 9689TIP3    H250559   0.058   0.500   3.047  2.3046 -1.1653  0.2374
 9690TIP3   OH250560   2.447   6.440   2.752 -0.4399 -0.0162  0.3970
 9690TIP3    H150561   2.532   6.417   2.788 -1.2762 -3.4430  0.3449
 9690TIP3    H250562   2.390   6.451   2.828  0.0844  2.6336  0.4480
 9691TIP3   OH250563   3.901   4.783  10.899 -0.1308  0.1480  0.1547
 9691TIP3    H150564   3.889   4.757  10.808  0.4621 -1.0090  0.4061
 9691TIP3    H250565   3.812   4.796  10.933 -0.4836 -2.3862  0.2721
 9692TIP3   OH250566   6.182   4.561   0.927  0.2259 -0.3607  1.0271
 9692TIP3    H150567   6.197   4.628   0.994  0.3910  2.1056 -1.4041
 9692TIP3    H250568   6.090   4.570   0.904  0.2237 -1.0480  0.7496
 9693TIP3   OH250569   1.206   3.320   5.602  0.3559  0.3877  0.2640
 9693TIP3    H150570   1.209   3.232   5.641  1.2056  1.1186  1.8745
 9693TIP3    H250571   1.114   3.330   5.576 -0.0506 -0.4684  1.2959
 9694TIP3   OH250572   4.458   5.660  15.149  0.4738  0.3218  0.1844
 9694TIP3    H150573   4.489   5.611  15.072 -1.5200  0.6399 -0.8506
 9694TIP3    H250574   4.458   5.751  15.120  0.1914  0.4909  0.7303
 9695TIP3   OH250575   3.091   1.353   0.152  0.0256  0.4367  0.1248
 9695TIP3    H150576   3.010   1.338   0.104  1.2957 -4.9253 -0.5979
 9695TIP3    H250577   3.075   1.316   0.239  1.0379  1.1897  0.6503
 9696TIP3   OH250578   3.944   6.656   1.010 -0.6006 -0.2581  0.6462
 9696TIP3    H150579   3.929   6.717   1.082  1.2697  0.1676  0.6990
 9696TIP3    H250580   3.903   6.698   0.934  0.8624  1.2134  0.6338
 9697TIP3   OH250581   0.899   6.753  11.762  0.5448  0.1374  0.2725
 9697TIP3    H150582   0.824   6.767  11.704 -0.0267 -2.7288  0.2328
 9697TIP3    H250583   0.944   6.837  11.764 -1.0660  1.1083 -2.0049
 9698TIP3   OH250584   6.074   5.949  10.633 -0.2895 -0.1065 -0.1892
 9698TIP3    H150585   6.064   6.016  10.565 -3.0039  0.6529  0.8872
 9698TIP3    H250586   5.993   5.899  10.628  0.5624 -1.5962  0.8561
 9699TIP3   OH250587   0.632   5.280  13.174  0.4309 -0.1116  0.2619
 9699TIP3    H150588   0.557   5.341  13.171 -0.1491 -0.7656  1.0948
 9699TIP3    H250589   0.600   5.200  13.132  0.1805 -0.8833  1.8831
 9700TIP3   OH250590   4.159   3.007   5.650 -0.3356 -0.0190  0.3589
 9700TIP3    H150591   4.190   3.097   5.655  0.0129 -0.1640  0.8237
 9700TIP3    H250592   4.067   3.014   5.625  0.3960  0.3754 -2.3198
 9701TIP3   OH250593   6.203   2.212  14.067 -0.1935 -1.1660  0.1365
 9701TIP3    H150594   6.225   2.159  13.991  0.3983 -0.2474 -0.3385
 9701TIP3    H250595   6.182   2.148  14.135  0.9587 -2.0122 -0.2904
 9702TIP3   OH250596   0.444   2.825   5.553 -0.0381  0.5385 -0.0390
 9702TIP3    H150597   0.385   2.822   5.477 -1.7688  2.1721  1.1834
 9702TIP3    H250598   0.431   2.741   5.596 -0.6629  0.4528 -0.3863
 9703TIP3   OH250599   5.727   3.895  14.886 -0.4745  0.0285 -0.0272
 9703TIP3    H150600   5.775   3.935  14.813 -1.6210  0.0542 -0.7948
 9703TIP3    H250601   5.794   3.866  14.947  0.3906  2.9089  0.4367
 9704TIP3   OH250602   2.557   4.211   5.579 -0.0589  0.0254 -0.4814
 9704TIP3    H150603   2.615   4.178   5.512 -0.8815  1.2204 -1.8102
 9704TIP3    H250604   2.473   4.225   5.534 -1.0631 -0.6280  1.1345
 9705TIP3   OH250605   1.237   6.804   5.070 -0.4317  0.6786 -0.6324
 9705TIP3    H150606   1.237   6.776   4.978 -1.5023  1.0287 -0.7556
 9705TIP3    H250607   1.160   6.762   5.107  0.2088  0.2459  0.2028
 9706TIP3   OH250608   2.217   3.087   1.000  0.4515 -0.4499  0.6444
 9706TIP3    H150609   2.146   3.133   0.955  0.5963  0.0732  0.9440
 9706TIP3    H250610   2.268   3.156   1.041  0.5403 -0.8929  1.2960
 9707TIP3   OH250611   2.681   3.114   6.323  0.3314 -0.2671  0.4950
 9707TIP3    H150612   2.760   3.092   6.372  0.7794  1.5117  0.5885
 9707TIP3    H250613   2.609   3.090   6.382  0.8664  2.8365  2.5179
 9708TIP3   OH250614   4.561   1.618  14.827 -0.2176 -0.3359 -0.0809
 9708TIP3    H150615   4.612   1.541  14.802  0.9665  0.3696  0.1277
 9708TIP3    H250616   4.612   1.659  14.897 -1.9345 -0.5611  1.3419
 9709TIP3   OH250617   3.401   2.105   1.591  0.5433  0.3458 -0.1030
 9709TIP3    H150618   3.368   2.104   1.502 -0.1675 -2.9564  0.1487
 9709TIP3    H250619   3.495   2.090   1.582  0.6096  0.9216 -0.3484
 9710TIP3   OH250620   5.895   0.002   2.490 -0.5856  0.0368  0.0117
 9710TIP3    H150621   5.835   0.064   2.448 -1.7880 -0.6998  0.5984
 9710TIP3    H250622   5.842  -0.077   2.502  0.3786 -0.4689  0.9475
 9711TIP3   OH250623   6.553   1.960  17.179 -0.2222 -1.1024  0.2640
 9711TIP3    H150624   6.618   1.965  17.109 -1.5382 -0.0583 -0.9059
 9711TIP3    H250625   6.480   1.911  17.142 -0.8796 -0.6548  0.9362
 9712TIP3   OH250626   2.845   4.319  16.353 -0.3861 -0.5673  0.3588
 9712TIP3    H150627   2.904   4.364  16.292  2.0849 -2.1346  1.5034
 9712TIP3    H250628   2.768   4.375  16.357  0.8566  1.3702 -1.4861
 9713TIP3   OH250629   1.559   2.157  11.953 -0.4409 -0.4231  0.1556
 9713TIP3    H150630   1.549   2.082  12.013  0.7739  1.0601  2.2956
 9713TIP3    H250631   1.651   2.155  11.928 -0.6565 -0.2628 -0.6549
 9714TIP3   OH250632   6.434   3.687  11.060 -0.3150 -0.4922 -0.2878
 9714TIP3    H150633   6.450   3.702  10.967 -2.2659  0.5720 -0.4907
 9714TIP3    H250634   6.521   3.688  11.100  0.4480  0.3677 -1.9042
 9715TIP3   OH250635   5.430   3.158  13.059 -0.6504 -0.2228 -0.6881
 9715TIP3    H150636   5.438   3.084  12.998  0.3319  0.3928 -1.3245
 9715TIP3    H250637   5.364   3.129  13.123  1.7852 -2.7912  0.7523
 9716TIP3   OH250638   2.799   4.984   0.684 -0.0439 -0.0380  0.3082
 9716TIP3    H150639   2.764   4.974   0.773  0.5468 -2.1326  0.3449
 9716TIP3    H250640   2.830   5.074   0.680 -0.7322  0.2919  1.9986
 9717TIP3   OH250641   3.845   0.442   3.071  0.5998  0.4091 -0.5647
 9717TIP3    H150642   3.843   0.534   3.099 -1.8481  0.2049  0.0586
 9717TIP3    H250643   3.935   0.428   3.040  1.1101  2.8922 -0.3007
 9718TIP3   OH250644   6.137   4.960  16.169 -0.5961 -0.1628  0.2763
 9718TIP3    H150645   6.143   4.882  16.113 -0.8113  0.0394 -0.0276
 9718TIP3    H250646   6.124   5.033  16.108  3.0824  0.5864  0.2824
 9719TIP3   OH250647   0.616   6.392   1.222  0.0364 -0.9107 -0.3008
 9719TIP3    H150648   0.674   6.455   1.264  0.8260 -1.5898 -0.3839
 9719TIP3    H250649   0.549   6.374   1.288 -0.3127  0.1536 -0.3399
 9720TIP3   OH250650   2.827   5.423  15.052 -0.2726  0.4409 -0.5298
 9720TIP3    H150651   2.782   5.435  14.968 -1.9162 -0.4447  0.1981
 9720TIP3    H250652   2.759   5.438  15.118  0.9134  0.7628  0.6491
 9721TIP3   OH250653   6.337   3.070  16.859 -0.2684 -0.3960 -0.2694
 9721TIP3    H150654   6.374   3.003  16.916 -0.8959 -0.8316 -0.3636
 9721TIP3    H250655   6.243   3.068  16.877 -0.0107  2.3746  1.7541
 9722TIP3   OH250656   0.497   1.553  16.042 -0.2697  0.3162  0.1885
 9722TIP3    H150657   0.542   1.468  16.037 -1.6123 -0.3844 -0.1310
 9722TIP3    H250658   0.407   1.534  16.016 -0.2268  2.1290 -1.4221
 9723TIP3   OH250659   6.800   1.922   1.044  0.1784 -0.6439 -0.0771
 9723TIP3    H150660   6.805   1.941   1.137 -0.8333 -0.1014 -0.1210
 9723TIP3    H250661   6.822   1.829   1.037  0.5617 -0.6109  0.6640
 9724TIP3   OH250662   4.469   6.287   0.719  0.1187 -0.1894 -0.2306
 9724TIP3    H150663   4.405   6.232   0.764 -2.2544  0.8553 -2.1929
 9724TIP3    H250664   4.525   6.226   0.672  0.1962 -1.1044  1.0409
 9725TIP3   OH250665   5.550   3.023   1.147  0.0678  0.0931 -0.2520
 9725TIP3    H150666   5.517   2.933   1.140 -0.8997  0.5111 -1.2692
 9725TIP3    H250667   5.503   3.060   1.222 -0.4032  0.1004 -0.5448
 9726TIP3   OH250668   5.214   0.818   0.141 -0.3271  0.2244 -0.0625
 9726TIP3    H150669   5.135   0.778   0.176  0.1605  0.3015  1.1296
 9726TIP3    H250670   5.182   0.881   0.076 -1.1965 -0.4022 -0.2491
 9727TIP3   OH250671   2.679   0.787  15.742  0.0118 -0.6681  0.2504
 9727TIP3    H150672   2.634   0.721  15.795 -1.6765  0.2302 -0.0306
 9727TIP3    H250673   2.657   0.871  15.784 -0.7001 -0.0088 -1.4031
 9728TIP3   OH250674   3.815   5.345  12.317  0.2106 -0.4966  0.7366
 9728TIP3    H150675   3.886   5.318  12.260  0.5249  0.1077  0.8419
 9728TIP3    H250676   3.797   5.436  12.293 -1.3096 -0.9920 -0.0974
 9729TIP3   OH250677   1.410   0.086  14.940  0.1052 -1.1328  0.3932
 9729TIP3    H150678   1.459   0.095  15.022  0.7567 -1.4236  0.0411
 9729TIP3    H250679   1.460   0.138  14.877 -0.5363 -0.7007  0.2369
 9730TIP3   OH250680   1.343   1.892  13.362 -0.3507 -0.2233  0.0030
 9730TIP3    H150681   1.352   1.875  13.268 -1.3224  0.1956 -0.1727
 9730TIP3    H250682   1.385   1.817  13.404 -2.1756 -1.6968 -0.7680
 9731TIP3   OH250683   2.011   3.897   2.390  0.3105  0.2288 -0.6591
 9731TIP3    H150684   1.985   3.946   2.312  0.4123  0.7174 -0.3882
 9731TIP3    H250685   2.098   3.863   2.369  0.6380  0.9622 -0.4828
 9732TIP3   OH250686   1.857   0.319   3.417 -0.2328  0.7747 -0.5245
 9732TIP3    H150687   1.871   0.269   3.337 -1.9301  2.4559 -1.9318
 9732TIP3    H250688   1.945   0.343   3.446  0.4703 -0.9371 -1.1507
 9733TIP3   OH250689   0.928   4.245   1.312 -0.1102  0.4566  0.3367
 9733TIP3    H150690   0.873   4.170   1.293  0.9087 -0.0529 -0.6804
 9733TIP3    H250691   1.000   4.210   1.364  0.5086  0.6712 -0.3648
 9734TIP3   OH250692   4.881   0.623  16.787 -0.5805  0.1366 -0.4351
 9734TIP3    H150693   4.952   0.660  16.839  0.4435  1.3612 -2.6329
 9734TIP3    H250694   4.871   0.534  16.819  3.1648 -0.6576 -1.2685
 9735TIP3   OH250695   3.165   3.859  15.213 -0.3274 -0.5107  0.9509
 9735TIP3    H150696   3.231   3.804  15.170  0.7757  0.3063  1.5592
 9735TIP3    H250697   3.194   3.863  15.304 -0.5287  0.8695  0.9591
 9736TIP3   OH250698   3.740   6.582  11.363  0.7390  0.2399 -0.1672
 9736TIP3    H150699   3.718   6.586  11.270 -0.0241 -0.8869 -0.0373
 9736TIP3    H250700   3.681   6.645  11.404  2.3464  2.1546 -0.6488
 9737TIP3   OH250701   3.728   6.331  11.440  0.7257  0.0694 -0.1503
 9737TIP3    H150702   3.648   6.294  11.402  1.8629 -2.1654 -0.4479
 9737TIP3    H250703   3.716   6.426  11.433 -0.8210 -0.2543 -2.4975
 9738TIP3   OH250704   5.172   4.759   6.140 -0.1087 -0.7214  0.0933
 9738TIP3    H150705   5.162   4.821   6.213 -0.8821  0.8311 -1.2733
 9738TIP3    H250706   5.091   4.709   6.140 -0.8341  0.4063 -0.6706
 9739TIP3   OH250707   5.124   5.728  16.621 -0.3285  0.5374  0.2185
 9739TIP3    H150708   5.042   5.763  16.655 -0.6508 -0.0096  0.0178
 9739TIP3    H250709   5.181   5.804  16.611 -1.1353  1.0528 -0.5238
 9740TIP3   OH250710   1.541   6.331  16.994  0.1713  0.4537  0.1315
 9740TIP3    H150711   1.457   6.373  16.979 -1.4832 -1.8348  2.6167
 9740TIP3    H250712   1.593   6.395  17.042 -1.6021  0.4572  2.1133
 9741TIP3   OH250713   0.156   2.548  12.302  0.0495 -0.0824 -0.4116
 9741TIP3    H150714   0.157   2.568  12.396  0.6674 -0.4539 -0.3439
 9741TIP3    H250715   0.206   2.619  12.262  1.0937 -0.7561 -0.3044
 9742TIP3   OH250716   2.533   0.494   2.253 -0.4853 -0.0038 -0.0238
 9742TIP3    H150717   2.464   0.476   2.190  1.0309  0.1021 -1.7654
 9742TIP3    H250718   2.600   0.429   2.235  0.1802  0.3122  1.1913
 9743TIP3   OH250719   5.635   2.414   1.731 -0.2068 -0.1242 -0.2998
 9743TIP3    H150720   5.594   2.500   1.743  1.2644  0.5598  0.0416
 9743TIP3    H250721   5.722   2.424   1.772 -1.0789 -2.6465  2.3096
 9744TIP3   OH250722   4.781   2.945  12.468 -0.1577 -0.2829  0.3084
 9744TIP3    H150723   4.694   2.969  12.500 -0.2329  0.6614 -0.5990
 9744TIP3    H250724   4.814   3.024  12.427  0.8096 -0.8796 -0.0648
 9745TIP3   OH250725   1.241   5.974  12.596 -0.4063 -0.9248 -0.3277
 9745TIP3    H150726   1.182   5.901  12.610 -0.2698 -1.2182 -1.2255
 9745TIP3    H250727   1.190   6.036  12.543 -1.2357  0.5678  2.1535
 9746TIP3   OH250728   6.301   5.094  13.977  0.0053 -0.1874  0.7277
 9746TIP3    H150729   6.262   5.056  13.898 -1.9662 -0.8788  1.9834
 9746TIP3    H250730   6.305   5.188  13.958 -2.4786 -0.0741  0.5922
 9747TIP3   OH250731   0.740   1.815   1.965  0.1877  0.0508 -0.7069
 9747TIP3    H150732   0.833   1.837   1.974 -0.0702  0.9923 -0.3924
 9747TIP3    H250733   0.693   1.894   1.990 -0.7926 -1.5403  2.8301
 9748TIP3   OH250734   1.764   2.626   0.889 -0.5760  0.3005 -0.2779
 9748TIP3    H150735   1.849   2.642   0.848 -0.4327  0.5128  0.1000
 9748TIP3    H250736   1.703   2.684   0.842 -1.3075 -2.7136 -3.2801
 9749TIP3   OH250737   0.504   5.630   0.290  0.1238  0.5811 -0.0046
 9749TIP3    H150738   0.492   5.714   0.246  0.8879  0.6924 -0.0079
 9749TIP3    H250739   0.465   5.642   0.376  1.5910  1.4501  0.5664
 9750TIP3   OH250740   0.226   5.357  13.370 -0.0620 -0.2841 -0.2590
 9750TIP3    H150741   0.211   5.335  13.462 -1.6825  0.9586 -0.2099
 9750TIP3    H250742   0.308   5.407  13.370 -0.9317  1.1762  0.7362
 9751TIP3   OH250743   3.168   2.697   3.407 -0.0462  0.7378  0.3001
 9751TIP3    H150744   3.202   2.779   3.371  1.0026  0.4528  0.6177
 9751TIP3    H250745   3.076   2.694   3.379 -0.2460  2.2878  0.7661
 9752TIP3   OH250746   3.861   0.096  13.003  0.2247 -0.4122 -0.0550
 9752TIP3    H150747   3.840   0.016  12.955 -0.6360  0.5681 -1.3483
 9752TIP3    H250748   3.779   0.145  13.006  1.1792  1.2845 -0.9474
 9753TIP3   OH250749   2.432   6.707   1.214 -0.2015 -0.4465 -0.0723
 9753TIP3    H150750   2.481   6.786   1.193 -0.1705 -0.5682 -0.4562
 9753TIP3    H250751   2.498   6.638   1.214  0.1472 -0.1471  2.3429
 9754TIP3   OH250752   1.969   4.232   3.313  0.1933 -0.9629  0.0955
 9754TIP3    H150753   2.050   4.182   3.298  0.4787 -0.6711  0.6484
 9754TIP3    H250754   1.912   4.208   3.239  1.3084 -0.0881 -1.0774
 9755TIP3   OH250755   1.689   4.082  16.785 -0.3449 -0.3277 -0.4386
 9755TIP3    H150756   1.732   4.092  16.870 -0.5426  2.7705 -0.6353
 9755TIP3    H250757   1.761   4.077  16.723 -0.2004 -0.0562 -0.2999
 9756TIP3   OH250758   3.268   5.645  15.478  0.7038  0.4390  0.2522
 9756TIP3    H150759   3.217   5.573  15.441  0.2667  1.6731 -1.6011
 9756TIP3    H250760   3.260   5.633  15.572 -1.4214 -0.5151 -0.0075
 9757TIP3   OH250761   2.092   1.269  16.027 -0.0226  0.1556  0.1926
 9757TIP3    H150762   2.154   1.314  16.083  0.0219 -1.1423  1.2096
 9757TIP3    H250763   2.076   1.185  16.070  0.4049 -1.0965 -1.9875
 9758TIP3   OH250764   0.296   4.007   1.912  0.3270  0.3421 -0.2056
 9758TIP3    H150765   0.356   3.948   1.865 -0.1556 -0.5779  0.3241
 9758TIP3    H250766   0.329   4.007   2.002  1.2502  2.1063 -0.5268
 9759TIP3   OH250767   4.802   3.823   4.477 -0.0904 -0.3636 -0.6530
 9759TIP3    H150768   4.897   3.835   4.481 -0.3971  1.9648  0.8780
 9759TIP3    H250769   4.790   3.730   4.458  2.4941 -0.6366 -1.1181
 9760TIP3   OH250770   6.252   5.974  12.741 -0.3376 -0.6551  0.1027
 9760TIP3    H150771   6.261   6.039  12.810 -0.7351 -1.2152  0.6876
 9760TIP3    H250772   6.158   5.971  12.722 -0.2210 -0.4163 -0.5550
 9761TIP3   OH250773   6.338   3.145   3.045  1.0080  1.2128  0.6473
 9761TIP3    H150774   6.314   3.053   3.042  0.0691  1.5019 -1.4374
 9761TIP3    H250775   6.260   3.190   3.076  1.7879  1.2311  2.6794
 9762TIP3   OH250776   0.843   2.718   4.875  0.1566 -0.5107  0.5832
 9762TIP3    H150777   0.799   2.715   4.959 -0.8887  2.0026  0.1489
 9762TIP3    H250778   0.927   2.673   4.890 -1.0660 -2.2919  2.2718
 9763TIP3   OH250779   1.976   3.379   0.487  0.2711  0.2325 -0.0487
 9763TIP3    H150780   2.071   3.371   0.482  0.1013 -2.5301  0.3863
 9763TIP3    H250781   1.943   3.291   0.466 -2.1797  1.0810  0.0527
 9764TIP3   OH250782   4.514   6.569   5.462  0.2652  0.3518  0.3250
 9764TIP3    H150783   4.597   6.530   5.437  1.3262  2.3905  0.5657
 9764TIP3    H250784   4.512   6.561   5.558 -0.6074 -1.1852  0.2023
 9765TIP3   OH250785   2.368   1.870  15.818  0.5110  0.0984 -0.4624
 9765TIP3    H150786   2.429   1.942  15.806  0.6581  0.0641  0.0318
 9765TIP3    H250787   2.398   1.827  15.898 -1.9008  1.8592  1.5009
 9766TIP3   OH250788   4.864   6.304   3.900 -0.3247  0.2953  0.3828
 9766TIP3    H150789   4.828   6.333   3.984  1.5439  0.2646  1.2317
 9766TIP3    H250790   4.828   6.217   3.887 -1.1400  0.5610  0.8314
 9767TIP3   OH250791   4.007   1.437  13.629  0.3769 -0.3519 -0.3856
 9767TIP3    H150792   3.919   1.436  13.668  0.2489 -1.4002 -0.6846
 9767TIP3    H250793   4.060   1.386  13.690  0.7104  0.0073 -0.3749
 9768TIP3   OH250794   5.389   2.125   2.969 -0.1967 -0.3752 -0.1832
 9768TIP3    H150795   5.456   2.112   3.037 -0.6280 -1.1694  0.0978
 9768TIP3    H250796   5.398   2.218   2.945  1.9964 -0.8184 -1.2152
 9769TIP3   OH250797   1.918   3.587  13.491 -0.1521  0.2014 -0.6734
 9769TIP3    H150798   1.917   3.680  13.467  2.0040  0.4155 -0.0878
 9769TIP3    H250799   1.999   3.577  13.542 -0.7515 -1.8392 -0.0872
 9770TIP3   OH250800   1.795   3.329  11.005  0.2405  0.4394  0.3572
 9770TIP3    H150801   1.825   3.415  10.975  0.3013  0.3531  0.1688
 9770TIP3    H250802   1.847   3.266  10.954 -0.5845  0.2828 -0.3078
 9771TIP3   OH250803   2.546   3.271  16.885  0.1948 -0.2003  0.2278
 9771TIP3    H150804   2.452   3.286  16.892 -0.1988 -2.5044  0.1376
 9771TIP3    H250805   2.565   3.201  16.947  2.0185  0.8727  0.9172
 9772TIP3   OH250806   5.234   1.246  12.495 -0.3612 -0.4677  0.6113
 9772TIP3    H150807   5.197   1.306  12.559  1.0699  1.7598 -0.5445
 9772TIP3    H250808   5.329   1.251  12.510  0.2071  1.9652 -3.1352
 9773TIP3   OH250809   2.594   5.231  12.802  0.1303 -0.2686  0.2141
 9773TIP3    H150810   2.521   5.261  12.856 -1.0033 -0.9420 -0.9067
 9773TIP3    H250811   2.607   5.303  12.739  0.0818 -0.3794  0.0776
 9774TIP3   OH250812   3.757   2.128  14.754 -0.0595  0.3853  0.0488
 9774TIP3    H150813   3.800   2.043  14.763 -0.1806  0.4879  1.8917
 9774TIP3    H250814   3.665   2.106  14.736  0.2555  0.1462 -1.2802
 9775TIP3   OH250815   3.882   4.190  13.277 -0.0525 -0.2121 -0.0723
 9775TIP3    H150816   3.914   4.100  13.274 -0.1701 -0.2045 -1.9276
 9775TIP3    H250817   3.878   4.211  13.371  0.3792 -1.9774  0.3538
 9776TIP3   OH250818   6.238   0.693   2.783 -0.1562 -0.1967  0.4592
 9776TIP3    H150819   6.206   0.783   2.779  1.0033  0.2086  0.2579
 9776TIP3    H250820   6.218   0.665   2.872 -1.2938 -0.0354  0.2645
 9777TIP3   OH250821   3.497   4.851  12.122  0.6028 -0.0859  0.2830
 9777TIP3    H150822   3.405   4.835  12.100  0.0009 -0.2018  2.7455
 9777TIP3    H250823   3.495   4.926  12.182  2.2663  0.9147 -0.8736
 9778TIP3   OH250824   5.865   1.639   6.048 -0.2175 -0.1669 -0.2620
 9778TIP3    H150825   5.788   1.655   6.102 -0.4105  1.4887 -1.0087
 9778TIP3    H250826   5.910   1.723   6.045  1.7428 -1.1643  0.3410
 9779TIP3   OH250827   0.853   2.897  15.110  0.4735  0.0812 -0.2128
 9779TIP3    H150828   0.897   2.814  15.092  1.2040  0.3656  0.2425
 9779TIP3    H250829   0.859   2.945  15.028  0.4180 -0.1437 -0.3516
 9780TIP3   OH250830   1.279   6.121  14.420 -0.8565 -0.1743  0.0062
 9780TIP3    H150831   1.223   6.185  14.377  0.4929  0.9249 -0.1449
 9780TIP3    H250832   1.237   6.036  14.403 -1.4105  0.4439 -1.7278
 9781TIP3   OH250833   2.414   5.198  15.522  0.4395 -0.9692  0.2856
 9781TIP3    H150834   2.403   5.222  15.614  1.0288 -1.5145  0.4959
 9781TIP3    H250835   2.334   5.148  15.501 -0.1226 -0.0599  0.2397
 9782TIP3   OH250836   3.584   4.148   3.224  0.1243  0.0539 -0.1455
 9782TIP3    H150837   3.536   4.187   3.150 -0.5041  0.4419  0.4625
 9782TIP3    H250838   3.548   4.059   3.231 -1.2930  0.6886  0.9795
 9783TIP3   OH250839   2.694   2.507   1.489  0.1699 -0.0072 -0.1497
 9783TIP3    H150840   2.725   2.592   1.457  1.6946 -0.5650 -0.1991
 9783TIP3    H250841   2.611   2.526   1.532  0.4596  1.4933 -0.2402
 9784TIP3   OH250842   2.432   5.419  14.457  0.0756  0.3754  0.3640
 9784TIP3    H150843   2.365   5.486  14.449 -0.0804  0.1737 -0.0843
 9784TIP3    H250844   2.506   5.463  14.499 -0.2322  0.6744  0.5900
 9785TIP3   OH250845   6.427   5.573   4.576 -1.0081 -0.0050 -0.5623
 9785TIP3    H150846   6.449   5.562   4.669  0.8198  2.2799 -0.6925
 9785TIP3    H250847   6.332   5.558   4.573 -1.1050 -0.0942  1.6742
 9786TIP3   OH250848   6.350   6.594  13.955  0.1661  0.0341  0.1068
 9786TIP3    H150849   6.283   6.606  13.887 -0.4623  0.8125  0.8457
 9786TIP3    H250850   6.372   6.683  13.982  1.0388 -0.2445  0.3234
 9787TIP3   OH250851   6.512   1.890  16.324 -0.1596  0.5771  0.0583
 9787TIP3    H150852   6.489   1.799  16.339  1.4112  0.0920 -0.3925
 9787TIP3    H250853   6.440   1.925  16.272  1.0516 -1.4640 -3.1388
 9788TIP3   OH250854   3.829   2.339  15.414  0.0249  0.1354 -0.8704
 9788TIP3    H150855   3.810   2.247  15.432 -0.8554  0.4988  0.0762
 9788TIP3    H250856   3.910   2.357  15.461 -0.7792  0.3258  0.4780
 9789TIP3   OH250857   2.860   4.410   4.417  0.0478 -0.5908 -0.1491
 9789TIP3    H150858   2.791   4.399   4.352 -0.4583 -0.0209  0.2897
 9789TIP3    H250859   2.863   4.326   4.463 -0.9965 -0.2983  0.4565
 9790TIP3   OH250860   6.509   1.769   0.620 -0.0201  1.2867  0.4978
 9790TIP3    H150861   6.500   1.827   0.696  0.7682 -0.3218  1.8564
 9790TIP3    H250862   6.420   1.746   0.596 -0.3354  2.9660  0.0079
 9791TIP3   OH250863   5.810   1.573   4.024 -0.3567 -0.3073 -0.1294
 9791TIP3    H150864   5.818   1.509   4.095 -2.1670 -2.0248 -1.4301
 9791TIP3    H250865   5.729   1.619   4.043 -0.7761 -0.6806 -0.9924
 9792TIP3   OH250866   6.148   5.677   1.253  0.4711 -0.7719 -0.0034
 9792TIP3    H150867   6.214   5.682   1.184  0.1370 -1.5898 -0.3839
 9792TIP3    H250868   6.118   5.767   1.263 -1.9218 -1.0962 -3.3277
 9793TIP3   OH250869   2.019   2.324   1.558 -0.0125 -0.1701 -0.4573
 9793TIP3    H150870   2.084   2.322   1.627 -1.0158  0.0869  0.5077
 9793TIP3    H250871   1.999   2.232   1.541  1.6818 -0.3086 -1.8080
 9794TIP3   OH250872   0.857   1.045   1.107 -0.7019  0.8321  0.3124
 9794TIP3    H150873   0.889   0.955   1.098  0.8076  1.2676  1.1011
 9794TIP3    H250874   0.767   1.042   1.077 -0.3917 -0.7757 -0.4868
 9795TIP3   OH250875   5.452   6.472  13.347  0.5751  0.3336 -0.0217
 9795TIP3    H150876   5.441   6.471  13.252 -0.7463 -1.7555  0.1191
 9795TIP3    H250877   5.393   6.404  13.378  1.3637  0.6684  2.2706
 9796TIP3   OH250878   2.201   5.178  11.962 -0.3019  0.0057 -0.0362
 9796TIP3    H150879   2.186   5.251  12.021 -1.2950  0.7233 -1.1383
 9796TIP3    H250880   2.287   5.145  11.985 -0.1058  1.1333  0.8890
 9797TIP3   OH250881   3.535   0.436  14.835 -0.3027 -0.2034  0.2002
 9797TIP3    H150882   3.553   0.435  14.742  0.1411  0.2695  0.2786
 9797TIP3    H250883   3.440   0.442  14.841 -0.2782  0.6506 -0.2254
 9798TIP3   OH250884   4.166   3.061   4.114  0.2103 -0.0956 -0.6091
 9798TIP3    H150885   4.138   3.021   4.196  0.0403  1.1314 -0.0538
 9798TIP3    H250886   4.151   2.994   4.048 -2.7296  0.0632 -0.1344
 9799TIP3   OH250887   0.453   2.380   1.281 -0.4130  0.1902 -0.4344
 9799TIP3    H150888   0.382   2.441   1.264 -0.7240 -0.3053 -0.9333
 9799TIP3    H250889   0.530   2.435   1.292 -1.1209  0.8260  1.4974
 9800TIP3   OH250890   3.461   1.180  13.222  0.0239  0.2467  0.5673
 9800TIP3    H150891   3.458   1.176  13.318 -0.1716  1.9974  0.6458
 9800TIP3    H250892   3.549   1.148  13.200 -0.0966 -0.6261  1.2837
 9801TIP3   OH250893   2.424   3.850  13.934 -0.0317  0.4266 -0.3183
 9801TIP3    H150894   2.399   3.909  14.005 -1.2085  0.2189 -0.5486
 9801TIP3    H250895   2.517   3.833  13.949 -0.0100  1.2417  0.5427
 9802TIP3   OH250896   4.931   2.637   5.037  0.1108 -0.1466 -0.3083
 9802TIP3    H150897   4.928   2.650   5.132 -0.8816  1.3914 -0.5265
 9802TIP3    H250898   4.935   2.542   5.026 -0.8917 -0.3908  1.2663
 9803TIP3   OH250899   2.784   6.259  11.564  0.3077 -0.2259 -0.0263
 9803TIP3    H150900   2.827   6.341  11.540  1.0735 -0.7382 -0.4193
 9803TIP3    H250901   2.698   6.263  11.521  0.1767  0.5422  0.2910
 9804TIP3   OH250902   0.421   3.597   5.930  0.1822  0.1909  0.4327
 9804TIP3    H150903   0.348   3.648   5.896 -1.0363 -1.2326  0.8592
 9804TIP3    H250904   0.412   3.603   6.025  1.7873  1.6317  0.5171
 9805TIP3   OH250905   1.056   6.477   4.154  0.3751 -0.2931  0.4096
 9805TIP3    H150906   1.056   6.552   4.094 -1.1681  1.8769  2.9805
 9805TIP3    H250907   0.974   6.431   4.135 -0.3294  0.6458  1.0672
 9806TIP3   OH250908   0.035   2.880   5.512  0.4020 -0.0627  0.4409
 9806TIP3    H150909  -0.056   2.897   5.488  0.1602  0.3046  1.5810
 9806TIP3    H250910   0.082   2.876   5.429 -0.6477 -0.2038 -0.1464
 9807TIP3   OH250911   4.017   4.713   0.806 -0.1689  0.0457  0.1367
 9807TIP3    H150912   4.103   4.744   0.834 -0.3204  0.2919  0.3197
 9807TIP3    H250913   3.984   4.781   0.747 -0.8624  0.6266  1.1981
 9808TIP3   OH250914   4.599   5.986  15.772 -0.3412  0.1349  0.2027
 9808TIP3    H150915   4.611   6.079  15.791  0.8699  0.0267  0.0591
 9808TIP3    H250916   4.646   5.972  15.689 -0.2975 -0.6447  0.3499
 9809TIP3   OH250917   4.953   0.397   4.049  0.5530 -0.0503  0.0264
 9809TIP3    H150918   5.027   0.351   4.011  0.1480  0.1858 -1.0515
 9809TIP3    H250919   4.954   0.484   4.009 -1.5494 -0.7396 -1.6547
 9810TIP3   OH250920   5.946   1.713  14.722 -0.1807  0.9022 -0.2699
 9810TIP3    H150921   5.924   1.706  14.815 -0.7607 -1.8773 -0.5677
 9810TIP3    H250922   6.039   1.692  14.718 -0.3549  0.1284 -0.3949
 9811TIP3   OH250923   5.501   1.988  15.168 -0.0917  0.4998  0.2830
 9811TIP3    H150924   5.460   2.026  15.246  1.6443  0.5924  1.1610
 9811TIP3    H250925   5.580   1.945  15.200 -0.6145 -1.6053 -1.0749
 9812TIP3   OH250926   4.263   5.395  10.388  0.3503 -0.2508  0.3189
 9812TIP3    H150927   4.207   5.473  10.393  0.1881 -0.2743 -0.9921
 9812TIP3    H250928   4.352   5.429  10.393  0.3387  0.1966 -1.9417
 9813TIP3   OH250929   6.032   3.976  13.447  0.1234 -0.5538 -0.0868
 9813TIP3    H150930   6.111   4.023  13.471 -0.6234 -0.4813  2.4016
 9813TIP3    H250931   6.036   3.968  13.352  1.0515  3.1641 -0.4352
 9814TIP3   OH250932   5.417   0.644  16.174 -0.0334  0.1271 -0.2740
 9814TIP3    H150933   5.420   0.561  16.222  0.3864  0.9537  1.1426
 9814TIP3    H250934   5.509   0.667  16.160 -0.1144  1.3046  1.0173
 9815TIP3   OH250935   4.361   3.370   2.299  0.1500 -0.6691  0.1473
 9815TIP3    H150936   4.451   3.340   2.316  1.0483  2.7639  1.7237
 9815TIP3    H250937   4.359   3.384   2.204  0.9617 -1.6921 -0.0415
 9816TIP3   OH250938   4.653   1.598   1.979 -0.6291  0.2055  0.1389
 9816TIP3    H150939   4.629   1.506   1.969  1.8016 -0.4952  0.3599
 9816TIP3    H250940   4.614   1.624   2.062 -1.1576 -0.6844  0.1762
 9817TIP3   OH250941   1.254   6.512  13.129  0.5094 -0.0347  0.6189
 9817TIP3    H150942   1.314   6.564  13.076  0.9382 -1.1885 -0.0254
 9817TIP3    H250943   1.247   6.561  13.212  0.9420  1.0151  0.0427
 9818TIP3   OH250944   4.250   3.557   3.006  0.3897 -0.1952  0.1758
 9818TIP3    H150945   4.334   3.514   2.989  0.2266 -1.7108  2.9690
 9818TIP3    H250946   4.195   3.489   3.044 -1.5501  1.2464  0.0565
 9819TIP3   OH250947   4.495   1.373  11.254  0.0592  0.3525 -0.3336
 9819TIP3    H150948   4.486   1.357  11.160  0.0532  1.1662 -0.4775
 9819TIP3    H250949   4.430   1.440  11.274 -0.0346  0.0852  0.2802
 9820TIP3   OH250950   4.842   4.919  13.750  0.0662  0.3115  0.1622
 9820TIP3    H150951   4.909   4.898  13.684  2.0302  1.6623  1.6724
 9820TIP3    H250952   4.857   5.011  13.771 -1.1597  0.1547  1.8104
 9821TIP3   OH250953   3.306   3.948   2.634 -0.0358  0.3697 -0.2974
 9821TIP3    H150954   3.396   3.979   2.628 -0.3915  1.8647  1.5106
 9821TIP3    H250955   3.309   3.857   2.605  1.8318  0.7682 -1.4212
 9822TIP3   OH250956   1.447   3.846   4.444 -0.4629 -0.5062  0.3194
 9822TIP3    H150957   1.474   3.934   4.467 -0.0644 -0.3796 -0.6323
 9822TIP3    H250958   1.438   3.801   4.528 -0.5735  0.4069  0.7986
 9823TIP3   OH250959   5.492   0.373   1.987  0.6730  0.1731  0.5591
 9823TIP3    H150960   5.463   0.307   2.049  0.2323 -0.9009 -0.7480
 9823TIP3    H250961   5.524   0.322   1.912 -0.2024  1.4487 -0.6993
 9824TIP3   OH250962   4.337   1.479   4.228  0.5718 -0.4337  0.0279
 9824TIP3    H150963   4.364   1.537   4.157 -1.4834  1.0287  0.3931
 9824TIP3    H250964   4.413   1.474   4.285  1.7779 -0.5268 -1.5564
 9825TIP3   OH250965   5.557   2.043  15.811 -0.3708 -0.3355 -0.4739
 9825TIP3    H150966   5.525   1.985  15.880 -1.5765  0.9363  0.0565
 9825TIP3    H250967   5.634   2.086  15.849 -0.2705 -0.5884 -0.3912
 9826TIP3   OH250968   4.680   1.782  17.176 -0.7379  0.3812 -0.2549
 9826TIP3    H150969   4.655   1.797  17.085 -2.1528 -1.8032 -0.2614
 9826TIP3    H250970   4.741   1.708  17.172  0.8025  1.5780  0.4047
 9827TIP3   OH250971   4.987   2.049   5.550 -0.0176  0.1343 -0.1009
 9827TIP3    H150972   5.083   2.052   5.545  0.0950 -0.4690  1.2967
 9827TIP3    H250973   4.968   2.056   5.644 -1.3694  0.7773 -0.4111
 9828TIP3   OH250974   6.041   3.576  15.298 -0.2793  0.2097 -0.0950
 9828TIP3    H150975   6.041   3.671  15.312  0.0215  0.1173  0.5454
 9828TIP3    H250976   6.077   3.540  15.379 -2.6260 -0.5953  0.6353
 9829TIP3   OH250977   3.861   4.683   0.470 -0.4357 -0.1393  0.3662
 9829TIP3    H150978   3.766   4.690   0.462 -0.4935  1.8952  2.2460
 9829TIP3    H250979   3.894   4.701   0.382 -1.7590  0.2400 -0.0668
 9830TIP3   OH250980   1.805   0.064  16.818 -0.0898  0.2994  0.2518
 9830TIP3    H150981   1.807   0.002  16.890 -0.4611  0.1202  0.1073
 9830TIP3    H250982   1.897   0.086  16.803  0.1330 -1.0740 -0.4514
 9831TIP3   OH250983   6.096   4.680   6.345  0.5863 -0.0664 -0.3712
 9831TIP3    H150984   6.012   4.666   6.302  1.5494 -0.2012 -2.2223
 9831TIP3    H250985   6.115   4.773   6.331  0.6875 -0.0075  0.1482
 9832TIP3   OH250986   2.868   5.586   2.796 -0.6416  0.0420 -0.2167
 9832TIP3    H150987   2.910   5.534   2.727 -0.0787 -1.9218  1.5914
 9832TIP3    H250988   2.936   5.649   2.822 -0.9555  0.9890 -1.6411
 9833TIP3   OH250989   5.019   1.776   4.064 -0.7298  0.0392  0.6628
 9833TIP3    H150990   5.012   1.681   4.073 -1.3041  0.0098 -0.0767
 9833TIP3    H250991   5.093   1.799   4.120  0.2287 -1.0009 -0.1378
 9834TIP3   OH250992   3.061   6.722   5.927  0.1874 -0.0127 -0.1909
 9834TIP3    H150993   3.041   6.724   5.833  0.9352 -0.3803 -0.3658
 9834TIP3    H250994   2.977   6.734   5.970 -0.3428 -1.1075 -0.9090
 9835TIP3   OH250995   0.818   0.892  17.021 -0.2683  0.2405  0.8702
 9835TIP3    H150996   0.742   0.949  17.012  0.0270  0.5468  0.2700
 9835TIP3    H250997   0.876   0.938  17.082  0.2865  0.9372 -0.1617
 9836TIP3   OH250998   4.297   3.706   3.688  0.6663 -0.4829 -0.4234
 9836TIP3    H150999   4.315   3.614   3.705  0.3980 -0.4841 -0.1496
 9836TIP3    H251000   4.256   3.707   3.601 -1.2317 -0.8340  0.4507
 9837TIP3   OH251001   4.729   1.823  15.292 -0.3813 -0.7731 -0.3849
 9837TIP3    H151002   4.693   1.815  15.204  0.1198 -0.1141 -0.6593
 9837TIP3    H251003   4.822   1.801  15.281 -0.2738 -0.4775 -0.0684
 9838TIP3   OH251004   5.403   4.536   2.990 -0.1574 -0.6580 -0.6685
 9838TIP3    H151005   5.440   4.449   2.979 -0.9585 -1.0017 -0.7260
 9838TIP3    H251006   5.453   4.575   3.062 -0.1810 -1.3885 -0.2484
 9839TIP3   OH251007   2.034   0.282   6.442 -0.0746 -0.0199 -0.1424
 9839TIP3    H151008   2.079   0.326   6.369 -0.2704 -0.4012 -0.4969
 9839TIP3    H251009   2.052   0.337   6.518 -3.2448  2.6538 -1.1973
 9840TIP3   OH251010   3.649   5.463   3.587 -0.1959 -0.0536  0.3649
 9840TIP3    H151011   3.706   5.469   3.664 -1.6550 -1.2059  1.5448
 9840TIP3    H251012   3.709   5.474   3.513  1.2973  0.5966  1.6225
 9841TIP3   OH251013   1.707   5.232   0.441  0.0077 -0.2407  0.1983
 9841TIP3    H151014   1.623   5.265   0.474 -0.6649 -0.7007 -1.0018
 9841TIP3    H251015   1.714   5.269   0.353 -0.2426 -2.3786 -0.7513
 9842TIP3   OH251016   0.314   0.218   0.317  0.1671  0.2630 -0.0176
 9842TIP3    H151017   0.225   0.250   0.335  0.5193  0.4010  1.5689
 9842TIP3    H251018   0.331   0.155   0.388  0.7137 -1.0039 -1.2575
 9843TIP3   OH251019   5.295   1.532   0.343 -0.4168  0.5071 -0.0681
 9843TIP3    H151020   5.239   1.457   0.362  0.5300 -0.5298 -1.2781
 9843TIP3    H251021   5.237   1.607   0.349 -1.2353 -0.2612  1.7783
 9844TIP3   OH251022   0.767   5.930   6.286 -0.0611 -0.0414 -0.0585
 9844TIP3    H151023   0.779   5.836   6.301  0.7645  0.0536 -0.1155
 9844TIP3    H251024   0.847   5.970   6.320  0.0567  0.5436 -1.0255
 9845TIP3   OH251025   6.168   0.935   5.615 -0.4744  0.4283 -0.0975
 9845TIP3    H151026   6.140   0.914   5.525  2.3468 -1.2703 -0.6531
 9845TIP3    H251027   6.263   0.918   5.615 -0.1590  1.8901  2.8044
 9846TIP3   OH251028   1.418   0.863  14.921  0.1558  0.0720 -0.1618
 9846TIP3    H151029   1.468   0.927  14.971 -1.7630  0.9364  0.6881
 9846TIP3    H251030   1.335   0.854  14.969 -0.0150 -2.2750 -0.8331
 9847TIP3   OH251031   6.713   6.740   2.951  0.2848 -0.5005  0.2194
 9847TIP3    H151032   6.772   6.665   2.941 -1.4307 -2.0575  1.3530
 9847TIP3    H251033   6.717   6.761   3.044 -1.3106 -0.9495  0.4063
 9848TIP3   OH251034   1.808   2.692  11.687 -0.3832  0.4038 -0.1340
 9848TIP3    H151035   1.763   2.761  11.735  1.1474  0.7614  0.8204
 9848TIP3    H251036   1.896   2.726  11.674  0.4692 -1.4947  0.6164
 9849TIP3   OH251037   4.475   4.966   2.453 -0.1550 -0.0745 -0.0078
 9849TIP3    H151038   4.482   5.044   2.508 -0.0764  0.6454 -1.0224
 9849TIP3    H251039   4.448   5.000   2.367  0.7624 -1.0657 -0.7009
 9850TIP3   OH251040   3.713   1.446  14.530 -0.0139 -0.7308  0.1806
 9850TIP3    H151041   3.643   1.468  14.468  0.8483  0.3635 -0.4278
 9850TIP3    H251042   3.773   1.521  14.526  1.3491 -1.7873  0.4617
 9851TIP3   OH251043   5.612   1.157   6.013  0.1044  0.1460 -0.3770
 9851TIP3    H151044   5.640   1.092   6.077  0.9474 -0.0598 -0.9508
 9851TIP3    H251045   5.576   1.229   6.066 -0.3377 -0.5456  0.2737
 9852TIP3   OH251046   2.464   6.623  12.535 -0.1139 -0.2810  0.3796
 9852TIP3    H151047   2.414   6.609  12.454 -1.3944 -2.0075  1.4623
 9852TIP3    H251048   2.434   6.556  12.595  1.6390  0.2897  1.9601
 9853TIP3   OH251049   3.575   1.776   0.287 -0.0249  0.3304 -0.7414
 9853TIP3    H151050   3.590   1.871   0.292  0.2280  0.3057 -1.0149
 9853TIP3    H251051   3.661   1.738   0.302 -0.5144  0.0820  1.5695
 9854TIP3   OH251052   4.446   5.731  12.995 -0.1741  0.1011 -0.0305
 9854TIP3    H151053   4.408   5.774  12.917  0.2787 -0.3036 -0.4760
 9854TIP3    H251054   4.530   5.774  13.007  1.2475 -2.0983 -1.7550
 9855TIP3   OH251055   6.693   1.873  12.356  0.0511 -0.1517 -0.3219
 9855TIP3    H151056   6.726   1.812  12.422 -1.0378 -0.3643  0.0296
 9855TIP3    H251057   6.747   1.952  12.367  0.7978 -0.6868 -0.1188
 9856TIP3   OH251058   1.813   0.212   4.814 -0.0997  0.0268  0.3035
 9856TIP3    H151059   1.864   0.154   4.759  0.3454 -0.3896  1.1371
 9856TIP3    H251060   1.787   0.284   4.757  0.9278 -0.0514 -0.2660
 9857TIP3   OH251061   2.520   6.095   0.237  0.2794 -0.5001  0.1496
 9857TIP3    H151062   2.436   6.092   0.283  0.5036  1.9880  0.8024
 9857TIP3    H251063   2.576   6.148   0.293  1.5467 -0.1201 -1.4580
 9858TIP3   OH251064   5.431   0.040  12.727  0.0796  0.2338 -0.1716
 9858TIP3    H151065   5.497   0.034  12.796  0.3850 -3.3067 -0.6767
 9858TIP3    H251066   5.427  -0.048  12.689 -1.8368  1.4643 -3.0562
 9859TIP3   OH251067   3.000   1.861  14.435  0.4064  0.2370 -0.7280
 9859TIP3    H151068   3.093   1.844  14.425  0.4419 -0.6718  0.8691
 9859TIP3    H251069   2.967   1.785  14.484 -1.3624  0.0593 -2.1090
 9860TIP3   OH251070   5.323   5.761  12.092 -0.4911 -0.0909  0.3985
 9860TIP3    H151071   5.247   5.812  12.121 -0.0376  1.1998 -0.6076
 9860TIP3    H251072   5.315   5.761  11.996  1.7454  1.6085  0.1804
 9861TIP3   OH251073   0.472   3.494  13.675  0.3725 -0.2057 -0.7084
 9861TIP3    H151074   0.381   3.513  13.699  0.9937  1.0821  0.6192
 9861TIP3    H251075   0.507   3.577  13.645  1.3339 -0.5539 -0.5596
 9862TIP3   OH251076   4.149   1.056  17.143  0.1472 -0.2737 -0.0999
 9862TIP3    H151077   4.137   0.989  17.076 -0.3325  0.0705 -0.3575
 9862TIP3    H251078   4.151   1.138  17.095  0.4106 -0.0742  0.2488
 9863TIP3   OH251079   5.216   4.137   2.824 -0.7714  0.2567  0.4457
 9863TIP3    H151080   5.305   4.136   2.789  0.0293 -2.4635  2.4004
 9863TIP3    H251081   5.164   4.181   2.757  1.0925 -2.7474 -3.1354
 9864TIP3   OH251082   2.945   2.773   0.731 -0.1881  0.1588  0.2596
 9864TIP3    H151083   2.959   2.719   0.809  2.2722 -1.3474 -1.1712
 9864TIP3    H251084   3.033   2.799   0.703 -1.2303  3.7933  0.0847
 9865TIP3   OH251085   3.592   6.253   5.214  0.3134 -0.0208 -0.3422
 9865TIP3    H151086   3.600   6.347   5.197 -0.1585 -0.0714 -0.8526
 9865TIP3    H251087   3.634   6.241   5.299  1.6110  0.4358 -0.8957
 9866TIP3   OH251088   1.564   6.189  14.963  0.2681  0.8106 -0.3785
 9866TIP3    H151089   1.504   6.121  14.933  0.4966  0.4824 -0.0983
 9866TIP3    H251090   1.565   6.180  15.058  0.8427  0.7440 -0.3887
 9867TIP3   OH251091   6.673   5.174  14.973  0.2421 -0.5304  0.1529
 9867TIP3    H151092   6.641   5.252  14.928 -0.9368 -1.0475  0.0596
 9867TIP3    H251093   6.706   5.118  14.903  0.0191 -0.6052  0.1081
 9868TIP3   OH251094   3.503   0.732   3.706  0.2293  0.6384  0.4971
 9868TIP3    H151095   3.448   0.810   3.717  0.9805  1.5676 -1.8927
 9868TIP3    H251096   3.586   0.756   3.748 -0.7766 -0.3643  3.1622
 9869TIP3   OH251097   2.031   4.048   3.722 -0.3345 -1.2806  0.0407
 9869TIP3    H151098   1.936   4.045   3.738  0.0333 -1.9883  2.3110
 9869TIP3    H251099   2.039   4.041   3.627 -2.5409 -1.8050 -0.1505
 9870TIP3   OH251100   3.135   5.419  17.195 -0.6001 -0.1391 -0.5441
 9870TIP3    H151101   3.063   5.481  17.209 -0.3676  0.6179 -2.4823
 9870TIP3    H251102   3.172   5.445  17.110 -0.2902 -2.7628 -1.2326
 9871TIP3   OH251103   3.763   1.097  16.632 -0.1675 -0.5370  0.1560
 9871TIP3    H151104   3.771   1.187  16.603 -2.1537  0.0589  1.3768
 9871TIP3    H251105   3.711   1.054  16.565 -2.2289  0.1135  1.3036
 9872TIP3   OH251106   3.829   3.124  11.200  0.1670  0.4700  0.2438
 9872TIP3    H151107   3.911   3.140  11.153  0.6440 -1.2880  0.4656
 9872TIP3    H251108   3.762   3.161  11.143  0.9864  0.7574 -0.5585
 9873TIP3   OH251109   6.629   3.827   5.833 -0.1496  1.0397 -0.1465
 9873TIP3    H151110   6.577   3.901   5.865  2.3453  2.2997  1.0638
 9873TIP3    H251111   6.612   3.757   5.896 -2.6093  0.4805 -1.3568
 9874TIP3   OH251112   4.779   1.888  12.679  0.0162 -0.7611  0.2524
 9874TIP3    H151113   4.800   1.909  12.588 -2.4535  0.4962 -0.0646
 9874TIP3    H251114   4.745   1.969  12.716  1.0922 -1.2275  2.3511
 9875TIP3   OH251115   3.950   4.174  13.872 -0.2688 -0.1101  0.4093
 9875TIP3    H151116   3.893   4.245  13.843  0.7631  0.4932 -0.1594
 9875TIP3    H251117   4.001   4.211  13.943 -0.0505 -0.4125  0.4117
 9876TIP3   OH251118   2.754   1.796   5.546  0.2506 -0.4156  0.0934
 9876TIP3    H151119   2.774   1.889   5.553 -0.4713 -0.3727  1.5727
 9876TIP3    H251120   2.835   1.757   5.512  0.5715  0.7344 -0.4814
 9877TIP3   OH251121   2.001   0.420  11.803 -0.2800  0.1200 -0.0025
 9877TIP3    H151122   1.915   0.427  11.845  0.4699  0.9557  1.4250
 9877TIP3    H251123   2.024   0.327  11.810 -1.2696 -0.2088 -0.8543
 9878TIP3   OH251124   0.459   4.089  14.482  0.1180  0.4622 -0.2487
 9878TIP3    H151125   0.445   4.159  14.545  0.2763  0.4611 -0.2114
 9878TIP3    H251126   0.478   4.134  14.400  0.5497  0.4670 -0.1508
 9879TIP3   OH251127   2.133   5.478   1.596 -0.1697  0.3904  0.3822
 9879TIP3    H151128   2.079   5.477   1.517 -1.2826  0.3711  1.1310
 9879TIP3    H251129   2.170   5.566   1.599 -0.5002  0.5393  0.0903
 9880TIP3   OH251130   5.730   6.235   5.131 -0.0861 -0.0485  0.0300
 9880TIP3    H151131   5.688   6.215   5.048 -1.4063 -2.5238  1.2631
 9880TIP3    H251132   5.763   6.151   5.163  0.7224  0.9269  1.8421
 9881TIP3   OH251133   0.183   4.637   2.305  0.4081 -0.2069  0.4342
 9881TIP3    H151134   0.112   4.692   2.271 -0.4253 -1.1571  0.5997
 9881TIP3    H251135   0.261   4.666   2.259 -0.4238 -0.4114 -1.1142
 9882TIP3   OH251136   2.383   4.626  16.270 -0.6055  0.4783 -0.2157
 9882TIP3    H151137   2.358   4.671  16.351  1.6144 -1.1488  1.4194
 9882TIP3    H251138   2.337   4.542  16.274  3.0933 -1.5828  1.7234
 9883TIP3   OH251139   3.197   5.946  15.530  0.0519 -0.8590 -1.2188
 9883TIP3    H151140   3.138   5.967  15.602  0.0729 -0.3112 -1.3579
 9883TIP3    H251141   3.157   5.869  15.488  0.4628 -1.6689 -0.1531
 9884TIP3   OH251142   1.432   0.443  17.046 -0.1668 -0.2182 -0.5141
 9884TIP3    H151143   1.379   0.496  16.987  2.2692  1.7245 -1.0542
 9884TIP3    H251144   1.466   0.373  16.990 -0.6381 -0.3617 -0.6195
 9885TIP3   OH251145   2.375   5.494   3.946 -1.0433  0.2814  0.2287
 9885TIP3    H151146   2.433   5.570   3.934 -0.4045 -0.3552 -0.8596
 9885TIP3    H251147   2.304   5.508   3.883 -0.2966 -0.6032 -0.8289
 9886TIP3   OH251148   0.495   2.232   4.505 -0.1473 -0.2193  0.0596
 9886TIP3    H151149   0.573   2.177   4.495  0.2788 -0.1895  2.9362
 9886TIP3    H251150   0.529   2.321   4.515 -0.6285 -0.0080 -0.1752
 9887TIP3   OH251151   6.557   2.563   5.648  0.3042 -0.6543  0.2801
 9887TIP3    H151152   6.575   2.530   5.736 -0.6694  0.1027  0.7687
 9887TIP3    H251153   6.462   2.564   5.641  0.3727 -0.5234 -0.7136
 9888TIP3   OH251154   6.730   6.536   3.602 -0.2798  0.0621 -0.3588
 9888TIP3    H151155   6.771   6.620   3.581 -0.4509  0.7399  1.8937
 9888TIP3    H251156   6.636   6.556   3.606 -0.2219  0.0423  1.3567
 9889TIP3   OH251157   2.608   0.393   1.629  0.0365 -0.1322 -0.4741
 9889TIP3    H151158   2.637   0.419   1.716 -1.2176  0.3302 -0.1983
 9889TIP3    H251159   2.539   0.329   1.644 -0.6834  0.4828 -1.1224
 9890TIP3   OH251160   4.725   5.557   4.941 -0.2177 -0.1220 -0.5222
 9890TIP3    H151161   4.690   5.555   5.030 -1.2006  1.0224 -0.8772
 9890TIP3    H251162   4.820   5.551   4.952 -0.4095 -1.4211  0.5303
 9891TIP3   OH251163   1.534   2.431  15.747 -0.4816  0.2764  0.1238
 9891TIP3    H151164   1.575   2.407  15.664 -2.4896 -0.6519 -0.6227
 9891TIP3    H251165   1.441   2.413  15.734 -0.7819 -0.2134  2.6887
 9892TIP3   OH251166   3.638   0.972  14.121 -0.0167  0.5454  0.1912
 9892TIP3    H151167   3.616   1.008  14.036  1.0993  0.8741  0.0286
 9892TIP3    H251168   3.603   0.883  14.120 -1.9355  1.2805  0.2342
 9893TIP3   OH251169   1.784   4.068   4.457  0.1705 -0.3515 -0.3969
 9893TIP3    H151170   1.863   4.073   4.402  0.3679  0.3602 -0.0632
 9893TIP3    H251171   1.781   3.978   4.488  1.2086 -0.2103  0.1096
 9894TIP3   OH251172   2.203   2.377  14.033  0.2010 -0.3786 -0.0273
 9894TIP3    H151173   2.256   2.455  14.018  0.4476 -0.5055  0.1954
 9894TIP3    H251174   2.131   2.385  13.970 -0.1428  0.3658  0.4512
 9895TIP3   OH251175   3.608   5.601  10.517 -0.2699  0.1793 -0.3226
 9895TIP3    H151176   3.586   5.519  10.561 -0.0587 -0.4153 -1.3119
 9895TIP3    H251177   3.703   5.601  10.511 -0.3292 -0.0605 -1.3627
 9896TIP3   OH251178   0.675   3.852   2.299 -0.3129  0.3414 -0.5350
 9896TIP3    H151179   0.741   3.837   2.231  0.3061 -2.2739  0.5968
 9896TIP3    H251180   0.725   3.887   2.373 -0.2292 -1.3508  0.2161
 9897TIP3   OH251181   2.740   5.005  12.819 -0.4051 -0.1784 -0.2477
 9897TIP3    H151182   2.696   5.087  12.801 -0.9974 -0.0191  1.7573
 9897TIP3    H251183   2.686   4.963  12.886 -0.2865 -2.3481 -1.4573
 9898TIP3   OH251184   4.298   3.742  12.067 -0.1348  0.7724 -0.5737
 9898TIP3    H151185   4.378   3.732  12.015  0.2748  2.2072 -0.2387
 9898TIP3    H251186   4.235   3.778  12.006 -0.1558  0.8502 -0.5053
 9899TIP3   OH251187   6.178   5.609   1.544 -0.4456  0.7239 -0.3835
 9899TIP3    H151188   6.136   5.672   1.603 -1.0910 -0.4276  0.4306
 9899TIP3    H251189   6.158   5.640   1.456 -3.1131  0.1735 -0.0221
 9900TIP3   OH251190   4.466   3.361   4.465  0.2096 -0.2131 -0.3273
 9900TIP3    H151191   4.442   3.436   4.519 -1.1613  0.2569 -1.5364
 9900TIP3    H251192   4.554   3.337   4.493  0.8644  2.1870 -0.3117
 9901TIP3   OH251193   5.989   5.783  12.159 -0.8130 -0.5116 -0.3807
 9901TIP3    H151194   5.932   5.857  12.182 -1.8788 -0.9202 -1.6574
 9901TIP3    H251195   5.972   5.767  12.066  0.7547 -1.2022 -0.5602
 9902TIP3   OH251196   3.902   2.095  15.890 -0.2546 -0.0994  0.0927
 9902TIP3    H151197   3.853   2.026  15.847 -1.5104  0.4629  0.5867
 9902TIP3    H251198   3.890   2.078  15.984  0.9981 -0.3037  0.2196
 9903TIP3   OH251199   4.626   3.207  12.199 -0.1965 -0.2058  0.5682
 9903TIP3    H151200   4.557   3.157  12.242  0.3460 -0.1511  1.4958
 9903TIP3    H251201   4.693   3.142  12.178  0.5468  0.1412  1.8483
 9904TIP3   OH251202   0.908   4.805  13.406  0.4472  0.7239 -0.1424
 9904TIP3    H151203   0.923   4.867  13.334 -0.3797 -0.7468 -1.6094
 9904TIP3    H251204   0.813   4.802  13.415  0.5125  0.1841  0.3856
 9905TIP3   OH251205   3.150   5.087  15.757  0.2159  0.0137 -0.5925
 9905TIP3    H151206   3.232   5.098  15.709 -0.4167 -1.4036 -2.0398
 9905TIP3    H251207   3.147   4.994  15.780 -1.2798 -0.0910 -1.1335
 9906TIP3   OH251208   3.880   2.990  12.117 -0.1001  0.4256 -0.2981
 9906TIP3    H151209   3.786   2.985  12.099  0.0577 -0.4097 -0.9154
 9906TIP3    H251210   3.894   2.925  12.186  0.1811 -0.0824 -0.8390
 9907TIP3   OH251211   2.661   1.485  15.827 -0.1469 -0.2520 -0.5379
 9907TIP3    H151212   2.614   1.547  15.771 -0.9309  0.9084  1.3424
 9907TIP3    H251213   2.603   1.408  15.831 -1.1180  0.5005  0.3709
 9908TIP3   OH251214   4.017   5.637  12.330 -0.1475 -0.0991  1.2394
 9908TIP3    H151215   4.000   5.591  12.412 -0.0540 -1.1624  0.6736
 9908TIP3    H251216   3.946   5.701  12.323 -1.3372 -1.3992  1.1495
 9909TIP3   OH251217   6.205   1.780   2.607  0.1056  0.3063 -0.3531
 9909TIP3    H151218   6.143   1.833   2.556 -0.6684 -0.6342 -0.4033
 9909TIP3    H251219   6.236   1.838   2.676 -0.5618  0.8964 -0.5487
 9910TIP3   OH251220   5.396   4.037   6.095  0.7478  0.1845 -0.1153
 9910TIP3    H151221   5.476   3.991   6.122  1.0714  0.5879 -0.3852
 9910TIP3    H251222   5.343   3.969   6.053  0.2166 -0.4695  1.5463
 9911TIP3   OH251223   3.607   3.249  14.694 -0.8577  0.3694 -0.3432
 9911TIP3    H151224   3.621   3.275  14.785 -1.6238 -0.1514 -0.0722
 9911TIP3    H251225   3.608   3.154  14.695  0.7193  0.3707 -1.1456
 9912TIP3   OH251226   1.576   1.664  12.519  0.0191 -0.0802 -0.4664
 9912TIP3    H151227   1.536   1.609  12.587 -0.9048 -1.6823 -2.2654
 9912TIP3    H251228   1.657   1.696  12.560 -0.3116 -1.3397  1.2603
 9913TIP3   OH251229   4.375   2.113   5.479  0.5387  0.0664  0.2690
 9913TIP3    H151230   4.307   2.178   5.463 -0.2596 -0.5116  1.2365
 9913TIP3    H251231   4.394   2.076   5.393  0.7517  1.3293 -0.2306
 9914TIP3   OH251232   1.073   6.739  12.990  0.3899  0.3860  0.5947
 9914TIP3    H151233   1.107   6.650  12.991 -0.3373  0.1230  1.5399
 9914TIP3    H251234   0.985   6.732  12.953  1.2300  1.0474 -1.6643
 9915TIP3   OH251235   1.769   6.274  16.553 -0.3133 -0.0211 -0.4069
 9915TIP3    H151236   1.722   6.202  16.595  1.3619 -1.1124 -0.3665
 9915TIP3    H251237   1.714   6.298  16.478 -0.7038 -1.5984 -0.6447
 9916TIP3   OH251238   0.101   6.080  14.042  0.0037  0.4085 -0.6404
 9916TIP3    H151239   0.030   6.145  14.037  0.3165  0.8818  0.6860
 9916TIP3    H251240   0.079   6.015  13.976 -1.8738  0.3585  0.0068
 9917TIP3   OH251241   1.702   1.440   1.039 -0.2508  0.5660 -0.2467
 9917TIP3    H151242   1.661   1.498   0.975 -0.3289  0.1832 -0.5494
 9917TIP3    H251243   1.783   1.484   1.064  0.7396 -0.1905 -2.0659
 9918TIP3   OH251244   5.133   1.815  10.621 -0.2786 -0.1112 -0.0408
 9918TIP3    H151245   5.150   1.763  10.543  0.7540  0.3088 -0.1016
 9918TIP3    H251246   5.053   1.778  10.657 -0.5856 -0.5171 -1.1192
 9919TIP3   OH251247   2.079   4.236   0.176 -0.2431  0.4131 -0.5101
 9919TIP3    H151248   2.136   4.218   0.251  0.4030 -1.2770 -1.3713
 9919TIP3    H251249   2.138   4.274   0.110 -1.2448  4.1711  0.6165
 9920TIP3   OH251250   1.031   0.553   1.585  0.0660 -0.5828  0.2783
 9920TIP3    H151251   1.039   0.461   1.558 -1.7046 -0.5949 -0.2113
 9920TIP3    H251252   0.942   0.561   1.618  0.0924  1.0711 -0.0278
 9921TIP3   OH251253   5.976   1.426   5.017 -0.0670 -0.5341  0.0996
 9921TIP3    H151254   5.953   1.507   4.970 -1.5635 -0.6047  0.6890
 9921TIP3    H251255   6.019   1.456   5.097 -1.9392 -0.2374  1.0349
 9922TIP3   OH251256   2.286   2.443   4.278  0.2976 -0.2582 -0.0806
 9922TIP3    H151257   2.293   2.464   4.184  0.0357  0.8020  0.1328
 9922TIP3    H251258   2.212   2.383   4.284  1.0051 -1.2094 -0.6912
 9923TIP3   OH251259   5.795   4.745  13.099 -0.4990 -0.1735  0.9000
 9923TIP3    H151260   5.888   4.745  13.078 -0.5517 -0.0069  0.6713
 9923TIP3    H251261   5.754   4.693  13.029 -0.8006  1.1881  0.0425
 9924TIP3   OH251262   2.910   3.113  14.601  0.1743  0.2712 -0.0106
 9924TIP3    H151263   2.848   3.042  14.617  1.0200 -0.3726  0.4729
 9924TIP3    H251264   2.901   3.133  14.508  0.6275 -1.1436 -0.3760
 9925TIP3   OH251265   2.526   1.603   4.793 -0.4407  0.2817  0.2840
 9925TIP3    H151266   2.606   1.550   4.794 -1.7112 -1.6986  2.7894
 9925TIP3    H251267   2.556   1.692   4.812  1.4719  0.1008 -1.6877
 9926TIP3   OH251268   2.105   0.693  15.996  0.4432  0.0024  0.0592
 9926TIP3    H151269   2.198   0.676  16.007  0.7251  1.3994 -0.0799
 9926TIP3    H251270   2.068   0.609  15.968  1.5087 -0.7674  0.9482
 9927TIP3   OH251271   6.084   4.503  14.921  0.1697 -0.5006 -0.0300
 9927TIP3    H151272   6.058   4.431  14.863 -1.2434  1.5049 -1.9390
 9927TIP3    H251273   6.150   4.551  14.871 -0.9248  1.1407  0.0706
 9928TIP3   OH251274   5.799   5.408   0.978 -0.0921 -0.6122 -0.3261
 9928TIP3    H151275   5.879   5.453   1.007 -1.0916  0.7365  0.4050
 9928TIP3    H251276   5.757   5.470   0.919 -0.6812 -1.2599 -0.5889
 9929TIP3   OH251277   6.612   1.280  11.481  0.4175 -0.0262  0.7793
 9929TIP3    H151278   6.573   1.221  11.416  1.1346 -0.2993  0.5907
 9929TIP3    H251279   6.704   1.255  11.483  0.8820  1.5820  0.1566
 9930TIP3   OH251280   1.721   6.474   4.962 -0.1119  0.0872 -0.2246
 9930TIP3    H151281   1.804   6.511   4.993  0.3029  0.8355 -2.1922
 9930TIP3    H251282   1.725   6.382   4.989  1.9988 -0.2478 -1.5232
 9931TIP3   OH251283   4.753   2.436  11.961 -0.2591 -0.2981  0.4012
 9931TIP3    H151284   4.795   2.351  11.946  0.0140 -0.0139 -0.4768
 9931TIP3    H251285   4.661   2.415  11.979 -0.0024 -0.8373  1.0915
 9932TIP3   OH251286   1.574   2.096  15.397  0.5561  0.1612  1.0571
 9932TIP3    H151287   1.622   2.020  15.365  0.5670  0.0799  1.2622
 9932TIP3    H251288   1.525   2.063  15.473 -0.1774  0.1380  0.5770
 9933TIP3   OH251289   5.464   5.657   2.121 -0.4151 -0.0562 -0.4467
 9933TIP3    H151290   5.553   5.636   2.149  0.5741  0.6976 -2.8836
 9933TIP3    H251291   5.452   5.748   2.147 -0.7259 -0.3493  0.4558
 9934TIP3   OH251292   4.201   1.819  12.049  0.0196 -0.5961  0.1004
 9934TIP3    H151293   4.135   1.752  12.029 -0.4548 -0.2947  0.6727
 9934TIP3    H251294   4.284   1.779  12.022 -0.3525 -1.1044 -0.3094
 9935TIP3   OH251295   4.108   2.070  13.848 -0.0384  0.2760  0.6099
 9935TIP3    H151296   4.096   2.032  13.935 -2.7609  0.4047  0.3364
 9935TIP3    H251297   4.090   1.998  13.787 -0.0230  0.6476  0.1579
 9936TIP3   OH251298   6.696   4.204  16.609 -0.3334 -0.2423 -0.2189
 9936TIP3    H151299   6.753   4.152  16.665  0.3447 -0.5392 -1.1687
 9936TIP3    H251300   6.745   4.215  16.527 -1.1623  0.4659 -0.6364
 9937TIP3   OH251301   5.376   0.802  17.161  0.7766 -0.3842 -0.3379
 9937TIP3    H151302   5.434   0.844  17.224  1.5546 -2.9725  0.7596
 9937TIP3    H251303   5.395   0.708  17.170  0.0807 -0.9116 -3.6122
 9938TIP3   OH251304   1.775   0.492  17.226 -0.1829  0.1253 -0.4940
 9938TIP3    H151305   1.684   0.521  17.217 -0.1401  0.6989  0.6910
 9938TIP3    H251306   1.799   0.461  17.139 -0.4993  2.9497 -1.6624
 9939TIP3   OH251307   4.622   4.824  15.316 -0.0040 -0.3350  0.0767
 9939TIP3    H151308   4.536   4.861  15.335  0.0179 -0.9582  1.4478
 9939TIP3    H251309   4.677   4.900  15.297 -0.2328  0.2894  1.7611
 9940TIP3   OH251310   6.724   4.596  12.220  0.4046 -0.1056 -0.0868
 9940TIP3    H151311   6.809   4.626  12.251  0.4688 -0.1683 -0.2004
 9940TIP3    H251312   6.707   4.515  12.268  0.5168 -0.2175 -0.2370
 9941TIP3   OH251313   2.104   2.757   3.538 -0.1253  0.6968  0.0871
 9941TIP3    H151314   2.191   2.795   3.527  0.5104 -0.2442  1.6704
 9941TIP3    H251315   2.095   2.695   3.465  0.9687  0.0457  0.4894
 9942TIP3   OH251316   4.773   1.174   1.505  0.1008 -0.0757  0.6868
 9942TIP3    H151317   4.813   1.106   1.451 -0.5981  1.5892 -2.0363
 9942TIP3    H251318   4.847   1.219   1.545  0.7154 -0.5616  0.1242
 9943TIP3   OH251319   1.788   4.149   6.335  0.0706 -0.0457 -0.2380
 9943TIP3    H151320   1.797   4.239   6.304  0.4955 -0.8383 -2.5019
 9943TIP3    H251321   1.842   4.145   6.414 -0.8583  1.9699  0.5200
 9944TIP3   OH251322   1.360   1.850  11.288 -0.7762 -0.4341 -0.1812
 9944TIP3    H151323   1.415   1.784  11.330  0.4206  0.0203 -0.9970
 9944TIP3    H251324   1.270   1.823  11.307 -0.2708 -1.2537  1.0685
 9945TIP3   OH251325   1.735   5.604   3.269 -0.4904  0.1039  0.5298
 9945TIP3    H151326   1.706   5.517   3.296 -2.1075  0.4134 -0.1259
 9945TIP3    H251327   1.690   5.664   3.328  0.5622  0.5064  0.9313
 9946TIP3   OH251328   3.496   3.039  12.244 -0.3522  0.4419 -0.2807
 9946TIP3    H151329   3.407   3.052  12.210 -0.7144  2.0001  1.2081
 9946TIP3    H251330   3.549   3.105  12.199 -0.5219  1.4365  0.9559
 9947TIP3   OH251331   1.085   6.240   1.655  0.7558  0.1523 -0.4556
 9947TIP3    H151332   1.086   6.163   1.713 -1.8200 -0.1604 -0.7364
 9947TIP3    H251333   1.049   6.310   1.710  2.0875  0.9010 -0.5191
 9948TIP3   OH251334   4.930   6.698  14.145  0.4800 -0.3054  0.6192
 9948TIP3    H151335   4.969   6.785  14.145 -0.0259 -0.0795  0.8742
 9948TIP3    H251336   4.897   6.687  14.234 -1.0704 -0.0384  0.0787
 9949TIP3   OH251337   3.385   0.929   0.594 -0.2416  0.2451  0.0689
 9949TIP3    H151338   3.331   0.908   0.518 -0.2505 -0.9017  0.3772
 9949TIP3    H251339   3.419   1.016   0.576  0.4918 -0.3702 -1.6796
 9950TIP3   OH251340   6.027   5.386   2.110 -0.0794  0.0755 -0.4366
 9950TIP3    H151341   6.018   5.475   2.144  2.7288  0.3362 -0.2784
 9950TIP3    H251342   6.013   5.395   2.016  2.0064  1.0095 -0.6725
 9951TIP3   OH251343   4.984   4.840  13.516  0.0971  0.2337  0.5871
 9951TIP3    H151344   4.975   4.759  13.465 -1.1815 -0.3552  1.7225
 9951TIP3    H251345   5.078   4.848  13.533  0.3352 -0.4874 -0.3653
 9952TIP3   OH251346   6.023   4.611   1.683 -0.9097  0.0529  0.2382
 9952TIP3    H151347   5.990   4.701   1.682  0.3504  0.5238  0.0982
 9952TIP3    H251348   6.094   4.611   1.619 -0.4780 -0.8873  0.7137
 9953TIP3   OH251349   2.670   3.140  15.233  0.3265 -0.3956 -0.6016
 9953TIP3    H151350   2.642   3.207  15.296 -0.0244  1.4015 -2.5792
 9953TIP3    H251351   2.744   3.097  15.275 -0.6972 -0.1404  1.5738
 9954TIP3   OH251352   6.147   4.153  16.203  0.4930 -0.8225  0.0611
 9954TIP3    H151353   6.108   4.122  16.121  0.9981 -1.2126 -0.0326
 9954TIP3    H251354   6.083   4.216  16.237  0.9591  0.4630 -1.3746
 9955TIP3   OH251355   2.557   0.922   3.954  0.0908 -0.7952 -0.1846
 9955TIP3    H151356   2.583   0.990   4.016 -1.9928 -0.8520  0.7927
 9955TIP3    H251357   2.635   0.867   3.944  0.7230 -0.2548  1.6957
 9956TIP3   OH251358   5.357   4.474  11.874  1.0683 -0.2666 -0.0847
 9956TIP3    H151359   5.440   4.501  11.914  1.0564  0.6892 -0.6776
 9956TIP3    H251360   5.383   4.438  11.788  0.7781  1.2044 -0.8074
 9957TIP3   OH251361   3.382   3.380   0.667  0.0963  0.0366  0.4256
 9957TIP3    H151362   3.451   3.344   0.611  0.7352 -0.1081  1.2952
 9957TIP3    H251363   3.403   3.474   0.673 -0.9273  0.3726 -0.9235
 9958TIP3   OH251364   4.816   0.261  14.099  0.1714  0.7641  0.2736
 9958TIP3    H151365   4.741   0.316  14.122  2.8043  3.3896  3.0855
 9958TIP3    H251366   4.868   0.315  14.040  2.6621  1.2423  2.8523
 9959TIP3   OH251367   4.306   0.528   1.517 -0.5462  0.0939 -0.2503
 9959TIP3    H151368   4.382   0.553   1.465 -1.3000 -0.5196 -1.6885
 9959TIP3    H251369   4.241   0.596   1.500 -0.2347  0.7664  1.1903
 9960TIP3   OH251370   2.556   0.084   4.090 -0.3379 -0.3012 -0.0674
 9960TIP3    H151371   2.512  -0.001   4.096 -0.5810 -0.0935  1.3993
 9960TIP3    H251372   2.560   0.115   4.181 -0.0857  1.1711 -0.5671
 9961TIP3   OH251373   5.974   1.929  14.561 -0.8406  0.4099 -0.5127
 9961TIP3    H151374   6.068   1.940  14.544 -0.7376 -1.9332 -1.6929
 9961TIP3    H251375   5.970   1.865  14.632 -1.5630  0.0054 -0.9186
 9962TIP3   OH251376   5.899   1.800   0.991 -0.1644 -0.2275 -0.2384
 9962TIP3    H151377   5.968   1.867   0.991  0.3260 -0.7122  0.7980
 9962TIP3    H251378   5.819   1.848   0.970  0.6156  0.2000 -2.2814
 9963TIP3   OH251379   6.405   6.235   3.547 -0.1374 -0.2679 -0.2625
 9963TIP3    H151380   6.435   6.212   3.459 -1.4386 -0.5877 -0.6320
 9963TIP3    H251381   6.476   6.209   3.604  0.5636 -0.4151 -1.1846
 9964TIP3   OH251382   6.373   0.267  15.944 -0.4266 -0.1050 -0.0185
 9964TIP3    H151383   6.375   0.208  16.020  4.9823 -1.0841 -0.6922
 9964TIP3    H251384   6.385   0.354  15.982 -1.4029 -0.1758  0.4787
 9965TIP3   OH251385   5.783   4.236  13.924  0.8092  0.1112  0.5471
 9965TIP3    H151386   5.773   4.141  13.916  0.2461  0.0342  2.1170
 9965TIP3    H251387   5.792   4.252  14.018 -1.2851  1.8374  0.4778
 9966TIP3   OH251388   2.905   3.240   2.108  0.6379  0.6349  0.3295
 9966TIP3    H151389   2.997   3.215   2.098 -0.2261 -2.0048 -1.5559
 9966TIP3    H251390   2.873   3.187   2.181 -0.5707 -2.0804 -2.1000
 9967TIP3   OH251391   3.430   5.353  10.880 -0.2892  0.4774 -0.4837
 9967TIP3    H151392   3.379   5.275  10.858  2.3053 -1.9849  1.8114
 9967TIP3    H251393   3.367   5.411  10.921 -1.7758 -1.4703  0.0951
 9968TIP3   OH251394   2.336   0.531   0.664  0.4562 -0.0097 -0.1194
 9968TIP3    H151395   2.296   0.566   0.744  1.6546 -1.4862  1.1714
 9968TIP3    H251396   2.423   0.571   0.663  0.2044  0.5230 -1.0579
 9969TIP3   OH251397   6.164   5.535  16.889  0.0004  0.2433 -0.2557
 9969TIP3    H151398   6.172   5.458  16.832  0.3018  1.6886 -2.2146
 9969TIP3    H251399   6.096   5.511  16.952 -0.1852 -1.4792 -1.0661
 9970TIP3   OH251400   1.338   5.268  16.500 -0.1666  0.2940 -0.2964
 9970TIP3    H151401   1.309   5.359  16.501 -0.7284  0.2013 -3.3225
 9970TIP3    H251402   1.265   5.219  16.536 -0.4586  0.8788 -0.0808
 9971TIP3   OH251403   1.920   3.412   3.249  0.4324  0.5513 -0.0006
 9971TIP3    H151404   1.971   3.396   3.170 -0.2727  1.0947 -0.5769
 9971TIP3    H251405   1.859   3.338   3.253  0.7304  0.3170  0.2557
 9972TIP3   OH251406   3.689   1.040  12.301 -0.2255  0.1887  0.1433
 9972TIP3    H151407   3.678   1.108  12.367 -1.0890  1.0768 -0.8819
 9972TIP3    H251408   3.782   1.041  12.280 -0.2011  0.9253  0.2774
 9973TIP3   OH251409   4.680   1.836  12.127 -0.4123 -0.2369 -0.4353
 9973TIP3    H151410   4.684   1.912  12.070 -0.7636  0.2643  0.1942
 9973TIP3    H251411   4.768   1.798  12.125  0.1120  0.9215  0.2334
 9974TIP3   OH251412   5.646   5.902  12.979  0.4814  0.5846  0.0908
 9974TIP3    H151413   5.629   5.858  13.062 -1.4467  0.6520 -0.2497
 9974TIP3    H251414   5.563   5.900  12.932  1.4506  0.8372 -1.7164
 9975TIP3   OH251415   1.164   0.924   0.181  0.0451  0.3802  0.4533
 9975TIP3    H151416   1.150   0.866   0.255  1.9716  0.2754  0.7559
 9975TIP3    H251417   1.088   0.982   0.182 -2.1267 -2.3165 -0.0794
 9976TIP3   OH251418   3.222   1.852   5.515 -0.0574 -0.5413  0.0357
 9976TIP3    H151419   3.289   1.785   5.505  0.6624  0.2761 -0.5972
 9976TIP3    H251420   3.269   1.930   5.546 -0.6402  0.1704 -0.8421
 9977TIP3   OH251421   5.672   2.334   4.905  0.1421 -0.3672  0.1550
 9977TIP3    H151422   5.732   2.337   4.831  0.2979 -0.6124  0.2704
 9977TIP3    H251423   5.614   2.261   4.886 -0.7052  0.4295 -0.4008
 9978TIP3   OH251424   5.039   0.347  13.975 -0.1171 -0.5874 -0.8979
 9978TIP3    H151425   5.081   0.305  13.901  1.2782  0.7410 -0.8964
 9978TIP3    H251426   5.112   0.385  14.025 -1.3002  1.6890 -0.8470
 9979TIP3   OH251427   5.049   6.777   2.794 -0.0007  0.2278  0.0639
 9979TIP3    H151428   5.044   6.682   2.784 -0.7815  0.3609 -0.8612
 9979TIP3    H251429   4.961   6.808   2.774  0.3809  1.1996 -0.1345
 9980TIP3   OH251430   2.480   6.077   6.323 -0.0198 -0.3782 -0.4160
 9980TIP3    H151431   2.477   6.082   6.419  0.0791  0.9294 -0.4733
 9980TIP3    H251432   2.485   6.168   6.294 -0.5281 -0.7394 -1.6880
 9981TIP3   OH251433   2.636   0.847  14.399 -0.1315  0.6823 -0.1068
 9981TIP3    H151434   2.719   0.833  14.354  1.1196  0.8739  2.0738
 9981TIP3    H251435   2.603   0.929  14.362  1.8865  1.9310  0.7172
 9982TIP3   OH251436   4.328   3.196  10.419 -0.2823 -0.2914  0.4209
 9982TIP3    H151437   4.286   3.168  10.338 -0.3346  0.9985 -0.0038
 9982TIP3    H251438   4.258   3.234  10.471 -0.2219 -0.9984  1.0292
 9983TIP3   OH251439   5.508   4.141   2.665  0.2691 -0.1892  0.2133
 9983TIP3    H151440   5.490   4.171   2.576 -2.1351 -1.9513  0.0339
 9983TIP3    H251441   5.517   4.046   2.656 -0.7255 -0.4696  1.9313
 9984TIP3   OH251442   2.246   4.697   2.010 -0.1489  0.3226  0.0633
 9984TIP3    H151443   2.206   4.702   2.098 -0.9247  1.6379 -0.3367
 9984TIP3    H251444   2.340   4.688   2.027 -0.2848  0.6241  1.0440
 9985TIP3   OH251445   3.766   0.965   3.324 -0.0463 -0.1826  0.1751
 9985TIP3    H151446   3.753   0.871   3.319 -0.2137 -0.1161 -0.7935
 9985TIP3    H251447   3.812   0.987   3.243 -0.1232  0.5834  0.3359
 9986TIP3   OH251448   4.552   2.348  15.914 -0.5617  0.1092  0.1976
 9986TIP3    H151449   4.501   2.282  15.961  0.1065 -0.4623  0.1244
 9986TIP3    H251450   4.488   2.416  15.890 -1.1266 -0.1979  0.8397
 9987TIP3   OH251451   0.348   4.294  11.010  0.1157  0.3786 -0.1855
 9987TIP3    H151452   0.361   4.363  10.945  1.3794 -1.2285 -1.6726
 9987TIP3    H251453   0.366   4.337  11.094  1.0751  1.8038 -1.0983
 9988TIP3   OH251454   1.287   3.988  12.138 -0.2967  0.3733 -0.2826
 9988TIP3    H151455   1.225   3.976  12.210 -0.3400  1.8697 -0.0578
 9988TIP3    H251456   1.328   3.902  12.127 -1.1181 -0.1581  0.7601
 9989TIP3   OH251457   4.026   1.656  13.457  0.2798  0.1421 -0.0302
 9989TIP3    H151458   3.999   1.566  13.474 -1.1934  0.4903 -0.4418
 9989TIP3    H251459   4.037   1.695  13.544 -0.2594 -0.0977  0.1462
 9990TIP3   OH251460   0.396   3.798   1.734 -0.1438  0.1000 -0.0200
 9990TIP3    H151461   0.346   3.822   1.657 -1.1812 -0.2361  0.5449
 9990TIP3    H251462   0.391   3.702   1.737  0.5174  0.0630  0.0507
 9991TIP3   OH251463   2.774   3.911  10.820 -0.3471 -0.0653 -0.5350
 9991TIP3    H151464   2.682   3.931  10.803 -0.9981 -1.4859  1.1393
 9991TIP3    H251465   2.783   3.818  10.798  0.2812 -0.3390  0.7922
 9992TIP3   OH251466   5.341   5.513   5.430 -0.0205  0.8752 -0.1777
 9992TIP3    H151467   5.258   5.493   5.386 -0.5009 -0.7071  1.3969
 9992TIP3    H251468   5.338   5.608   5.444 -1.6911  0.7963  0.0980
 9993TIP3   OH251469   5.385   0.794  12.646  0.0179  0.1249 -0.0795
 9993TIP3    H151470   5.365   0.869  12.590  0.1295  0.4954  0.3794
 9993TIP3    H251471   5.346   0.719  12.600 -1.2401  0.6415  0.1101
 9994TIP3   OH251472   5.412   0.628   6.441  0.3500  0.4185  0.5537
 9994TIP3    H151473   5.477   0.619   6.372  1.2383 -0.2947  1.4605
 9994TIP3    H251474   5.456   0.682   6.508  0.2674 -0.5984  1.4506
 9995TIP3   OH251475   1.324   5.415  12.562 -0.8261 -0.0920  0.3124
 9995TIP3    H151476   1.378   5.365  12.624 -0.1326  2.6934  2.0587
 9995TIP3    H251477   1.370   5.499  12.553 -2.0581  0.3468 -2.3759
 9996TIP3   OH251478   5.898   5.961   6.212  0.3777  0.0017  0.9438
 9996TIP3    H151479   5.984   5.984   6.247  0.4563 -2.1344  2.2562
 9996TIP3    H251480   5.908   5.871   6.181 -1.3053 -0.1732  0.8493
 9997TIP3   OH251481   4.160   0.983   6.143 -0.4917 -0.3749  0.2253
 9997TIP3    H151482   4.141   1.068   6.184  0.1932  0.2043 -0.6155
 9997TIP3    H251483   4.075   0.949   6.118 -0.7288  0.4261 -0.0967
 9998TIP3   OH251484   2.274   6.662  14.061 -0.1781 -0.3032  0.3320
 9998TIP3    H151485   2.334   6.629  14.128  2.7492  1.3502 -1.3455
 9998TIP3    H251486   2.287   6.757  14.062 -1.0227 -0.1378 -1.6568
 9999TIP3   OH251487   4.349   3.490  12.812  0.2218 -0.7387  0.7812
 9999TIP3    H151488   4.426   3.460  12.860  2.2722 -0.9591 -2.5140
 9999TIP3    H251489   4.354   3.445  12.728 -3.0339 -0.0326  0.1443
10000TIP3   OH251490   3.951   0.543  13.451 -0.1353  0.1009  1.1745
10000TIP3    H151491   3.867   0.499  13.462 -0.4440  0.6112  0.9155
10000TIP3    H251492   3.928   0.636  13.443  0.4047  0.1876  0.5761
10001TIP3   OH251493   5.905   5.881   0.520  0.2908 -0.2280 -0.1118
10001TIP3    H151494   5.949   5.804   0.557  0.1483 -0.1176  0.2848
10001TIP3    H251495   5.822   5.847   0.486  0.5351 -0.3777 -0.5776
10002TIP3   OH251496   3.061   1.825   1.094  0.4293 -0.0369 -0.1757
10002TIP3    H151497   3.022   1.793   1.013  1.5037 -0.2825 -0.6065
10002TIP3    H251498   2.991   1.875   1.136 -0.1003  0.2100 -1.3198
10003TIP3   OH251499   4.458   0.659   0.969  0.1481 -0.4002  0.1556
10003TIP3    H151500   4.554   0.667   0.977  0.2452 -1.7579  0.4545
10003TIP3    H251501   4.443   0.566   0.957 -1.2832 -0.4073  1.9355
10004TIP3   OH251502   5.916   1.782  14.298 -0.5476 -0.2502  0.2533
10004TIP3    H151503   5.899   1.826  14.381  0.2509 -1.2662  0.9712
10004TIP3    H251504   5.846   1.718  14.289 -1.4640  0.8501 -0.5807
10005TIP3   OH251505   0.448   5.297  16.069  0.0320 -0.9917  0.0956
10005TIP3    H151506   0.464   5.229  16.003 -0.6407 -1.4562  0.4048
10005TIP3    H251507   0.502   5.272  16.143  3.9868  1.7494 -1.7350
10006TIP3   OH251508   0.123   0.216  11.252 -0.4331 -0.5926  0.9249
10006TIP3    H151509   0.144   0.219  11.159  0.3854 -2.2062  1.0297
10006TIP3    H251510   0.063   0.289  11.266 -1.1418 -0.7846 -1.0038
10007TIP3   OH251511   5.504   1.369  14.339  1.0113  0.2867  0.0163
10007TIP3    H151512   5.427   1.404  14.295  1.1291 -0.3934 -0.7411
10007TIP3    H251513   5.473   1.343  14.426  0.1347 -1.0062 -0.6767
10008TIP3   OH251514   4.062   0.283   0.092 -0.4719 -0.0003 -0.1470
10008TIP3    H151515   4.034   0.257   0.180  2.2234  0.8763  1.0287
10008TIP3    H251516   4.059   0.379   0.093  0.1641  0.0348 -0.7962
10009TIP3   OH251517   4.143   3.446  14.893 -0.0533 -0.1945 -0.3545
10009TIP3    H151518   4.205   3.430  14.963 -0.2719 -0.1580 -0.1519
10009TIP3    H251519   4.061   3.467  14.937 -0.2057 -0.2240 -0.6186
10010TIP3   OH251520   4.501   2.137  11.430 -0.3269 -0.2575  0.0610
10010TIP3    H151521   4.511   2.114  11.522 -0.9677 -0.4603  0.0826
10010TIP3    H251522   4.407   2.124  11.412 -0.2234 -0.1218 -0.5873
10011TIP3   OH251523   2.125   5.700   0.189 -0.1115 -0.0500  0.4525
10011TIP3    H151524   2.045   5.741   0.221  0.2024 -0.5460  1.9016
10011TIP3    H251525   2.102   5.668   0.102 -0.2025  3.6526 -0.9824
10012TIP3   OH251526   0.289   4.577  16.487 -0.4663  0.6661 -0.1393
10012TIP3    H151527   0.295   4.601  16.394 -1.4650 -0.1911 -0.4364
10012TIP3    H251528   0.312   4.657  16.534  0.6427  0.9499 -1.1286
10013TIP3   OH251529   4.217   6.642   0.986 -0.5612 -0.3230 -0.5246
10013TIP3    H151530   4.198   6.597   1.068 -0.7445  0.7309  0.0311
10013TIP3    H251531   4.133   6.680   0.959  0.4338  3.6246  1.4873
10014TIP3   OH251532   3.093   2.976   5.596  0.3240  0.7283  0.3984
10014TIP3    H151533   3.153   2.958   5.524 -1.1162 -0.2971 -0.5633
10014TIP3    H251534   3.054   2.891   5.617 -0.3848  1.2873  1.3974
10015TIP3   OH251535   3.545   3.908   5.964 -0.0603 -0.1361 -0.4626
10015TIP3    H151536   3.554   3.993   6.006 -0.3533 -0.5809  0.5139
10015TIP3    H251537   3.455   3.881   5.983 -0.4739  0.0447 -2.1152
10016TIP3   OH251538   6.092   3.027  14.513  0.4685  0.0053 -0.3409
10016TIP3    H151539   6.127   3.044  14.600  0.8573  2.6524 -0.9815
10016TIP3    H251540   6.169   3.005  14.460  0.7956  2.5240 -0.9648
10017TIP3   OH251541   4.991   3.475   0.838  0.3311 -0.3397  0.2565
10017TIP3    H151542   5.080   3.456   0.868  0.6961  1.0808  0.1215
10017TIP3    H251543   4.999   3.485   0.744  0.0296 -0.2035  0.2444
10018TIP3   OH251544   3.435   6.341   3.282  0.1906  0.5233  0.8209
10018TIP3    H151545   3.460   6.345   3.190  1.5242  0.6161  1.1694
10018TIP3    H251546   3.478   6.416   3.322  0.4128 -0.0642  1.6962
10019TIP3   OH251547   0.567   5.701   5.506  0.1197  0.4968 -0.0387
10019TIP3    H151548   0.541   5.632   5.444 -2.1942  1.3006 -0.0093
10019TIP3    H251549   0.491   5.759   5.509  1.4447  2.1742  1.1681
10020TIP3   OH251550   5.273   3.444   4.909  0.0892 -0.2049 -0.0459
10020TIP3    H151551   5.348   3.491   4.945  0.2519  0.7933 -1.6253
10020TIP3    H251552   5.202   3.509   4.909  0.3535  0.1197 -2.3652
10021TIP3   OH251553   4.899   5.954   1.464 -0.9156 -0.2463 -0.1866
10021TIP3    H151554   4.816   5.985   1.501 -1.3480 -1.1581 -0.3624
10021TIP3    H251555   4.906   5.999   1.380 -0.6611  0.7146  0.3489
10022TIP3   OH251556   6.634   6.224  12.189  0.3078 -0.0750 -0.6304
10022TIP3    H151557   6.694   6.217  12.114 -1.0191  0.8395 -1.8159
10022TIP3    H251558   6.577   6.298  12.167  0.1028  0.4273  1.4535
10023TIP3   OH251559   6.067   3.951  16.944 -1.0920 -0.0511  0.2922
10023TIP3    H151560   5.975   3.952  16.918 -0.9557  0.3556 -0.1756
10023TIP3    H251561   6.105   3.879  16.894 -0.5565  1.5111 -1.6075
10024TIP3   OH251562   0.989   2.272   3.160 -0.3103 -0.3139 -0.8246
10024TIP3    H151563   1.051   2.323   3.212 -1.6561  1.8795 -1.3000
10024TIP3    H251564   1.036   2.192   3.137  1.2629 -0.0493  1.3900
10025TIP3   OH251565   3.949   0.870   1.558 -0.4833 -0.1065 -0.5010
10025TIP3    H151566   4.009   0.845   1.628  0.3922 -0.4424 -1.3581
10025TIP3    H251567   3.920   0.787   1.521 -0.0777  0.0876 -1.2594
10026TIP3   OH251568   2.580   1.633  13.509 -0.0786 -0.4278 -0.6167
10026TIP3    H151569   2.512   1.567  13.523  0.1807 -0.4525  0.5274
10026TIP3    H251570   2.662   1.586  13.525  0.1782 -0.1872 -1.1978
10027TIP3   OH251571   3.430   2.016   0.321  0.2739  0.3173  0.3317
10027TIP3    H151572   3.362   2.076   0.293  0.4545  1.0287  1.4178
10027TIP3    H251573   3.479   2.063   0.388  2.3644  0.1430 -1.0103
10028TIP3   OH251574   0.925   3.624  12.034  0.2885  0.1321 -0.2440
10028TIP3    H151575   0.914   3.692  12.100 -0.4556  0.9394 -1.1739
10028TIP3    H251576   1.017   3.600  12.038  1.0940  2.8370 -1.4740
10029TIP3   OH251577   2.411   5.780   5.190 -0.1374 -0.1772 -0.0674
10029TIP3    H151578   2.360   5.778   5.109 -0.4314 -2.3748  0.1362
10029TIP3    H251579   2.392   5.865   5.229 -2.6316 -0.4411 -0.6459
10030TIP3   OH251580   2.029   5.245   2.695 -0.5111  0.0024  0.2260
10030TIP3    H151581   1.939   5.238   2.661 -0.6208 -0.2964  0.5672
10030TIP3    H251582   2.019   5.297   2.776 -0.4138 -0.2496  0.3992
10031TIP3   OH251583   1.449   0.021  12.982  0.0996 -0.3953 -0.2058
10031TIP3    H151584   1.412   0.060  13.061 -1.4720 -1.0241 -0.6129
10031TIP3    H251585   1.407  -0.065  12.976  0.8900 -0.7173 -1.2350
10032TIP3   OH251586   6.806   0.516  12.081  0.5201  0.1092 -0.3311
10032TIP3    H151587   6.854   0.543  12.003  1.6447 -0.1325  0.2794
10032TIP3    H251588   6.766   0.432  12.057  0.8285  0.0566 -0.6536
10033TIP3   OH251589   0.414   3.433   5.693  0.6430 -0.0520 -0.2478
10033TIP3    H151590   0.433   3.490   5.767 -0.5476 -0.7104  0.5786
10033TIP3    H251591   0.371   3.356   5.731 -3.6147  1.3118 -1.9522
10034TIP3   OH251592   0.167   3.725  14.746 -0.0545  0.2830 -0.1862
10034TIP3    H151593   0.198   3.648  14.697 -1.7119 -0.3003 -0.3531
10034TIP3    H251594   0.198   3.710  14.835  1.0216  0.2274 -0.5558
10035TIP3   OH251595   0.975   1.441   3.279 -0.3198  0.6156 -0.7178
10035TIP3    H151596   0.983   1.468   3.371  0.1482  0.1061 -0.6093
10035TIP3    H251597   0.899   1.490   3.247  0.4392  1.9707 -0.4769
10036TIP3   OH251598   5.607   0.498  13.792 -0.5359  0.7224  0.0970
10036TIP3    H151599   5.521   0.490  13.750  0.2398  2.1233 -1.7941
10036TIP3    H251600   5.661   0.432  13.748 -0.1070  1.2056 -0.0967
10037TIP3   OH251601   2.820   3.950  15.738 -0.2000  0.0731  0.0294
10037TIP3    H151602   2.776   4.034  15.753 -0.3547  0.0630 -0.3727
10037TIP3    H251603   2.748   3.888  15.723 -0.1515 -0.3859  1.5795
10038TIP3   OH251604   1.137   1.345   5.420 -0.4117 -0.0568 -1.1495
10038TIP3    H151605   1.055   1.299   5.399  0.6341 -1.5161 -2.2007
10038TIP3    H251606   1.194   1.327   5.345  1.0709  0.4413 -0.1627
10039TIP3   OH251607   4.318   6.611   0.685  0.4734 -0.3448 -0.1953
10039TIP3    H151608   4.327   6.527   0.641  0.2675 -0.2981 -0.3260
10039TIP3    H251609   4.258   6.593   0.758 -2.2436  0.4241 -2.1783
10040TIP3   OH251610   4.020   0.041  14.369  0.3743 -0.4276  0.0208
10040TIP3    H151611   3.973   0.041  14.285  0.0341  0.2161  0.2072
10040TIP3    H251612   3.981  -0.031  14.418  0.6999 -0.9216 -0.4423
10041TIP3   OH251613   3.189   0.318  16.838 -0.1407  0.2854  0.0016
10041TIP3    H151614   3.179   0.394  16.895  0.5229  0.8381 -0.6106
10041TIP3    H251615   3.197   0.244  16.898 -0.1443  0.7781  0.6125
10042TIP3   OH251616   4.547   1.865  16.660 -0.0490 -0.0694  0.7866
10042TIP3    H151617   4.639   1.879  16.638 -0.1638  0.7102  0.8082
10042TIP3    H251618   4.499   1.893  16.583 -0.1647 -2.8710 -0.2271
10043TIP3   OH251619   5.567   6.090  12.010  0.0789  0.2731 -0.5248
10043TIP3    H151620   5.549   6.007  12.054 -1.7356  0.4856 -0.8173
10043TIP3    H251621   5.493   6.146  12.033 -1.2710  0.1924 -4.3137
10044TIP3   OH251622   4.228   1.485   2.118 -0.4138  0.5781 -0.3503
10044TIP3    H151623   4.170   1.435   2.061 -2.0049  1.2262  0.6469
10044TIP3    H251624   4.256   1.559   2.065  0.1913 -0.1921 -1.1163
10045TIP3   OH251625   2.023   5.741  12.518 -0.4605  0.0932 -0.2904
10045TIP3    H151626   2.042   5.648  12.514  1.4207  0.4562  0.0191
10045TIP3    H251627   2.018   5.760  12.612 -1.9978  0.0892 -0.3567
10046TIP3   OH251628   1.103   3.538  13.242  0.3068 -0.4714  0.3933
10046TIP3    H151629   1.158   3.615  13.258  0.5213 -0.6779  0.6478
10046TIP3    H251630   1.159   3.463  13.262  1.1395 -0.7981 -2.9098
10047TIP3   OH251631   3.638   4.157  16.941 -0.0563 -0.1558  0.8740
10047TIP3    H151632   3.675   4.226  16.997 -1.4336  1.8320 -0.5901
10047TIP3    H251633   3.544   4.172  16.944 -0.2936 -1.3234 -0.3119
10048TIP3   OH251634   3.592   6.315   1.947 -0.1953 -0.4690  0.5069
10048TIP3    H151635   3.549   6.245   1.997  2.3252 -1.2802  1.6293
10048TIP3    H251636   3.685   6.294   1.952  0.3840  1.4710 -1.4994
10049TIP3   OH251637   2.455   3.669   5.334 -0.4385  0.2380 -0.2219
10049TIP3    H151638   2.529   3.625   5.291  0.7340 -0.0337  2.0166
10049TIP3    H251639   2.393   3.599   5.352 -0.1750  0.0839  0.0832
10050TIP3   OH251640   4.965   6.247   1.328  0.1026 -0.4221 -0.4566
10050TIP3    H151641   4.954   6.310   1.399 -1.2288 -0.9827 -0.1617
10050TIP3    H251642   4.883   6.250   1.280 -0.2451 -2.4830 -0.0011
10051TIP3   OH251643   2.347   3.482   4.069  0.1494 -0.2129 -0.1359
10051TIP3    H151644   2.405   3.416   4.109  0.8404  0.4543 -0.0204
10051TIP3    H251645   2.328   3.448   3.982  0.4051 -0.6256 -0.0307
10052TIP3   OH251646   5.608   3.760   0.880  0.2219 -0.6197 -0.3757
10052TIP3    H151647   5.653   3.696   0.825  0.4739 -1.0587  0.3282
10052TIP3    H251648   5.643   3.845   0.853  0.8774 -0.8930 -0.3854
10053TIP3   OH251649   4.052   5.940  11.906 -1.2690 -0.4276  0.2349
10053TIP3    H151650   4.114   5.867  11.899  0.0882  0.7696 -0.5195
10053TIP3    H251651   4.083   5.990  11.981 -0.8513  0.5975 -0.6090
10054TIP3   OH251652   2.990   1.189  16.309 -0.5138  0.2454 -0.5158
10054TIP3    H151653   2.906   1.154  16.277 -0.6572 -0.3340  0.4673
10054TIP3    H251654   3.056   1.133  16.268 -0.7435 -1.2477  1.0781
10055TIP3   OH251655   4.407   3.760   5.079  0.0118 -0.0665 -0.5261
10055TIP3    H151656   4.334   3.701   5.100  1.2574 -1.6456 -0.5000
10055TIP3    H251657   4.388   3.790   4.990 -0.7644 -0.3177 -0.4520
10056TIP3   OH251658   4.073   1.561   3.348 -0.8118  0.7478  0.2361
10056TIP3    H151659   3.999   1.611   3.314  0.1398  1.3350 -0.9947
10056TIP3    H251660   4.091   1.496   3.280 -1.5082 -0.7596  1.4582
10057TIP3   OH251661   5.790   5.953   5.218  0.1074  0.4947  0.3795
10057TIP3    H151662   5.861   5.890   5.228 -1.3357 -1.6453 -1.9964
10057TIP3    H251663   5.718   5.916   5.268 -1.1698 -0.5191 -2.1039
10058TIP3   OH251664   1.895   5.018  13.208 -0.2972 -0.2528 -0.0999
10058TIP3    H151665   1.813   5.033  13.254 -0.2541  1.5214 -0.6020
10058TIP3    H251666   1.963   5.048  13.269 -0.1882  1.1795 -0.9202
10059TIP3   OH251667   1.770   4.886   4.831  0.5881  0.3435  0.2766
10059TIP3    H151668   1.759   4.979   4.808  0.8826 -0.3797 -2.9553
10059TIP3    H251669   1.750   4.839   4.751  1.6378 -2.3731  1.5588
10060TIP3   OH251670   2.577   6.812   1.009  0.2436 -0.2716 -0.1236
10060TIP3    H151671   2.529   6.776   0.935  1.3999 -0.2184 -0.9263
10060TIP3    H251672   2.646   6.747   1.027  0.5753  0.1785  0.2589
10061TIP3   OH251673   6.222   4.215  15.592 -0.2181 -0.1372 -0.4020
10061TIP3    H151674   6.245   4.268  15.669 -0.2545 -1.0880  0.2710
10061TIP3    H251675   6.127   4.217  15.589 -0.1982  0.3396 -0.7361
10062TIP3   OH251676   6.571   1.774   4.149  0.9259  0.6233  0.0188
10062TIP3    H151677   6.583   1.706   4.082 -3.1427  0.4526 -0.6791
10062TIP3    H251678   6.618   1.741   4.225  0.3764 -2.2654 -0.8051
10063TIP3   OH251679   3.915   5.764   3.058  0.1859  0.2523 -0.2166
10063TIP3    H151680   3.825   5.796   3.052  0.4478  1.1903  0.8163
10063TIP3    H251681   3.910   5.691   3.121  0.3679  1.1393  0.8377
10064TIP3   OH251682   5.287   1.575   3.254  0.2248 -0.2398 -0.4892
10064TIP3    H151683   5.368   1.586   3.304 -1.7946 -0.1329  2.9261
10064TIP3    H251684   5.274   1.480   3.252  1.3910 -0.3893 -2.7510
10065TIP3   OH251685   5.726   4.260  12.828 -0.9578  0.0503 -0.0105
10065TIP3    H151686   5.708   4.184  12.773 -2.1039  0.0277  0.3704
10065TIP3    H251687   5.772   4.321  12.770 -0.3218 -0.8008 -0.4049
10066TIP3   OH251688   4.894   1.146  15.280 -0.3688  0.0549 -0.7759
10066TIP3    H151689   4.803   1.119  15.270 -0.8008  1.9750 -2.2725
10066TIP3    H251690   4.900   1.175  15.371 -1.0579 -0.7454 -0.4723
10067TIP3   OH251691   6.060   1.246   5.685 -0.0651  0.0751  0.3246
10067TIP3    H151692   6.021   1.159   5.686  0.6011 -0.2169  1.8675
10067TIP3    H251693   6.040   1.283   5.771 -1.7815  2.1154 -0.8994
10068TIP3   OH251694   2.553   5.578  14.665 -0.1260  0.3602  0.4522
10068TIP3    H151695   2.490   5.531  14.720  1.3662 -1.0338  0.9992
10068TIP3    H251696   2.639   5.553  14.699  0.7628  1.6735 -0.7442
10069TIP3   OH251697   4.962   2.072   5.809 -0.1182  0.5117 -0.0517
10069TIP3    H151698   4.933   1.990   5.849 -0.4419  0.4983 -0.3099
10069TIP3    H251699   4.929   2.140   5.867  0.6974  0.4377  0.5061
10070TIP3   OH251700   4.088   2.444   3.321  0.3629  0.3897 -0.3388
10070TIP3    H151701   4.007   2.398   3.298  0.4427  0.4984 -0.8469
10070TIP3    H251702   4.060   2.512   3.383  0.4656 -1.2972  1.5867
10071TIP3   OH251703   6.095   5.891  13.856  0.5225 -0.5023  0.3932
10071TIP3    H151704   6.000   5.884  13.866  0.5427 -1.1283  0.1939
10071TIP3    H251705   6.107   5.924  13.768  0.4754  0.1505  0.6313
10072TIP3   OH251706   4.127   5.908  13.200  0.1663 -0.0785  0.1516
10072TIP3    H151707   4.047   5.898  13.149  0.8529 -3.9322 -0.3837
10072TIP3    H251708   4.097   5.924  13.289 -1.2268 -0.7682 -0.1755
10073TIP3   OH251709   5.796   4.535  14.102  0.0269 -0.1121  0.0202
10073TIP3    H151710   5.734   4.513  14.032  0.4214 -0.3423 -0.2575
10073TIP3    H251711   5.800   4.457  14.157 -0.6648  0.2451  0.5902
10074TIP3   OH251712   0.667   0.749  16.411 -0.5019  0.5243  0.0537
10074TIP3    H151713   0.736   0.723  16.472 -0.0608  1.8173  0.1339
10074TIP3    H251714   0.629   0.828  16.451  0.0486  1.6085 -1.5308
10075TIP3   OH251715   3.093   0.369  13.853 -0.1784  0.4089  0.0124
10075TIP3    H151716   3.143   0.350  13.774 -0.7309  1.3513 -0.5801
10075TIP3    H251717   3.042   0.447  13.830 -1.4836 -0.2094  0.7896
10076TIP3   OH251718   6.731   0.762  11.771 -0.0463  0.2102 -0.2408
10076TIP3    H151719   6.791   0.689  11.785  0.9610  1.3001  1.3842
10076TIP3    H251720   6.653   0.723  11.732  0.7172 -1.6199  0.0359
10077TIP3   OH251721   0.447   0.694   3.832  0.0963 -0.5739 -0.4512
10077TIP3    H151722   0.483   0.775   3.869 -1.9563 -1.2980  3.4290
10077TIP3    H251723   0.361   0.719   3.799  0.8536 -0.5172 -2.5039
10078TIP3   OH251724   3.690   6.609  16.534 -0.4508 -0.2566  0.3738
10078TIP3    H151725   3.734   6.524  16.533 -0.0335 -0.0379 -0.0940
10078TIP3    H251726   3.760   6.673  16.527 -0.9178  0.0525 -1.8012
10079TIP3   OH251727   2.288   3.526   6.227 -0.3557  0.0639  0.4179
10079TIP3    H151728   2.295   3.453   6.288  2.2474 -1.8381 -2.0521
10079TIP3    H251729   2.357   3.586   6.254 -1.9195  1.2558  1.8905
10080TIP3   OH251730   5.401   2.373  11.473 -0.7070 -0.0435 -0.3565
10080TIP3    H151731   5.403   2.327  11.389 -1.2148  1.1765 -1.0509
10080TIP3    H251732   5.309   2.399  11.483 -0.4702  0.6149  0.1293
10081TIP3   OH251733   4.944   1.691  15.223 -0.5238 -0.6728  0.4075
10081TIP3    H151734   5.024   1.740  15.204 -1.1993  0.9720  1.7279
10081TIP3    H251735   4.944   1.620  15.159  1.3117  0.0803 -0.4661
10082TIP3   OH251736   0.796   5.765   3.537  0.4570  0.2013 -0.4467
10082TIP3    H151737   0.880   5.785   3.495 -0.4648  0.2184 -2.3279
10082TIP3    H251738   0.809   5.677   3.572  1.1703  0.0724 -1.0017
10083TIP3   OH251739   5.243   3.047   1.453  0.3936  0.0542 -0.5288
10083TIP3    H151740   5.318   3.065   1.396  0.1245  0.7896 -0.6480
10083TIP3    H251741   5.206   3.132   1.472 -1.0202 -0.3848 -1.2873
10084TIP3   OH251742   0.197   0.477  12.217 -0.0060 -0.2803 -0.0677
10084TIP3    H151743   0.112   0.478  12.173 -0.0514 -1.6645 -0.0364
10084TIP3    H251744   0.235   0.562  12.198 -0.6777 -0.2890 -1.5096
10085TIP3   OH251745   0.690   5.779  12.252  0.1944 -0.8009 -0.1894
10085TIP3    H151746   0.745   5.813  12.181  0.5181 -0.5911  0.1596
10085TIP3    H251747   0.753   5.753  12.320 -0.1965  0.5040  0.6785
10086TIP3   OH251748   3.511   1.256   1.452  0.7739 -0.0561 -0.0996
10086TIP3    H151749   3.602   1.269   1.423  0.7728  2.3878  0.8213
10086TIP3    H251750   3.519   1.220   1.540  0.8846  0.4849  0.1189
10087TIP3   OH251751   6.694   3.718  11.141 -0.7617  0.0666  0.2141
10087TIP3    H151752   6.749   3.688  11.213 -1.3069  2.3638  1.6116
10087TIP3    H251753   6.754   3.726  11.067  0.3448  0.4635  1.1492
10088TIP3   OH251754   4.164   1.306   2.834 -0.3562  0.2942 -0.1952
10088TIP3    H151755   4.199   1.285   2.747  0.7180  1.3703 -0.0392
10088TIP3    H251756   4.239   1.300   2.892 -1.1530 -0.8057  0.7430
10089TIP3   OH251757   4.833   4.483   1.063  0.3977  0.2789 -0.3478
10089TIP3    H151758   4.879   4.404   1.037  1.2249 -0.5620  3.4708
10089TIP3    H251759   4.742   4.469   1.034  0.9255 -1.2390 -1.3124
10090TIP3   OH251760   5.813   5.726   1.541 -0.6144  0.5850  0.2702
10090TIP3    H151761   5.823   5.660   1.609  2.6736  1.7476  0.9810
10090TIP3    H251762   5.816   5.677   1.459  0.7540 -0.2615  0.8230
10091TIP3   OH251763   6.738   3.572  14.296  0.3827 -0.3749  0.0095
10091TIP3    H151764   6.797   3.621  14.354  0.6355  0.7520 -1.1748
10091TIP3    H251765   6.668   3.633  14.275  1.1316 -0.1923 -2.1517
10092TIP3   OH251766   6.202   5.962   2.883  0.4151 -0.1747  0.0186
10092TIP3    H151767   6.111   5.969   2.912  0.1644 -1.1350 -0.4847
10092TIP3    H251768   6.242   6.045   2.906 -0.6857  0.3799 -0.0556
10093TIP3   OH251769   2.577   0.221  17.083 -0.2625  0.0367  0.4036
10093TIP3    H151770   2.599   0.288  17.148  0.4029  0.1540  0.0640
10093TIP3    H251771   2.543   0.271  17.008 -1.1546 -0.1059  0.7008
10094TIP3   OH251772   1.684   3.784   1.841  0.1895  0.0478 -0.3015
10094TIP3    H151773   1.769   3.742   1.854 -0.2625 -0.5740  0.6663
10094TIP3    H251774   1.621   3.712   1.841 -0.7226  0.7683  2.5750
10095TIP3   OH251775   1.689   1.381  15.629  0.1523  0.0609  0.0121
10095TIP3    H151776   1.600   1.383  15.594  0.6361  0.4386 -1.2412
10095TIP3    H251777   1.690   1.450  15.696 -0.5320 -0.0251  0.1135
10096TIP3   OH251778   5.117   2.405   5.984  0.1675  0.5207 -0.7510
10096TIP3    H151779   5.169   2.365   5.914 -0.5158 -2.4065  0.3637
10096TIP3    H251780   5.139   2.355   6.062 -2.6236  0.7224  0.2025
10097TIP3   OH251781   5.633   0.516  13.447  0.7003  0.3837  0.0779
10097TIP3    H151782   5.563   0.558  13.498  1.0149  0.2776  0.6056
10097TIP3    H251783   5.623   0.551  13.359 -1.9358 -1.8819 -0.6260
10098TIP3   OH251784   5.058   3.101  16.083 -0.1518 -0.4390 -0.1791
10098TIP3    H151785   5.017   3.176  16.126 -3.9997 -1.7807 -1.3287
10098TIP3    H251786   5.065   3.126  15.991 -1.5335 -1.4765 -0.5848
10099TIP3   OH251787   2.080   6.440   0.713 -0.8193 -0.4431 -0.0123
10099TIP3    H151788   2.087   6.531   0.743  1.3476 -0.6228  0.1036
10099TIP3    H251789   1.999   6.438   0.662 -2.4442  0.8301  2.4494
10100TIP3   OH251790   6.585   0.662  11.314  0.1615  0.1760  0.5819
10100TIP3    H151791   6.555   0.589  11.369  0.6804  0.2607  0.9812
10100TIP3    H251792   6.507   0.689  11.266  0.0695 -0.9344  0.0898
10101TIP3   OH251793   2.651   5.614   4.586 -0.1965  0.4261  0.1508
10101TIP3    H151794   2.563   5.629   4.620  0.0649  0.6796  0.7254
10101TIP3    H251795   2.676   5.698   4.546 -0.6567  0.0111 -1.0285
10102TIP3   OH251796   2.626   5.799   3.489  0.1742 -0.4007  0.3832
10102TIP3    H151797   2.550   5.849   3.520 -1.2469 -1.8486 -0.7154
10102TIP3    H251798   2.640   5.830   3.399  1.3028  0.3359  0.8055
10103TIP3   OH251799   1.662   4.246   4.882  0.0802 -0.3797 -0.2081
10103TIP3    H151800   1.749   4.208   4.872  0.7038  0.9980 -0.1502
10103TIP3    H251801   1.616   4.188   4.942  1.1033 -0.8788  0.0826
10104TIP3   OH251802   6.738   3.302   2.306  0.4780 -1.2708 -0.0786
10104TIP3    H151803   6.689   3.254   2.372 -2.9737 -0.1245 -1.6644
10104TIP3    H251804   6.800   3.238   2.271 -1.2347 -3.3875  0.6426
10105TIP3   OH251805   1.066   1.525  16.655  0.0119 -0.1189  0.6565
10105TIP3    H151806   1.135   1.474  16.697 -0.5926 -1.0110  0.5641
10105TIP3    H251807   1.092   1.530  16.563  0.7091  0.8090  0.8890
10106TIP3   OH251808   5.431   3.454  14.486 -0.4402 -0.1094  0.2318
10106TIP3    H151809   5.508   3.415  14.528 -0.3732  0.3485  0.5422
10106TIP3    H251810   5.378   3.486  14.559  0.9515  3.1040 -0.0848
10107TIP3   OH251811   1.252   1.736   0.287  0.1064 -0.1197 -0.9758
10107TIP3    H151812   1.238   1.821   0.246 -0.0647 -0.4509 -1.6020
10107TIP3    H251813   1.165   1.710   0.319  0.1653 -0.0469 -0.7512
10108TIP3   OH251814   1.796   2.765   3.231  0.2419  0.1453  0.7330
10108TIP3    H151815   1.875   2.725   3.193 -1.0518 -0.8202 -1.0109
10108TIP3    H251816   1.780   2.842   3.176 -1.5213 -1.1358 -0.5725
10109TIP3   OH251817   1.538   4.436   1.306  0.0533  0.2659 -0.1564
10109TIP3    H151818   1.525   4.341   1.304  1.6373  0.0426 -1.2014
10109TIP3    H251819   1.450   4.472   1.315 -0.6285 -1.2873 -0.3473
10110TIP3   OH251820   2.721   5.464   3.039 -0.0257  0.5666  0.3609
10110TIP3    H151821   2.648   5.495   2.985  0.4597  0.2898 -0.4684
10110TIP3    H251822   2.789   5.440   2.975  0.2156 -0.6391  1.0707
10111TIP3   OH251823   0.671   3.154  14.392 -0.1415  0.0056  0.2215
10111TIP3    H151824   0.681   3.243  14.357 -2.2129 -0.6969 -2.2663
10111TIP3    H251825   0.600   3.162  14.456  0.3237  0.3147  0.7063
10112TIP3   OH251826   3.467   3.285   1.314 -0.5754  0.0388 -0.2292
10112TIP3    H151827   3.441   3.225   1.384  2.1726 -0.5049  0.4074
10112TIP3    H251828   3.484   3.368   1.358  0.1747 -0.0259 -0.3857
10113TIP3   OH251829   4.283   2.902  12.723 -0.1060 -0.5577  0.3607
10113TIP3    H151830   4.294   2.808  12.736 -0.3329 -0.4060  1.6861
10113TIP3    H251831   4.218   2.928  12.787 -0.5434  0.3928 -0.4620
10114TIP3   OH251832   1.757   6.519  16.850 -0.1730  0.1245 -0.3044
10114TIP3    H151833   1.774   6.428  16.874  0.7343  0.1886 -0.7080
10114TIP3    H251834   1.790   6.527  16.760  0.1949  0.9782 -0.0992
10115TIP3   OH251835   2.096   6.420  12.583 -0.1938 -0.2867  0.4748
10115TIP3    H151836   2.144   6.412  12.666  2.3990  1.3232 -0.8137
10115TIP3    H251837   2.132   6.351  12.528 -1.2921 -0.7925  0.3808
10116TIP3   OH251838   4.458   5.430  15.341  0.4249 -0.3504  0.2880
10116TIP3    H151839   4.462   5.509  15.289 -0.2092 -0.9124 -0.6184
10116TIP3    H251840   4.544   5.389  15.329  1.2353  0.8460  1.8095
10117TIP3   OH251841   6.789   0.664   5.268  0.3473  0.2514  0.0771
10117TIP3    H151842   6.879   0.652   5.298  0.6471  0.1754 -0.8681
10117TIP3    H251843   6.777   0.759   5.265  0.3103  0.2599  0.4457
10118TIP3   OH251844   1.816   3.695  11.517 -0.5491  0.3506 -0.2637
10118TIP3    H151845   1.780   3.607  11.532 -2.1984  1.2345  1.1089
10118TIP3    H251846   1.845   3.694  11.426 -2.5991 -0.8980 -0.9297
10119TIP3   OH251847   4.831   2.506  16.214  0.1168 -0.0223 -0.4413
10119TIP3    H151848   4.878   2.439  16.263  0.1259 -0.9811 -1.7205
10119TIP3    H251849   4.809   2.573  16.278  0.0150 -1.3048  0.8830
10120TIP3   OH251850   5.613   4.417  11.009  0.0418 -0.5409 -0.2372
10120TIP3    H151851   5.576   4.462  10.933 -0.4469 -0.3460  0.1098
10120TIP3    H251852   5.673   4.353  10.972  0.4946  0.1737 -0.7505
10121TIP3   OH251853   5.955   2.931  11.553 -0.4864 -0.1838  0.2746
10121TIP3    H151854   5.894   2.948  11.625 -2.2424  0.5660 -1.3380
10121TIP3    H251855   5.915   2.860  11.503 -0.5585  0.9871 -1.3720
10122TIP3   OH251856   1.895   1.560   5.137  0.1649  0.1553  0.0979
10122TIP3    H151857   1.876   1.502   5.063 -0.0921  1.3955 -0.8199
10122TIP3    H251858   1.815   1.613   5.147  0.6024  0.7335  0.5812
10123TIP3   OH251859   3.602   5.311  11.974 -0.2867 -0.6237 -0.1895
10123TIP3    H151860   3.670   5.364  11.933 -1.2662 -0.6778 -1.9516
10123TIP3    H251861   3.614   5.223  11.938 -0.1692 -1.0528  0.8747
10124TIP3   OH251862   3.963   2.797   2.779  0.0413 -0.0532 -0.5179
10124TIP3    H151863   3.948   2.751   2.861  0.0549 -0.2632 -0.6350
10124TIP3    H251864   3.970   2.728   2.713 -0.3851  0.1385 -0.7638
10125TIP3   OH251865   4.880   4.722   3.538 -0.2547 -0.0430  0.4980
10125TIP3    H151866   4.865   4.712   3.632  1.5664 -0.8219  0.7255
10125TIP3    H251867   4.939   4.650   3.515 -0.9260 -0.0545 -1.3170
10126TIP3   OH251868   2.304   1.626   1.068 -0.0396 -0.1374  0.1653
10126TIP3    H151869   2.241   1.693   1.096  0.7689  0.5547  0.3691
10126TIP3    H251870   2.312   1.568   1.143  0.1088  0.1847  0.3994
10127TIP3   OH251871   1.519   3.733   4.931 -0.0283 -0.2506 -0.2196
10127TIP3    H151872   1.448   3.795   4.915  0.0199  0.1854  1.2062
10127TIP3    H251873   1.504   3.701   5.020  2.2078  0.7813  0.5853
10128TIP3   OH251874   5.873   0.640  13.113 -0.7340  0.0429  0.4429
10128TIP3    H151875   5.951   0.657  13.166 -0.9506 -2.5429  1.6858
10128TIP3    H251876   5.902   0.574  13.049 -1.5109  0.1839 -0.0539
10129TIP3   OH251877   6.634   4.809   2.542 -0.2459 -0.5454  0.3778
10129TIP3    H151878   6.562   4.840   2.488 -0.5575 -0.9502  0.5573
10129TIP3    H251879   6.592   4.766   2.616  0.1790  0.1223  1.0115
10130TIP3   OH251880   6.065   1.877  16.261  0.8310 -0.1077  0.6602
10130TIP3    H151881   6.074   1.961  16.306  1.5160 -0.1005  0.5194
10130TIP3    H251882   5.980   1.843  16.290  0.4638  0.7160  0.5701
10131TIP3   OH251883   5.263   0.840   5.664  0.1903 -0.1414  0.2144
10131TIP3    H151884   5.344   0.832   5.714  0.6455  0.7917 -0.3532
10131TIP3    H251885   5.227   0.926   5.689 -0.0161 -0.0395 -0.4150
10132TIP3   OH251886   2.087   6.573  13.892 -0.0939  0.0023 -0.0343
10132TIP3    H151887   2.163   6.590  13.947 -0.1576  1.1394 -0.2915
10132TIP3    H251888   2.063   6.658  13.856 -1.2081 -0.4150 -0.3214
10133TIP3   OH251889   5.072   4.174   5.040  0.1466  0.0927 -0.1033
10133TIP3    H151890   5.055   4.266   5.063  0.8656  0.2144 -0.0469
10133TIP3    H251891   5.128   4.142   5.110 -0.8978 -0.6787  0.3888
10134TIP3   OH251892   5.222   3.539  16.879 -0.2973  0.3093  0.0319
10134TIP3    H151893   5.313   3.564  16.894  0.0939 -0.3203 -1.2404
10134TIP3    H251894   5.178   3.621  16.854  0.1390  0.4405 -0.3087
10135TIP3   OH251895   5.953   6.054  11.935 -0.5609 -0.2102  0.2829
10135TIP3    H151896   5.929   6.015  12.020 -0.9538  1.4575  0.9647
10135TIP3    H251897   5.871   6.057  11.886 -0.5739 -0.0766  0.3116
10136TIP3   OH251898   2.475   0.248   4.896  0.1365  0.0546  0.6359
10136TIP3    H151899   2.528   0.294   4.961 -0.5982 -0.0828  1.3330
10136TIP3    H251900   2.523   0.167   4.878  1.4290  1.0572 -0.5842
10137TIP3   OH251901   6.186   1.209  16.163  0.0977  0.2530  0.4835
10137TIP3    H151902   6.238   1.138  16.200  0.1623 -0.5715 -1.1216
10137TIP3    H251903   6.111   1.166  16.123 -1.7317  1.4244  2.5619
10138TIP3   OH251904   0.111   3.539  12.463 -0.1689  0.6676  0.0562
10138TIP3    H151905   0.034   3.596  12.470  0.4886  1.7446 -1.3226
10138TIP3    H251906   0.120   3.522  12.369  1.9549  1.5017  0.0898
10139TIP3   OH251907   3.547   1.902   1.388  0.1924 -0.5605 -0.1801
10139TIP3    H151908   3.575   1.973   1.330 -2.1084  0.0044 -0.6236
10139TIP3    H251909   3.584   1.823   1.348  1.3448  0.1885 -0.6117
10140TIP3   OH251910   2.456   4.544  15.519 -0.0873  0.3283  0.0457
10140TIP3    H151911   2.542   4.531  15.479  0.0743 -0.6291  0.7049
10140TIP3    H251912   2.396   4.491  15.466 -0.1690  0.4808 -0.0179
10141TIP3   OH251913   4.902   6.498  11.368  0.0884  0.0304 -0.0726
10141TIP3    H151914   4.917   6.489  11.274 -0.1695 -0.3597 -0.0770
10141TIP3    H251915   4.971   6.557  11.397  1.8676 -2.0014 -0.0368
10142TIP3   OH251916   1.953   4.568   2.503 -0.1508  0.1336 -0.0578
10142TIP3    H151917   1.887   4.637   2.499  0.2195  0.4586 -0.6831
10142TIP3    H251918   1.995   4.579   2.588  1.1154  1.8219 -0.8665
10143TIP3   OH251919   4.695   5.373   5.511  0.0582 -0.0934  0.3408
10143TIP3    H151920   4.635   5.444   5.489  0.2254 -0.5211 -1.5339
10143TIP3    H251921   4.759   5.372   5.440  1.8628 -0.1633  1.8862
10144TIP3   OH251922   5.571   5.140   5.815  0.1933  0.2171 -0.6231
10144TIP3    H151923   5.497   5.121   5.872  0.2418 -2.3261 -1.3557
10144TIP3    H251924   5.625   5.061   5.818  1.2029  0.7976 -2.6089
10145TIP3   OH251925   3.856   3.221   0.227 -0.3454 -0.4964  0.3915
10145TIP3    H151926   3.817   3.246   0.311 -0.6597  0.8674 -0.1426
10145TIP3    H251927   3.869   3.304   0.181  0.1678 -1.2001 -0.7570
10146TIP3   OH251928   4.071   5.814   6.059 -0.6932  0.1658 -0.1999
10146TIP3    H151929   3.989   5.782   6.022  0.9369  0.7307 -4.6287
10146TIP3    H251930   4.054   5.905   6.080 -1.2989  0.2291 -0.9278
10147TIP3   OH251931   2.171   4.287   1.299  0.4885  0.1256  0.0758
10147TIP3    H151932   2.144   4.378   1.295 -0.9974 -0.3465 -0.7869
10147TIP3    H251933   2.250   4.283   1.245  1.9979  1.3695  2.0971
10148TIP3   OH251934   3.251   3.956   1.373 -0.1959 -0.0743  0.1390
10148TIP3    H151935   3.307   3.905   1.431 -1.8729 -0.4021  1.5195
10148TIP3    H251936   3.311   3.996   1.310  1.4258 -1.4899  0.7469
10149TIP3   OH251937   3.838   5.185  12.747  0.2855 -0.3553  0.3277
10149TIP3    H151938   3.828   5.171  12.841  0.1686 -1.3142  0.1780
10149TIP3    H251939   3.929   5.161  12.728 -0.4488 -2.8236 -0.2486
10150TIP3   OH251940   5.678   6.480   5.949  0.0052  0.0344 -0.6557
10150TIP3    H151941   5.677   6.559   6.003  0.8579  0.4055 -1.1746
10150TIP3    H251942   5.590   6.443   5.959 -0.7968  1.7044 -1.3616
10151TIP3   OH251943   1.646   0.178   2.002 -0.1164 -0.7536  0.1560
10151TIP3    H151944   1.586   0.128   2.056  0.6213 -1.2075  0.5663
10151TIP3    H251945   1.596   0.255   1.974 -1.1738 -1.5820 -0.2606
10152TIP3   OH251946   1.318   0.606   4.268  0.3607 -0.0176 -0.5657
10152TIP3    H151947   1.331   0.664   4.194 -0.3153 -0.9224 -1.4083
10152TIP3    H251948   1.300   0.520   4.229 -3.2166  0.1474  0.5488
10153TIP3   OH251949   2.964   1.123   2.146  0.0672 -0.0702 -0.6627
10153TIP3    H151950   3.001   1.042   2.181  0.4367  0.3980  0.0388
10153TIP3    H251951   3.039   1.180   2.133 -0.3411  0.7347  0.3712
10154TIP3   OH251952   6.488   3.210   4.158  0.2861 -0.3384  0.0905
10154TIP3    H151953   6.448   3.123   4.156 -0.3454 -0.1066  1.7333
10154TIP3    H251954   6.526   3.222   4.071  2.1890 -3.1006  0.4951
10155TIP3   OH251955   6.412   1.179   4.000 -0.2503  0.1594  0.1194
10155TIP3    H151956   6.352   1.110   3.972 -1.6065  1.5719 -0.4873
10155TIP3    H251957   6.459   1.140   4.074 -0.3045 -1.7509 -0.8079
10156TIP3   OH251958   3.834   0.784  13.848 -0.1286 -0.2020 -0.1631
10156TIP3    H151959   3.774   0.858  13.859  1.4712  1.0710  0.1916
10156TIP3    H251960   3.898   0.813  13.784 -0.5152 -1.9741 -1.4044
10157TIP3   OH251961   0.180   1.151  13.258  0.0241  0.2657  0.1906
10157TIP3    H151962   0.171   1.076  13.317  1.4403  0.6050  0.8773
10157TIP3    H251963   0.117   1.215  13.290  1.3136  0.7414  1.8422
10158TIP3   OH251964   0.127   4.738  14.235  0.0528 -0.0474 -0.0466
10158TIP3    H151965   0.050   4.719  14.288  0.8954 -0.0248  1.2046
10158TIP3    H251966   0.100   4.808  14.176 -1.1217 -0.6043 -0.1749
10159TIP3   OH251967   6.172   3.815  11.287 -0.0242 -0.0947  0.1635
10159TIP3    H151968   6.089   3.781  11.254 -0.3845 -0.2892  1.2427
10159TIP3    H251969   6.179   3.781  11.376  1.0857  0.1432  0.1836
10160TIP3   OH251970   4.371   2.814  16.314 -0.0683 -0.0577  0.0304
10160TIP3    H151971   4.372   2.802  16.409  1.5098  1.3832  0.2219
10160TIP3    H251972   4.338   2.731  16.280 -2.9523  0.2339  1.9462
10161TIP3   OH251973   6.769   3.953  13.216  0.2522  0.3490  0.6829
10161TIP3    H151974   6.737   3.999  13.137 -0.1090 -1.1548 -0.0627
10161TIP3    H251975   6.819   3.879  13.182  2.7011  1.3997  1.8677
10162TIP3   OH251976   0.612   2.366  14.707 -0.1550  0.3677  0.1303
10162TIP3    H151977   0.600   2.319  14.625  1.4670  1.1555 -0.5923
10162TIP3    H251978   0.640   2.299  14.770  0.1924  0.0325 -0.3794
10163TIP3   OH251979   6.751   3.680  11.840 -0.2802  0.1130  0.1334
10163TIP3    H151980   6.777   3.632  11.919 -2.0388 -0.2204  0.5383
10163TIP3    H251981   6.691   3.748  11.872  0.4843  1.1887 -0.6976
10164TIP3   OH251982   1.322   6.222  16.350 -0.0608 -0.4619  0.6092
10164TIP3    H151983   1.354   6.276  16.278 -1.0491 -0.6829  0.0027
10164TIP3    H251984   1.400   6.175  16.381  0.6141  0.5735  0.5166
10165TIP3   OH251985   6.798   1.154   2.166 -0.3257 -0.6175  0.5047
10165TIP3    H151986   6.795   1.110   2.251 -0.4075 -1.9493 -0.1695
10165TIP3    H251987   6.879   1.206   2.169 -0.3994 -0.5342  1.4380
10166TIP3   OH251988   4.925   4.886   1.777 -0.1713  0.5681 -0.1536
10166TIP3    H151989   4.932   4.982   1.774  0.4784  0.4818 -1.8539
10166TIP3    H251990   4.837   4.867   1.743 -1.0412  0.6345  1.9814
10167TIP3   OH251991   0.772   5.836  16.783  0.4018  0.4592 -0.3199
10167TIP3    H151992   0.859   5.860  16.752 -0.2060  0.0663 -2.3751
10167TIP3    H251993   0.719   5.829  16.704 -1.2239 -0.4517  0.8215
10168TIP3   OH251994   4.858   3.431  16.747 -0.1122  0.1813  0.4524
10168TIP3    H151995   4.851   3.502  16.811  0.2933  1.1429 -0.5375
10168TIP3    H251996   4.860   3.476  16.662  1.8952 -0.9011 -0.1199
10169TIP3   OH251997   5.167   6.614  13.250  0.1252  0.0598 -0.1149
10169TIP3    H151998   5.167   6.533  13.198 -1.6929 -0.1773  0.2469
10169TIP3    H251999   5.168   6.683  13.184 -4.1092 -0.2205 -0.5677
10170TIP3   OH252000   3.508   5.922   0.877  0.5650  0.0742 -0.0844
10170TIP3    H152001   3.537   5.996   0.823 -1.2637 -0.2873 -1.6365
10170TIP3    H252002   3.469   5.862   0.814 -1.4685 -0.4522  1.6553
10171TIP3   OH252003   0.051   5.993   2.697  0.1896  0.3399  0.1644
10171TIP3    H152004   0.014   6.039   2.771 -0.7672  1.3301 -0.9118
10171TIP3    H252005   0.117   6.053   2.661  0.6689 -0.1415  0.2253
10172TIP3   OH252006   1.882   6.018   2.967 -0.6942 -0.2607 -0.0256
10172TIP3    H152007   1.864   6.085   3.033 -0.5588 -1.4737  1.2854
10172TIP3    H252008   1.871   5.935   3.014  1.2519 -1.1301 -1.0408
10173TIP3   OH252009   3.315   6.250  16.766 -0.3166 -0.2976 -0.0088
10173TIP3    H152010   3.350   6.173  16.812  0.4047  0.3535  0.5650
10173TIP3    H252011   3.385   6.275  16.706  0.1786  0.9485  1.0656
10174TIP3   OH252012   5.572   4.656   2.436  0.8335 -0.2342  0.5137
10174TIP3    H152013   5.661   4.620   2.433  0.6131 -0.8586  1.4709
10174TIP3    H252014   5.523   4.596   2.492  0.2745  1.1167  1.5057
10175TIP3   OH252015   5.998   5.569  13.737 -0.1959 -0.2055 -0.1366
10175TIP3    H152016   6.024   5.661  13.742 -1.3493  0.1892 -1.1428
10175TIP3    H252017   6.017   5.543  13.647  0.0203 -0.9306  0.1115
10176TIP3   OH252018   5.635   1.171   4.340  0.0234 -0.1301 -0.4149
10176TIP3    H152019   5.664   1.205   4.425  0.1905 -0.1350 -0.4685
10176TIP3    H252020   5.716   1.138   4.300  0.2754  1.5665 -1.3635
10177TIP3   OH252021   0.656   4.808  12.408 -0.1747 -0.1137 -0.0549
10177TIP3    H152022   0.638   4.790  12.316  0.2660 -0.3458 -0.0974
10177TIP3    H252023   0.644   4.903  12.417  1.0577  0.1108 -0.6506
10178TIP3   OH252024   3.944   1.616  10.462 -1.0123 -0.0193  0.3565
10178TIP3    H152025   3.899   1.635  10.545 -1.7631  1.1856 -0.3164
10178TIP3    H252026   4.014   1.680  10.457 -0.9201 -0.1407  0.0883
10179TIP3   OH252027   4.338   2.267   5.145 -0.0600 -0.2414  0.1854
10179TIP3    H152028   4.404   2.206   5.179  1.7573 -0.3075 -3.1536
10179TIP3    H252029   4.364   2.353   5.179 -0.1633 -0.7186  1.4911
10180TIP3   OH252030   2.420   6.778   2.241 -0.5372  0.1511 -0.0236
10180TIP3    H152031   2.405   6.726   2.320  0.4245 -1.0827 -0.6352
10180TIP3    H252032   2.368   6.857   2.255  1.1607  0.8464  2.7304
10181TIP3   OH252033   5.341   3.242  11.911 -0.0381 -0.0771  0.4121
10181TIP3    H152034   5.350   3.316  11.972 -0.3235  0.1969  0.1233
10181TIP3    H252035   5.251   3.211  11.924  0.1153 -0.4485  0.6171
10182TIP3   OH252036   6.369   1.132   5.135  0.1396  0.6925 -0.4664
10182TIP3    H152037   6.337   1.216   5.103 -0.2674  1.2060  1.2177
10182TIP3    H252038   6.455   1.122   5.095 -0.2951  1.3719 -1.5822
10183TIP3   OH252039   2.344   6.306  15.214 -0.3581  0.8236  0.5645
10183TIP3    H152040   2.257   6.265  15.219 -0.4840  1.0471  0.2438
10183TIP3    H252041   2.331   6.381  15.156  0.2701  0.2920 -0.2917
10184TIP3   OH252042   4.889   1.602   1.182 -0.0968  0.4281 -0.0164
10184TIP3    H152043   4.857   1.597   1.272  0.4130  1.5614  0.2292
10184TIP3    H252044   4.891   1.695   1.161  2.9522  0.4373 -0.0311
10185TIP3   OH252045   0.096   4.094  16.746 -0.1274 -0.3397  0.3218
10185TIP3    H152046   0.184   4.119  16.773  0.4498  1.4244 -2.9909
10185TIP3    H252047   0.107   4.009  16.703  0.0846  0.2793 -0.8439
10186TIP3   OH252048   1.012   3.832  14.991 -0.1520 -0.9191 -0.7405
10186TIP3    H152049   1.036   3.922  14.970  1.8854 -0.5880  2.6258
10186TIP3    H252050   0.938   3.840  15.051 -0.3673 -1.5191 -0.9228
10187TIP3   OH252051   2.403   5.690  16.549  0.4213  0.1025  0.3431
10187TIP3    H152052   2.325   5.720  16.503  0.4319  0.6475  0.6675
10187TIP3    H252053   2.443   5.771  16.582  1.3177 -0.1454 -0.1338
10188TIP3   OH252054   5.512   1.209  13.190 -0.3697  0.4268 -0.0649
10188TIP3    H152055   5.525   1.218  13.284 -0.3258 -0.4996  0.0152
10188TIP3    H252056   5.565   1.134  13.165 -0.6827  0.4348 -0.7672
10189TIP3   OH252057   3.111   3.097   5.034  0.0691 -0.0795  0.3872
10189TIP3    H152058   3.115   3.003   5.017  0.1013 -0.0123  0.0173
10189TIP3    H252059   3.123   3.105   5.128 -0.6267 -0.4968  0.5188
10190TIP3   OH252060   4.139   1.665  15.720  0.1288 -0.1414 -0.2581
10190TIP3    H152061   4.117   1.572  15.719  1.7731 -0.5446 -1.1297
10190TIP3    H252062   4.122   1.693  15.810  2.0850 -1.9186  0.7200
10191TIP3   OH252063   1.016   4.764   4.225  0.8166  0.0244  0.3314
10191TIP3    H152064   1.007   4.698   4.157  1.9923  0.7981 -0.5818
10191TIP3    H252065   1.086   4.731   4.281  0.7373  0.0287  0.4336
10192TIP3   OH252066   1.530   4.911  14.887  0.1817  0.3148  0.2685
10192TIP3    H152067   1.446   4.956  14.877 -0.5119 -0.9923  0.1421
10192TIP3    H252068   1.595   4.976  14.860 -0.8966  0.7737 -1.3060
10193TIP3   OH252069   0.174   0.252  15.784 -0.2920 -0.5279 -0.2102
10193TIP3    H152070   0.156   0.277  15.874 -1.7020 -0.0684 -0.6001
10193TIP3    H252071   0.234   0.318  15.751  0.7725 -1.0840  0.5931
10194TIP3   OH252072   5.866   3.575  12.397 -0.2679  0.3861 -0.1346
10194TIP3    H152073   5.788   3.585  12.343 -1.5779 -0.3594  1.5766
10194TIP3    H252074   5.906   3.493  12.365 -2.2886 -1.2972  1.5034
10195TIP3   OH252075   1.654   4.310   2.186  0.3974  0.4375 -1.1108
10195TIP3    H152076   1.700   4.298   2.269  0.1917  0.2269 -1.0274
10195TIP3    H252077   1.649   4.405   2.175 -1.1606  0.4927 -0.0109
10196TIP3   OH252078   1.823   5.668   4.315 -0.6437 -0.3029 -0.6650
10196TIP3    H152079   1.813   5.721   4.236 -0.9909 -0.1512 -0.5214
10196TIP3    H252080   1.733   5.644   4.339 -0.7071  1.2600  0.7686
10197TIP3   OH252081   1.278   1.383   4.749  0.3095 -0.2014 -0.3030
10197TIP3    H152082   1.185   1.371   4.768 -0.2896 -0.0508 -2.9296
10197TIP3    H252083   1.289   1.479   4.748  0.3070 -0.2068 -0.8164
10198TIP3   OH252084   5.592   3.542   6.664  0.3170  0.5010  0.7795
10198TIP3    H152085   5.641   3.614   6.625  1.0769 -1.7553 -2.5963
10198TIP3    H252086   5.508   3.581   6.690  1.5133  3.0285  0.9757
10199TIP3   OH252087   0.332   2.233  15.182 -0.1407 -0.0791  0.1006
10199TIP3    H152088   0.356   2.323  15.205  2.4525 -0.4741 -0.9498
10199TIP3    H252089   0.334   2.231  15.087 -1.5604 -0.9143  0.0692
10200TIP3   OH252090   6.391   6.497  13.614 -0.4684  0.2673  0.3252
10200TIP3    H152091   6.310   6.515  13.661 -0.0974  2.3268  0.2245
10200TIP3    H252092   6.446   6.451  13.677 -2.2407 -2.4631 -0.0763
10201TIP3   OH252093   4.489   4.976   1.484  0.1260 -0.0147 -0.2257
10201TIP3    H152094   4.415   5.037   1.476 -0.5921 -0.5913  1.8190
10201TIP3    H252095   4.489   4.927   1.401 -1.4855  0.2998 -0.4204
10202TIP3   OH252096   3.943   3.127  13.532 -0.0785 -0.5702  0.6083
10202TIP3    H152097   3.871   3.063  13.530 -0.1073 -0.5052 -0.9740
10202TIP3    H252098   3.951   3.156  13.441  1.4785 -0.0375  0.9145
10203TIP3   OH252099   1.502   1.482   2.180  0.1420  0.2843  0.0078
10203TIP3    H152100   1.593   1.497   2.154 -0.0624 -1.1788 -1.6436
10203TIP3    H252101   1.500   1.501   2.274  1.9768  1.0664 -0.0999
10204TIP3   OH252102   3.687   6.751  13.294  0.4252  0.0658  0.4021
10204TIP3    H152103   3.726   6.725  13.211 -0.0573  0.0792  0.1710
10204TIP3    H252104   3.666   6.668  13.338  0.6698  0.0585  0.5064
10205TIP3   OH252105   3.733   4.687   4.995 -0.0669  0.5496  0.4139
10205TIP3    H152106   3.670   4.745   4.953 -0.3144 -0.5208 -0.7412
10205TIP3    H252107   3.806   4.744   5.020 -0.5082  1.4193 -0.2658
10206TIP3   OH252108   1.331   6.669   5.548  0.3311 -1.1379 -1.0500
10206TIP3    H152109   1.281   6.712   5.618  2.2575 -0.8078  0.1446
10206TIP3    H252110   1.316   6.723   5.471  2.4318  1.5131  0.3344
10207TIP3   OH252111   6.247   3.265   4.275  1.0550 -0.7643  0.1555
10207TIP3    H152112   6.210   3.188   4.319  1.0056 -0.5807  0.4404
10207TIP3    H252113   6.322   3.231   4.227  0.0357 -1.2842 -1.0907
10208TIP3   OH252114   3.249   2.773   0.123 -0.2636  0.1423  0.5044
10208TIP3    H152115   3.293   2.802   0.203 -0.1272  1.0323  0.1151
10208TIP3    H252116   3.260   2.846   0.061  4.0277 -2.4569 -2.0562
10209TIP3   OH252117   2.483   1.475  11.424  0.5715 -0.0208  0.2356
10209TIP3    H152118   2.428   1.399  11.443  1.1219 -0.5222 -0.1770
10209TIP3    H252119   2.542   1.482  11.498 -0.9927  1.3976  1.3981
10210TIP3   OH252120   0.935   1.278  12.475 -0.0621  0.5850  0.0617
10210TIP3    H152121   0.994   1.350  12.456  0.9538 -0.5759 -1.2381
10210TIP3    H252122   0.966   1.205  12.420 -3.1974  0.2093 -1.3538
10211TIP3   OH252123   5.612   4.282  13.599 -0.0106  0.7131 -0.1952
10211TIP3    H152124   5.521   4.259  13.618  0.1685 -0.5666 -0.8429
10211TIP3    H252125   5.635   4.345  13.667  0.1704 -2.6851  3.0276
10212TIP3   OH252126   0.641   6.198   0.174 -0.3239  0.6186  0.8580
10212TIP3    H152127   0.655   6.120   0.227 -0.2760 -0.4163 -0.6510
10212TIP3    H252128   0.729   6.233   0.160 -0.0838 -0.5828 -0.7180
10213TIP3   OH252129   5.998   6.196  15.802 -0.2615  0.4037 -0.2589
10213TIP3    H152130   6.007   6.160  15.714 -1.1488 -0.2531 -0.0868
10213TIP3    H252131   5.957   6.282  15.788  0.1984  0.5850 -0.5280
10214TIP3   OH252132   5.528   3.977   3.058 -0.0234 -0.1838  0.2503
10214TIP3    H152133   5.448   4.026   3.079 -0.5931 -1.1003  0.2722
10214TIP3    H252134   5.584   3.990   3.133 -0.1033  0.5635  0.1888
10215TIP3   OH252135   5.936   0.273   0.324  0.1290 -0.4103 -0.3702
10215TIP3    H152136   5.881   0.237   0.393 -1.1818  2.1921 -0.0280
10215TIP3    H252137   5.999   0.329   0.369 -0.6703  1.2256 -1.2404
10216TIP3   OH252138   0.302   0.511  13.137  0.0187 -0.6225 -0.0411
10216TIP3    H152139   0.332   0.534  13.225 -2.1242  0.0194  0.5510
10216TIP3    H252140   0.308   0.593  13.087 -0.7459 -0.4935  0.0782
10217TIP3   OH252141   0.989   1.470   4.283  0.4826 -0.2171  0.0472
10217TIP3    H152142   0.901   1.436   4.300  0.0655  0.3605 -0.8806
10217TIP3    H252143   1.047   1.395   4.296 -0.2370 -0.8171 -0.1723
10218TIP3   OH252144   0.230   0.511   1.847  0.5330 -0.0883  1.0201
10218TIP3    H152145   0.184   0.508   1.931 -0.3773 -3.4086  0.4893
10218TIP3    H252146   0.178   0.569   1.793  0.1614  0.6960  2.1986
10219TIP3   OH252147   1.721   2.769  13.341 -0.3464  0.5579  0.1099
10219TIP3    H152148   1.778   2.844  13.329 -0.7609  0.8776  0.1174
10219TIP3    H252149   1.661   2.795  13.411 -0.3421  0.1315  0.2760
10220TIP3   OH252150   6.318   0.257  17.162  0.4805 -0.2139 -0.2892
10220TIP3    H152151   6.236   0.252  17.112  0.5847 -2.5002 -0.3131
10220TIP3    H252152   6.320   0.175  17.211  2.5260  0.0470  0.0883
10221TIP3   OH252153   3.471   6.728   0.519  0.4839 -0.1040 -0.1492
10221TIP3    H152154   3.412   6.699   0.589  0.0467 -0.9961 -0.8703
10221TIP3    H252155   3.440   6.681   0.441  0.5038  1.4431 -1.1039
10222TIP3   OH252156   5.619   4.675   1.203  0.3484  0.1828 -1.1033
10222TIP3    H152157   5.579   4.719   1.278 -2.0697 -1.6296 -1.2745
10222TIP3    H252158   5.699   4.636   1.238 -1.0544 -1.1411  0.6854
10223TIP3   OH252159   6.057   3.285   5.252  0.0578 -0.0068  0.0557
10223TIP3    H152160   6.016   3.198   5.250  1.1176 -0.4989 -2.3079
10223TIP3    H252161   6.114   3.282   5.329 -2.1379 -0.3222  1.7096
10224TIP3   OH252162   5.754   3.698   1.105 -0.9468 -0.5633 -0.3909
10224TIP3    H152163   5.698   3.727   1.033  0.5948 -0.8346 -1.7238
10224TIP3    H252164   5.828   3.760   1.104 -0.7714 -0.7475  0.7661
10225TIP3   OH252165   5.739   3.786  13.097  0.0940  0.3099 -0.2558
10225TIP3    H152166   5.742   3.870  13.143  0.1288  0.6480 -0.8680
10225TIP3    H252167   5.717   3.809  13.007  0.4777 -0.3095 -0.5087
10226TIP3   OH252168   5.269   0.312  12.007  0.6380 -0.4679 -0.1407
10226TIP3    H152169   5.284   0.325  12.100  2.2325 -0.6575 -0.3566
10226TIP3    H252170   5.332   0.370  11.964 -2.8179  2.8100 -1.1530
10227TIP3   OH252171   5.783   5.589   0.110  0.3941 -0.4613  0.2821
10227TIP3    H152172   5.792   5.494   0.120  1.1837 -0.7443 -2.5022
10227TIP3    H252173   5.869   5.624   0.133  0.7340 -0.6496 -0.6491
10228TIP3   OH252174   1.049   6.165  11.599  0.8149 -0.0385  0.0147
10228TIP3    H152175   1.059   6.092  11.659  0.5186  0.9916  1.3479
10228TIP3    H252176   1.092   6.239  11.643 -0.5328  1.0425 -0.4271
10229TIP3   OH252177   3.119   1.892   4.542  0.3916 -0.3211 -0.1289
10229TIP3    H152178   3.041   1.904   4.595  1.4121  0.4808  1.2337
10229TIP3    H252179   3.096   1.823   4.480 -2.1698  1.5899 -1.3495
10230TIP3   OH252180   2.749   3.622   3.938  0.1901  0.5614 -0.1188
10230TIP3    H152181   2.810   3.639   3.866 -0.2593  1.2672 -0.3420
10230TIP3    H252182   2.780   3.541   3.978  0.5714  0.2873 -0.9729
10231TIP3   OH252183   2.226   6.647  12.729  0.0631 -0.2283  0.1642
10231TIP3    H152184   2.264   6.568  12.691 -1.7493 -0.8115 -0.4824
10231TIP3    H252185   2.158   6.674  12.667  0.3359  1.5715  0.6108
10232TIP3   OH252186   5.494   2.419  10.937  0.0730 -0.0389 -0.0315
10232TIP3    H152187   5.464   2.425  10.846  0.6714 -0.1361 -0.2383
10232TIP3    H252188   5.546   2.339  10.940 -2.6129 -1.8324  1.1946
10233TIP3   OH252189   0.952   2.434   4.863  0.8885  0.4421  0.4065
10233TIP3    H152190   0.878   2.461   4.918 -0.0867  2.7965 -1.9413
10233TIP3    H252191   0.915   2.368   4.805  1.3627 -0.4106  1.0619
10234TIP3   OH252192   2.295   1.107  16.689  0.2670  0.4147 -0.1771
10234TIP3    H152193   2.204   1.101  16.660  0.5022  0.1713 -0.8717
10234TIP3    H252194   2.344   1.056  16.625  0.7715 -0.2707  0.7409
10235TIP3   OH252195   1.535   0.662  12.964  0.1940  0.1343 -0.6020
10235TIP3    H152196   1.562   0.573  12.941  0.1643  0.0668 -0.3803
10235TIP3    H252197   1.444   0.653  12.993  1.2955 -0.3769  2.9915
10236TIP3   OH252198   4.488   3.112   1.474  0.0878  0.3208 -0.1824
10236TIP3    H152199   4.458   3.094   1.385  0.0084 -0.8546  0.0737
10236TIP3    H252200   4.579   3.141   1.463  0.0590  0.2378 -0.6517
10237TIP3   OH252201   2.891   1.498  13.368 -0.3089  0.3912  0.5787
10237TIP3    H152202   2.923   1.571  13.314  0.5352 -1.1013 -1.0114
10237TIP3    H252203   2.856   1.436  13.305 -0.4248 -0.8593  1.8627
10238TIP3   OH252204   1.807   3.910  11.718  0.5771  0.0548  0.5546
10238TIP3    H152205   1.888   3.959  11.726  0.6203  0.0319  0.2305
10238TIP3    H252206   1.824   3.844  11.652  1.3925 -2.1283  2.8705
10239TIP3   OH252207   0.935   2.414   3.793  0.4857 -0.2985  0.4213
10239TIP3    H152208   0.916   2.388   3.884 -0.4395 -0.5096  0.1774
10239TIP3    H252209   0.941   2.331   3.746 -1.8451 -0.1182 -0.2431
10240TIP3   OH252210   5.024   6.622  16.121 -0.4393  0.2928 -0.4073
10240TIP3    H152211   4.963   6.662  16.059 -0.6940 -0.5712 -0.7203
10240TIP3    H252212   4.983   6.633  16.206  0.4428  2.5075 -0.2443
10241TIP3   OH252213   3.277   5.292  14.349  0.7386  0.2831  0.2823
10241TIP3    H152214   3.294   5.369  14.295 -1.7952  0.7791  0.0857
10241TIP3    H252215   3.299   5.320  14.438  1.3133  0.7280  0.0008
10242TIP3   OH252216   6.493   5.028  15.490 -0.5640 -0.0276 -0.2049
10242TIP3    H152217   6.485   5.023  15.395 -0.1562  1.1554 -0.3131
10242TIP3    H252218   6.433   4.961  15.523 -0.2276 -0.8703 -1.3026
10243TIP3   OH252219   5.409   4.880  16.763  0.0725  0.4241 -0.3252
10243TIP3    H152220   5.390   4.840  16.679 -1.6243  0.5881 -0.0371
10243TIP3    H252221   5.464   4.956  16.742  0.6625 -0.2258 -1.1568
10244TIP3   OH252222   3.703   0.913   5.117 -0.0237 -0.4676 -0.2657
10244TIP3    H152223   3.760   0.862   5.175 -1.0351 -0.8487  0.3987
10244TIP3    H252224   3.672   0.985   5.171 -0.0270 -0.1545 -0.6809
10245TIP3   OH252225   4.910   1.764   6.267  0.2459 -0.0321 -0.4014
10245TIP3    H152226   4.904   1.670   6.282  1.3077  0.0996  1.0441
10245TIP3    H252227   4.821   1.797   6.282  0.1129 -0.6692  0.2512
10246TIP3   OH252228   6.448   1.735  13.766  0.4266 -0.4959  0.0751
10246TIP3    H152229   6.412   1.762  13.681 -1.8583  0.0360  1.1484
10246TIP3    H252230   6.497   1.655  13.747  1.4236  0.5682 -2.0155
10247TIP3   OH252231   6.257   4.202  13.194 -0.0337  0.1612 -0.6704
10247TIP3    H152232   6.265   4.171  13.103  0.4947 -0.0839 -0.5412
10247TIP3    H252233   6.265   4.297  13.187 -0.1783  0.1592 -0.9021
10248TIP3   OH252234   2.392   6.446  16.985  0.2795  0.1920 -0.6971
10248TIP3    H152235   2.309   6.483  17.013 -0.2118 -0.4075 -1.3235
10248TIP3    H252236   2.458   6.490  17.038 -0.5795 -0.6212  1.0658
10249TIP3   OH252237   0.492   5.400  12.794 -0.3216  0.4129 -0.4013
10249TIP3    H152238   0.400   5.426  12.787 -0.4140  0.8210  1.9146
10249TIP3    H252239   0.495   5.344  12.871  1.1309 -0.7990 -1.3111
10250TIP3   OH252240   2.337   3.816   0.392 -0.1869  0.5705  0.4324
10250TIP3    H152241   2.309   3.816   0.484 -0.5295 -2.2619  0.3698
10250TIP3    H252242   2.270   3.867   0.347 -0.9535  0.5316  1.4982
10251TIP3   OH252243   2.560   2.111  15.756  0.2200 -0.5311 -0.2680
10251TIP3    H152244   2.634   2.113  15.816  1.1821 -1.9450 -1.3524
10251TIP3    H252245   2.599   2.130  15.670 -1.1206  1.4692 -0.4532
10252TIP3   OH252246   5.631   4.605   4.299 -0.3231  0.1763 -0.1681
10252TIP3    H152247   5.643   4.544   4.371 -1.2387 -0.4142 -0.5034
10252TIP3    H252248   5.653   4.555   4.221 -0.1563  0.5605 -0.3712
10253TIP3   OH252249   3.794   4.079  16.538  0.8530 -0.4011  0.8752
10253TIP3    H152250   3.750   4.015  16.594  2.0275 -0.9743  1.1654
10253TIP3    H252251   3.799   4.159  16.590 -1.0689  0.0889  0.3268
10254TIP3   OH252252   6.556   1.816  14.015  0.1893  0.5412  0.6726
10254TIP3    H152253   6.474   1.784  14.054 -1.1930  2.6627 -0.3927
10254TIP3    H252254   6.550   1.792  13.923  1.6893 -1.0236  0.9663
10255TIP3   OH252255   4.504   1.816   3.481  0.5439 -0.0066 -0.6153
10255TIP3    H152256   4.497   1.905   3.446  0.6784 -0.1838 -1.1037
10255TIP3    H252257   4.437   1.766   3.434  0.5023 -0.1729 -0.3793
10256TIP3   OH252258   5.260   4.928   3.068  0.1853 -0.7187  0.2649
10256TIP3    H152259   5.236   4.850   3.018  0.2951 -1.2511  1.0437
10256TIP3    H252260   5.181   4.982   3.067 -0.4914 -1.6829  1.3373
10257TIP3   OH252261   3.690   0.383  10.941  0.2310  0.2811  0.6723
10257TIP3    H152262   3.767   0.392  10.885 -0.4759 -0.0914 -0.3602
10257TIP3    H252263   3.658   0.472  10.953 -0.1385  0.2763 -0.2524
10258TIP3   OH252264   0.732   6.337  13.246  0.2484  0.3544 -0.0125
10258TIP3    H152265   0.733   6.291  13.330  1.8877 -0.6105 -0.5314
10258TIP3    H252266   0.825   6.348  13.224 -0.1634  0.9941 -1.4773
10259TIP3   OH252267   0.483   0.129  11.678  0.0507 -0.3417 -0.3864
10259TIP3    H152268   0.435   0.197  11.725  0.4971 -0.3990  0.1511
10259TIP3    H252269   0.465   0.148  11.585 -1.3314 -0.6075 -0.1811
10260TIP3   OH252270   4.100   5.316   2.090  0.6974  0.1265 -0.8282
10260TIP3    H152271   4.035   5.260   2.047 -0.8923  1.7613 -0.6216
10260TIP3    H252272   4.184   5.287   2.054 -0.1896 -1.6285 -1.5493
10261TIP3   OH252273   2.189   3.636   2.034 -0.4133  0.4328  0.1694
10261TIP3    H152274   2.212   3.718   2.076 -0.2225 -0.4220  1.7798
10261TIP3    H252275   2.134   3.590   2.098  0.1542 -1.0298 -0.3611
10262TIP3   OH252276   1.430   0.992   7.020 -0.3054  0.2994  0.2446
10262TIP3    H152277   1.436   0.973   6.927 -0.4470  1.8921 -0.1027
10262TIP3    H252278   1.480   0.922   7.063  0.3356 -0.0353 -1.0536
10263TIP3   OH252279   6.050   0.392   3.061  0.1824 -0.7739 -0.8171
10263TIP3    H152280   5.996   0.317   3.035 -0.4406 -0.5248 -0.2689
10263TIP3    H252281   6.086   0.367   3.146 -1.1264  0.0869  0.0187
10264TIP3   OH252282   5.373   1.617  10.668  0.2502  0.4309 -0.8539
10264TIP3    H152283   5.347   1.548  10.606 -1.0380  0.7673 -0.6824
10264TIP3    H252284   5.343   1.698  10.628  0.6665  0.7834 -0.4572
10265TIP3   OH252285   0.829   2.510   5.932  0.1022 -0.9360 -0.5648
10265TIP3    H152286   0.868   2.492   6.017  2.2799 -4.0832 -2.1358
10265TIP3    H252287   0.796   2.426   5.902 -0.6480  0.1185 -2.8361
10266TIP3   OH252288   1.950   1.726   4.429 -0.0475  0.1975  0.2407
10266TIP3    H152289   2.008   1.781   4.480  0.5120 -0.8876  0.8005
10266TIP3    H252290   1.879   1.784   4.402  0.3254  1.0872  1.1469
10267TIP3   OH252291   2.631   2.370   3.841  0.1099 -0.1523 -0.1999
10267TIP3    H152292   2.654   2.350   3.932  1.4403 -1.3672 -0.7717
10267TIP3    H252293   2.598   2.287   3.806  1.1385 -0.1275 -1.2753
10268TIP3   OH252294   5.558   0.757  13.608 -0.3011  0.2013  0.7087
10268TIP3    H152295   5.486   0.695  13.616 -0.4665  0.4727  1.3392
10268TIP3    H252296   5.562   0.800  13.694 -0.0825  0.9485  0.3239
10269TIP3   OH252297   6.133   6.163  16.620  0.5253  0.5032  0.6981
10269TIP3    H152298   6.041   6.187  16.634 -0.1316 -1.9614  0.9261
10269TIP3    H252299   6.132   6.109  16.541  1.8904  1.1229  0.2609
10270TIP3   OH252300   3.480   4.785   4.894  0.6383 -0.0450 -0.4030
10270TIP3    H152301   3.433   4.733   4.829  0.2740  0.7756 -0.8105
10270TIP3    H252302   3.415   4.805   4.961  1.1499 -1.3285  0.4741
10271TIP3   OH252303   4.429   0.809   5.814  0.4018  0.4935 -0.0075
10271TIP3    H152304   4.398   0.867   5.883  1.3367  0.8873  0.0987
10271TIP3    H252305   4.357   0.749   5.798 -1.4256  2.9903 -1.5852
10272TIP3   OH252306   3.710   3.675   4.700  0.1027 -0.4814 -0.2287
10272TIP3    H152307   3.762   3.735   4.754 -0.8279 -0.1705  0.3388
10272TIP3    H252308   3.624   3.673   4.743 -1.0624  0.7767 -2.4041
10273TIP3   OH252309   0.533   6.196  13.087 -0.3319 -0.2651 -0.2886
10273TIP3    H152310   0.573   6.119  13.048  1.1886  1.3604 -2.0361
10273TIP3    H252311   0.598   6.229  13.149 -0.5036  0.2423 -0.3716
10274TIP3   OH252312   4.918   1.730  10.759  0.2069 -0.4017 -0.3457
10274TIP3    H152313   4.842   1.777  10.725 -2.8726 -3.9522  1.2418
10274TIP3    H252314   4.940   1.775  10.840 -0.8236  0.1066 -0.3356
10275TIP3   OH252315   2.377   3.376   3.015  0.1419 -0.3272 -0.0889
10275TIP3    H152316   2.411   3.455   3.058 -0.7934  0.0305 -0.0076
10275TIP3    H252317   2.452   3.344   2.964  0.6387  0.4128  0.1528
10276TIP3   OH252318   4.276   4.381  15.366  0.5702  0.1583 -0.0333
10276TIP3    H152319   4.308   4.303  15.412  1.5089 -0.0326 -0.9991
10276TIP3    H252320   4.205   4.349  15.311 -1.0089  0.4984  1.7414
10277TIP3   OH252321   0.099   5.422   2.443  0.8563  0.8728  0.2137
10277TIP3    H152322   0.033   5.482   2.479 -1.4922 -1.0723 -0.6973
10277TIP3    H252323   0.081   5.421   2.349  0.2950 -1.8912  0.3251
10278TIP3   OH252324   4.026   3.432   3.970  0.1683  0.6072  0.2189
10278TIP3    H152325   4.109   3.389   3.949 -0.3781  0.2791 -1.3154
10278TIP3    H252326   4.020   3.505   3.908 -1.7748 -0.7580 -1.2471
10279TIP3   OH252327   0.263   1.708   1.523 -0.2148 -0.5611  0.8051
10279TIP3    H152328   0.200   1.709   1.594 -1.3132 -0.6040 -0.1583
10279TIP3    H252329   0.255   1.620   1.485 -1.8410  0.4617 -1.2963
10280TIP3   OH252330   2.462   6.738   3.016  0.0575  0.1589  0.1866
10280TIP3    H152331   2.372   6.713   3.035  0.3171  0.2262  1.6350
10280TIP3    H252332   2.515   6.667   3.052  0.6314  0.9322  0.9144
10281TIP3   OH252333   1.128   2.120  17.251 -0.0926 -0.5376  0.9336
10281TIP3    H152334   1.090   2.092  17.168  1.6088 -1.5330  0.4657
10281TIP3    H252335   1.088   2.063  17.317 -0.5889 -0.5133  0.6492
10282TIP3   OH252336   2.095   2.845   0.953  0.2451  0.2678 -0.0817
10282TIP3    H152337   2.155   2.920   0.953  0.5177  0.0583  1.0309
10282TIP3    H252338   2.031   2.866   1.021  0.7555 -0.8447  0.7603
10283TIP3   OH252339   0.496   0.733   3.119  0.1589 -0.6634 -0.6927
10283TIP3    H152340   0.462   0.714   3.032 -0.0229  0.6451 -0.9239
10283TIP3    H252341   0.557   0.806   3.105 -0.2211 -0.1456  0.3352
10284TIP3   OH252342   4.834   0.109   3.155 -0.0250  0.4174  0.5628
10284TIP3    H152343   4.927   0.133   3.159 -0.1501  0.8062  1.3049
10284TIP3    H252344   4.790   0.176   3.207 -0.6310 -0.2031  0.8560
10285TIP3   OH252345   4.144   2.432  16.377  0.1752  0.0874  0.0098
10285TIP3    H152346   4.104   2.490  16.311  0.7468 -0.3568 -0.7313
10285TIP3    H252347   4.161   2.489  16.452 -2.2275  0.2161  0.5125
10286TIP3   OH252348   6.589   1.027   4.620 -0.1078  0.5297  0.0973
10286TIP3    H152349   6.671   1.070   4.593 -0.0608  1.4222  1.5763
10286TIP3    H252350   6.617   0.956   4.677 -0.3323  0.5215  0.1980
10287TIP3   OH252351   1.324   1.777   2.392 -0.1927 -0.0984 -0.4147
10287TIP3    H152352   1.349   1.688   2.419 -1.8644 -0.0966  1.1925
10287TIP3    H252353   1.231   1.783   2.413 -0.2279  1.8317 -1.0904
10288TIP3   OH252354   4.677   4.805  12.305 -0.3185 -0.1974  0.0795
10288TIP3    H152355   4.642   4.732  12.253 -1.4239  0.5456 -0.2513
10288TIP3    H252356   4.600   4.842  12.348  0.4301 -0.0801  1.3401
10289TIP3   OH252357   4.878   6.481   0.955  0.7613  0.1721  0.5944
10289TIP3    H152358   4.802   6.511   1.006  0.1876 -0.9903  0.4306
10289TIP3    H252359   4.949   6.538   0.984 -0.0980  1.0689  0.9840
10290TIP3   OH252360   0.001   2.040   4.035 -0.7410  0.1416 -0.2132
10290TIP3    H152361  -0.030   2.010   4.120 -0.9402 -2.2302 -1.0681
10290TIP3    H252362   0.016   1.959   3.985 -1.2061  1.4714 -2.6145
10291TIP3   OH252363   2.680   6.576   3.101  0.1003 -0.2636 -0.5819
10291TIP3    H152364   2.729   6.562   3.020  1.1489 -3.8807  0.5818
10291TIP3    H252365   2.674   6.489   3.141 -0.9980  1.3059  2.9046
10292TIP3   OH252366   3.988   3.290  13.825 -0.5992 -0.5418 -0.0773
10292TIP3    H152367   4.040   3.229  13.878  0.0053  1.5808  1.8335
10292TIP3    H252368   4.009   3.266  13.735  0.0613 -2.7925  0.6436
10293TIP3   OH252369   3.909   6.061   4.367  0.0809 -0.6357 -0.0519
10293TIP3    H152370   3.945   6.074   4.455 -1.0212  3.6382 -0.0910
10293TIP3    H252371   3.816   6.043   4.381 -0.6465  2.5256 -0.2845
10294TIP3   OH252372   0.543   2.291   4.883 -0.0741  0.3491  0.3492
10294TIP3    H152373   0.564   2.199   4.872 -2.8083 -0.8302  3.8712
10294TIP3    H252374   0.460   2.303   4.838  0.2556  1.0958 -0.0725
10295TIP3   OH252375   1.413   0.161   5.597  0.1808 -0.1025 -1.2596
10295TIP3    H152376   1.393   0.131   5.509 -2.4668 -1.6464 -0.1761
10295TIP3    H252377   1.488   0.107   5.624  0.0956 -0.6220 -2.0375
10296TIP3   OH252378   1.198   5.065   6.429 -0.1632  0.5079  0.2522
10296TIP3    H152379   1.239   5.151   6.437 -0.1563  0.6058 -0.7869
10296TIP3    H252380   1.224   5.019   6.508  1.6031  0.7336 -0.1769
10297TIP3   OH252381   5.847   1.646   2.644 -0.1415  0.2520  0.3632
10297TIP3    H152382   5.768   1.595   2.663 -1.0089  1.4435  0.0615
10297TIP3    H252383   5.919   1.583   2.652 -1.1492 -0.9365  0.3182
10298TIP3   OH252384   4.124   0.205  13.472  0.3027 -0.0813  0.2900
10298TIP3    H152385   4.049   0.217  13.531  0.0102 -2.9109  0.5425
10298TIP3    H252386   4.086   0.179  13.389  0.9026  0.6200 -0.2139
10299TIP3   OH252387   2.368   0.401   5.382  0.0412  0.0542  0.2379
10299TIP3    H152388   2.429   0.349   5.330 -1.4781 -2.2435  0.6746
10299TIP3    H252389   2.401   0.396   5.471  0.0964  0.1570  0.2235
10300TIP3   OH252390   2.348   0.518   3.148  0.5534 -0.4074  0.3149
10300TIP3    H152391   2.318   0.431   3.177  0.0473 -0.1477  0.5729
10300TIP3    H252392   2.372   0.563   3.229 -0.5103  0.1878  0.3135
10301TIP3   OH252393   3.608   3.695   3.473 -0.3386  0.3183 -0.2174
10301TIP3    H152394   3.584   3.632   3.540  0.0555  1.6686  1.2128
10301TIP3    H252395   3.532   3.698   3.415 -1.4199  0.4809  1.1877
10302TIP3   OH252396   4.133   2.210   1.896  0.1349 -0.5075 -0.3845
10302TIP3    H152397   4.163   2.148   1.963  2.1646  1.4369  0.5749
10302TIP3    H252398   4.071   2.267   1.942  2.2057  1.3926  0.1372
10303TIP3   OH252399   4.956   1.486  13.511  0.4845  0.3836 -0.6527
10303TIP3    H152400   4.980   1.427  13.440 -0.2598  0.1677 -0.7294
10303TIP3    H252401   5.040   1.514  13.548  0.8446 -1.5410  0.0540
10304TIP3   OH252402   1.544   0.244  14.750  0.0227 -0.5352  0.1225
10304TIP3    H152403   1.630   0.209  14.774  0.0166  0.7743  2.1606
10304TIP3    H252404   1.563   0.310  14.683  0.4076 -1.4944 -0.7374
10305TIP3   OH252405   0.183   6.424  12.563 -0.0628 -0.0480  0.4796
10305TIP3    H152406   0.247   6.483  12.601  0.6004 -0.4350 -0.0270
10305TIP3    H252407   0.226   6.388  12.485 -1.5076  0.9834 -0.8187
10306TIP3   OH252408   1.124   0.204   5.973 -0.4419  1.0270 -0.0718
10306TIP3    H152409   1.219   0.206   5.969 -0.4055  1.9736  1.1332
10306TIP3    H252410   1.098   0.296   5.966 -1.2455  0.8243  0.2494
10307TIP3   OH252411   6.296   0.637  12.760  0.2463 -0.2520 -0.5826
10307TIP3    H152412   6.333   0.607  12.677  1.0203  1.5447 -0.9298
10307TIP3    H252413   6.273   0.729  12.744 -1.0092 -0.3235  0.7354
10308TIP3   OH252414   1.627   2.449   5.673  0.2260 -0.3753 -0.4687
10308TIP3    H152415   1.643   2.373   5.729 -3.0996 -1.9189 -1.4436
10308TIP3    H252416   1.652   2.420   5.586 -0.0588 -0.0125 -0.6747
10309TIP3   OH252417   4.228   3.464   5.317  0.4581 -0.2808 -0.3446
10309TIP3    H152418   4.310   3.501   5.350  0.3391  0.3553 -0.7485
10309TIP3    H252419   4.160   3.506   5.370  0.3768 -0.6115 -0.1867
10310TIP3   OH252420   2.272   0.324   6.796 -0.5711  0.7195  0.0203
10310TIP3    H152421   2.199   0.382   6.775 -0.6473  0.4508 -0.4614
10310TIP3    H252422   2.341   0.350   6.735  0.5845  2.5919  2.0408
10311TIP3   OH252423   3.948   0.168   6.716 -0.4282 -0.3117  0.4782
10311TIP3    H152424   3.880   0.198   6.776 -0.0920  2.8866 -0.6617
10311TIP3    H252425   3.901   0.142   6.637 -0.3923  2.0398 -0.3645
10312TIP3   OH252426   4.865   2.488   2.409  0.4457  0.4209  0.7497
10312TIP3    H152427   4.776   2.455   2.396  0.8581 -0.2353 -0.5158
10312TIP3    H252428   4.854   2.580   2.433 -0.4714  1.4919 -3.3191
10313TIP3   OH252429   4.552   5.545   2.926  0.3347  0.3058  0.5981
10313TIP3    H152430   4.596   5.480   2.980  0.1779 -0.3379 -0.0474
10313TIP3    H252431   4.582   5.629   2.961  1.5067 -0.1180  0.6330
10314TIP3   OH252432   2.536   5.305  11.893  0.0383 -0.3597 -0.5535
10314TIP3    H152433   2.487   5.374  11.849  0.2884 -0.6007 -1.2160
10314TIP3    H252434   2.490   5.292  11.976  0.1408  0.7694 -0.3170
10315TIP3   OH252435   1.227   0.448   0.328 -0.1735  0.3292  0.8188
10315TIP3    H152436   1.233   0.509   0.254  0.0264 -0.0754  0.5007
10315TIP3    H252437   1.144   0.402   0.315  0.7694 -1.1237 -0.2306
10316TIP3   OH252438   3.624   4.410   1.721  0.2164  0.4540 -0.0879
10316TIP3    H152439   3.582   4.492   1.746  0.5028  0.0651  1.7013
10316TIP3    H252440   3.696   4.399   1.783 -0.8743 -2.0045  0.8057
10317TIP3   OH252441   1.155   0.171  13.037  0.1517  0.0099 -0.5451
10317TIP3    H152442   1.193   0.193  13.122  2.3346  0.1463 -1.5404
10317TIP3    H252443   1.127   0.080  13.046 -2.6483  0.9712  1.3532
10318TIP3   OH252444   5.068   5.567  17.080  0.1389  0.0148  0.3122
10318TIP3    H152445   5.014   5.601  17.008 -0.6353  2.4114  1.9585
10318TIP3    H252446   5.125   5.641  17.103 -0.5144 -0.2897  2.9958
10319TIP3   OH252447   0.978   3.426   5.240  0.4717 -0.2826 -0.2234
10319TIP3    H152448   0.996   3.343   5.284 -0.5169  0.0271  0.7967
10319TIP3    H252449   0.932   3.401   5.160  0.2564 -0.7319  0.0364
10320TIP3   OH252450   0.463   4.554  13.465 -0.1279  0.1123  0.4014
10320TIP3    H152451   0.509   4.582  13.544  0.8548 -0.7377  0.1375
10320TIP3    H252452   0.383   4.512  13.497 -0.0288  0.3184  0.9131
10321TIP3   OH252453   3.926   0.601   1.513 -0.5421 -0.3395  0.2778
10321TIP3    H152454   3.984   0.587   1.587 -1.9511  0.6111  1.5902
10321TIP3    H252455   3.887   0.515   1.495  0.3813 -0.7285  0.1431
10322TIP3   OH252456   4.208   0.243   5.821  0.2270  0.4327 -0.0671
10322TIP3    H152457   4.235   0.152   5.812  1.5778  0.7982  0.1595
10322TIP3    H252458   4.177   0.268   5.733  2.1854  0.4751 -0.7813
10323TIP3   OH252459   2.949   4.545   5.763  0.6281  0.3140  0.0332
10323TIP3    H152460   3.043   4.561   5.770  1.1698 -1.4376 -2.6040
10323TIP3    H252461   2.941   4.449   5.759 -1.3979  0.3698  1.4801
10324TIP3   OH252462   0.842   6.229  16.442 -0.3999  0.0873  0.7298
10324TIP3    H152463   0.882   6.152  16.402  1.5514  1.3662  0.1387
10324TIP3    H252464   0.871   6.228  16.533 -0.4466  0.0614  0.7434
10325TIP3   OH252465   5.671   6.642   2.445 -0.2710  0.8782 -0.1990
10325TIP3    H152466   5.691   6.611   2.357  0.8786 -0.7330  0.6118
10325TIP3    H252467   5.575   6.640   2.449 -0.2782 -0.6434 -0.8524
10326TIP3   OH252468   0.035   5.729  16.368 -0.1200  0.6238  0.0277
10326TIP3    H152469  -0.049   5.770  16.389 -0.9304 -1.2973  0.6410
10326TIP3    H252470   0.100   5.798  16.384 -1.6536  2.4654 -1.4804
10327TIP3   OH252471   3.443   5.773   3.954 -0.0886  0.2772  0.0589
10327TIP3    H152472   3.455   5.778   4.048  0.9698  1.4134 -0.1324
10327TIP3    H252473   3.465   5.682   3.932 -2.5379 -0.6059  1.1903
10328TIP3   OH252474   2.470   0.712  13.373 -0.5484 -0.2212 -0.0320
10328TIP3    H152475   2.462   0.616  13.369 -0.5308 -0.2715  1.0827
10328TIP3    H252476   2.553   0.731  13.328 -1.0837 -0.6305 -1.2275
10329TIP3   OH252477   6.285   4.188  12.921 -0.4336 -0.2619 -0.2389
10329TIP3    H152478   6.366   4.235  12.941 -2.0877  1.8328  1.9733
10329TIP3    H252479   6.304   4.097  12.943  0.9857  0.3945  1.4532
10330TIP3   OH252480   5.289   5.660  13.041  0.0415  0.1849  0.4313
10330TIP3    H152481   5.317   5.576  13.005  0.2195 -0.2549  1.5804
10330TIP3    H252482   5.245   5.638  13.123 -3.5478  0.8681 -1.2183
10331TIP3   OH252483   5.113   0.380   3.704  0.5030  0.6351 -0.1573
10331TIP3    H152484   5.158   0.463   3.717 -0.7516  1.3918 -0.5330
10331TIP3    H252485   5.153   0.344   3.625 -0.4288  1.9172 -1.2335
10332TIP3   OH252486   4.920   0.452  14.364  0.0629 -0.0562 -0.1004
10332TIP3    H152487   5.015   0.467  14.368  0.2732 -1.0306 -0.9220
10332TIP3    H252488   4.883   0.513  14.427  1.2803  0.0195  0.5677
10333TIP3   OH252489   5.027   6.401   1.787  0.2037  0.5710  0.0141
10333TIP3    H152490   5.031   6.306   1.791 -0.2850  0.5359 -0.2572
10333TIP3    H252491   5.111   6.428   1.749  0.3558  0.2507  0.1256
10334TIP3   OH252492   4.840   4.585  15.386  0.4747  0.5368  0.2107
10334TIP3    H152493   4.765   4.634  15.419  0.6667 -0.5755  2.3910
10334TIP3    H252494   4.901   4.581  15.460  1.1703 -1.5481 -0.4224
10335TIP3   OH252495   1.496   3.753   0.677 -0.2667  0.2623  0.0133
10335TIP3    H152496   1.466   3.831   0.724  1.7233  2.0387 -1.5373
10335TIP3    H252497   1.526   3.787   0.592 -1.2257 -2.4706 -1.4815
10336TIP3   OH252498   0.686   4.918  12.710  0.0472  0.0014  0.2656
10336TIP3    H152499   0.746   4.986  12.679 -0.0354  0.2633  0.6777
10336TIP3    H252500   0.742   4.854  12.753  0.2508 -0.7388 -1.0593
10337TIP3   OH252501   0.375   0.602   5.244 -0.0684  0.5620 -0.4269
10337TIP3    H152502   0.434   0.623   5.317 -0.9179  0.2748  0.3459
10337TIP3    H252503   0.294   0.649   5.263 -1.2643 -1.7203  0.2644
10338TIP3   OH252504   0.876   5.050  11.050  0.1591 -0.1626  0.7165
10338TIP3    H152505   0.849   4.962  11.078  2.5615 -1.4843 -0.9247
10338TIP3    H252506   0.854   5.053  10.957  1.9041  0.2388  0.3164
10339TIP3   OH252507   6.252   0.060  10.628 -0.4098  0.1736 -0.0383
10339TIP3    H152508   6.193   0.038  10.555 -0.3623  0.1379 -0.0670
10339TIP3    H252509   6.268   0.154  10.618 -2.5339  0.7295  1.4891
10340TIP3   OH252510   5.763   6.805  14.116  0.7651 -0.2430 -0.3334
10340TIP3    H152511   5.775   6.814  14.211  0.9896 -0.6175 -0.3258
10340TIP3    H252512   5.679   6.848  14.099  1.9820  2.1938 -0.3621
10341TIP3   OH252513   4.163   5.948   0.459  0.5037  0.6498  0.1327
10341TIP3    H152514   4.109   6.007   0.512 -0.7951 -0.8166  0.4821
10341TIP3    H252515   4.122   5.862   0.469  0.6460  0.1924 -2.6367
10342TIP3   OH252516   0.642   3.982  13.688  0.3801 -0.5904 -0.0677
10342TIP3    H152517   0.679   3.969  13.775  1.0334 -0.7335 -0.3700
10342TIP3    H252518   0.716   4.011  13.634 -0.1930  0.3355 -0.3776
10343TIP3   OH252519   3.450   1.672   5.580  0.4460 -0.6299  0.2964
10343TIP3    H152520   3.495   1.755   5.597  2.6106 -1.7188  0.0744
10343TIP3    H252521   3.470   1.619   5.657  1.9365 -2.1084 -1.0808
10344TIP3   OH252522   1.564   3.289   4.302  0.0134 -0.1747 -0.2324
10344TIP3    H152523   1.552   3.311   4.210  1.0475 -0.1406 -0.3630
10344TIP3    H252524   1.654   3.313   4.321 -0.3943  0.4715  0.9713
10345TIP3   OH252525   3.225   1.657   5.844 -0.1772  0.0683 -0.1450
10345TIP3    H152526   3.188   1.595   5.906  0.9705 -0.1403  0.3382
10345TIP3    H252527   3.319   1.644   5.850  0.0760  1.8274 -0.0839
10346TIP3   OH252528   2.280   6.502  11.198  0.2382 -0.1721 -0.4949
10346TIP3    H152529   2.279   6.417  11.153  2.1830  0.6203 -2.1400
10346TIP3    H252530   2.195   6.541  11.177  0.3300 -0.6633 -1.8669
10347TIP3   OH252531   2.357   2.578  15.349  0.8606  0.4282 -0.2354
10347TIP3    H152532   2.410   2.537  15.418  0.9044  1.3338  0.2766
10347TIP3    H252533   2.356   2.513  15.279  0.1392 -0.8480  0.9250
10348TIP3   OH252534   5.975   1.360   1.244  0.2141 -0.0358  0.4069
10348TIP3    H152535   5.993   1.332   1.155  2.0538 -0.0347  0.7578
10348TIP3    H252536   6.058   1.398   1.275 -0.6899  0.8978  1.7574
10349TIP3   OH252537   0.646   3.738   4.551 -0.2981  0.5743 -0.2393
10349TIP3    H152538   0.681   3.811   4.500 -0.3749  0.4583 -0.4589
10349TIP3    H252539   0.626   3.776   4.637 -0.9306  0.9498 -0.5510
10350TIP3   OH252540   0.767   4.829  11.674  0.1681 -0.0430 -0.3460
10350TIP3    H152541   0.839   4.765  11.663  0.7628  0.3071  1.4579
10350TIP3    H252542   0.776   4.860  11.763 -1.7720  0.6126 -0.3662
10351TIP3   OH252543   0.855   4.342   0.548 -0.0216  0.0904  0.1609
10351TIP3    H152544   0.772   4.387   0.530  0.3752  0.4399 -0.8347
10351TIP3    H252545   0.831   4.249   0.546  0.1316  0.0542 -3.1633
10352TIP3   OH252546   4.854   2.020   3.161 -0.3993  0.2144 -0.7799
10352TIP3    H152547   4.934   1.966   3.163  0.7387  1.8900  0.1813
10352TIP3    H252548   4.832   2.026   3.068 -0.1748 -1.3562 -0.9521
10353TIP3   OH252549   6.087   4.074   0.801 -0.2275  0.0789 -0.3878
10353TIP3    H152550   6.059   3.986   0.824  0.7911 -0.0302  0.4449
10353TIP3    H252551   6.005   4.124   0.795 -0.6559 -0.3749  1.4007
10354TIP3   OH252552   5.376   2.845   4.938  0.0173 -0.0583 -0.7763
10354TIP3    H152553   5.310   2.833   5.007  0.6507  0.6925 -0.0266
10354TIP3    H252554   5.459   2.850   4.986  0.5517 -0.3425 -1.6695
10355TIP3   OH252555   1.945   4.845   3.123  0.0596 -0.2998 -0.1126
10355TIP3    H152556   1.891   4.864   3.046  1.1115 -0.2425 -0.8345
10355TIP3    H252557   2.017   4.792   3.090  0.2810 -0.6478  0.9151
10356TIP3   OH252558   3.017   5.946   0.805  0.3204 -0.8860  0.0229
10356TIP3    H152559   2.992   5.857   0.830  1.4039 -1.1663  0.1370
10356TIP3    H252560   3.030   5.991   0.889  0.1018 -0.7048 -0.0380
10357TIP3   OH252561   3.926   4.149   3.205  0.0848  0.1908 -0.1786
10357TIP3    H152562   3.876   4.219   3.248  0.9741  1.0127 -0.4634
10357TIP3    H252563   3.890   4.147   3.116  0.9204  1.1610 -0.5502
10358TIP3   OH252564   5.830   0.711   5.114  0.3754  0.4767 -0.2561
10358TIP3    H152565   5.857   0.793   5.073 -0.7236  0.3445 -1.2737
10358TIP3    H252566   5.895   0.647   5.084 -0.8704  0.2073 -2.5303
10359TIP3   OH252567   6.289   4.267  11.561 -0.4515  0.0196 -0.4345
10359TIP3    H152568   6.311   4.222  11.479  0.9530 -0.8794  0.4188
10359TIP3    H252569   6.264   4.197  11.621 -2.0426  0.7272 -0.2576
10360TIP3   OH252570   5.431   5.309   2.828  0.6125 -0.7889 -0.2821
10360TIP3    H152571   5.515   5.285   2.867 -0.9758 -1.9002  2.6350
10360TIP3    H252572   5.393   5.371   2.890 -1.7061 -2.0799 -0.3681
10361TIP3   OH252573   0.235   3.605  13.522 -0.3667  0.0566 -0.1381
10361TIP3    H152574   0.221   3.519  13.561 -1.0454 -0.9808 -2.5607
10361TIP3    H252575   0.151   3.650  13.533 -0.7787 -0.4883 -0.9708
10362TIP3   OH252576   5.673   3.603  12.184 -0.1933 -0.3637 -0.0047
10362TIP3    H152577   5.668   3.653  12.102 -1.3978 -0.3466  0.0732
10362TIP3    H252578   5.602   3.638  12.237  0.6268 -0.3325  1.0838
10363TIP3   OH252579   2.169   1.338  16.388 -0.3550  0.3707  0.5848
10363TIP3    H152580   2.179   1.402  16.317 -0.2086 -1.6060 -1.2116
10363TIP3    H252581   2.092   1.369  16.436 -1.8077  0.5458 -1.7631
10364TIP3   OH252582   4.396   6.525   2.231  0.4067  0.2803 -0.2122
10364TIP3    H152583   4.367   6.438   2.201 -1.2391  0.6492  0.2371
10364TIP3    H252584   4.458   6.506   2.301 -1.8969 -0.5801  1.6934
10365TIP3   OH252585   0.008   0.054   2.733  0.0821  0.0755 -0.1435
10365TIP3    H152586  -0.022   0.014   2.814  1.4011  4.2633  2.5688
10365TIP3    H252587  -0.066   0.047   2.673 -1.8906 -0.6887  2.3323
10366TIP3   OH252588   4.073   5.405   3.699 -1.0124  0.1715  0.1336
10366TIP3    H152589   4.003   5.470   3.693 -0.6884  0.4112 -1.2419
10366TIP3    H252590   4.132   5.439   3.767 -0.6701  1.5066 -0.7990
10367TIP3   OH252591   6.812   0.636  16.018  1.1063 -0.1918  0.7182
10367TIP3    H152592   6.795   0.622  15.925 -0.7904 -0.4646  1.0811
10367TIP3    H252593   6.870   0.565  16.043  0.9595 -0.5949 -0.0787
10368TIP3   OH252594   1.327   4.905   0.486 -0.3918  0.6212  0.6112
10368TIP3    H152595   1.264   4.845   0.525  1.1559 -0.7333  1.0565
10368TIP3    H252596   1.374   4.853   0.421  0.4450  1.5483  0.4508
10369TIP3   OH252597   2.661   3.640  15.961 -0.0782  0.4359  0.7511
10369TIP3    H152598   2.744   3.619  15.917 -0.8813  0.3381 -0.7688
10369TIP3    H252599   2.672   3.731  15.989  1.0827 -0.0340  1.8433
10370TIP3   OH252600   3.774   3.455   5.390  0.0405  0.3901 -0.3589
10370TIP3    H152601   3.769   3.359   5.384  0.2695  0.4643 -1.9224
10370TIP3    H252602   3.862   3.476   5.358  0.7001  1.0084  1.7461
10371TIP3   OH252603   1.449   5.888   3.028 -0.1054 -0.2527  0.7730
10371TIP3    H152604   1.402   5.889   2.945 -1.7996 -0.7515  1.7065
10371TIP3    H252605   1.392   5.840   3.088  1.7618 -1.1859  1.8487
10372TIP3   OH252606   6.281   4.816   0.616  0.0774  0.1386 -0.4879
10372TIP3    H152607   6.281   4.720   0.618 -1.1448  0.1188 -0.9731
10372TIP3    H252608   6.323   4.842   0.699  1.7267 -0.8066 -1.0017
10373TIP3   OH252609   6.186   5.383  15.582 -0.0409  0.2057  0.0996
10373TIP3    H152610   6.213   5.297  15.616  1.4814  0.5375 -0.2483
10373TIP3    H252611   6.112   5.408  15.638  1.8671  0.3427  2.6330
10374TIP3   OH252612   4.256   4.663  14.825 -0.2945 -0.5262  0.4390
10374TIP3    H152613   4.191   4.641  14.892 -0.3201  0.8953  0.9160
10374TIP3    H252614   4.325   4.597  14.834 -0.0262 -0.0135  2.2526
10375TIP3   OH252615   2.648   3.548  15.353 -0.1695 -0.0205  0.3925
10375TIP3    H152616   2.590   3.515  15.284 -2.5441  1.3673  1.6339
10375TIP3    H252617   2.638   3.643  15.347  1.7552  0.2193  0.8688
10376TIP3   OH252618   1.123   2.351   0.850  0.0271  0.3428 -0.3045
10376TIP3    H152619   1.081   2.266   0.835  0.9344  0.0541 -1.2504
10376TIP3    H252620   1.099   2.404   0.774  0.1891  0.6539 -0.1425
10377TIP3   OH252621   1.764   6.738   4.786 -0.2120 -0.2432 -0.2711
10377TIP3    H152622   1.703   6.690   4.731 -0.1343 -1.6924  0.8797
10377TIP3    H252623   1.848   6.733   4.740  0.0840 -2.3236  0.4462
10378TIP3   OH252624   1.879   3.201  12.068  0.5890  0.3104  0.0600
10378TIP3    H152625   1.949   3.266  12.055 -1.2502  2.4723  0.6467
10378TIP3    H252626   1.844   3.222  12.155 -0.2372 -1.2840  0.1115
10379TIP3   OH252627   0.035   3.551   4.353 -0.4643 -0.3227  0.0243
10379TIP3    H152628   0.023   3.507   4.268  0.2710 -0.1302 -0.1791
10379TIP3    H252629   0.130   3.554   4.365 -0.5703 -0.3744  0.8720
10380TIP3   OH252630   5.027   6.255  13.687 -0.7333 -0.1201 -0.6857
10380TIP3    H152631   5.014   6.315  13.613  0.3484 -1.3011 -1.8741
10380TIP3    H252632   5.119   6.267  13.712 -0.8790 -0.3075 -0.0592
10381TIP3   OH252633   3.586   6.686   4.519 -0.8433 -0.3998 -0.2030
10381TIP3    H152634   3.667   6.678   4.469  0.3272  2.6315  1.1349
10381TIP3    H252635   3.611   6.668   4.609 -1.9837 -0.8773  0.0331
10382TIP3   OH252636   6.706   6.357   3.047 -0.5995 -0.4255  0.1116
10382TIP3    H152637   6.624   6.388   3.085  0.0873 -0.3871  1.5968
10382TIP3    H252638   6.774   6.407   3.093  0.2429 -0.2606 -1.2948
10383TIP3   OH252639   2.574   0.691   1.180  0.3339  0.2136 -0.6491
10383TIP3    H152640   2.504   0.742   1.219 -1.4336 -3.0316  0.6092
10383TIP3    H252641   2.655   0.730   1.214 -0.9768  1.4752  1.0939
10384TIP3   OH252642   3.087   5.943  13.642 -0.0059 -0.2338 -0.2317
10384TIP3    H152643   3.119   5.897  13.565  0.2389 -0.2100 -0.1444
10384TIP3    H252644   2.994   5.958  13.624  0.0810 -0.1075 -0.5819
10385TIP3   OH252645   5.140   4.845  15.144 -0.0527 -0.1345  0.0543
10385TIP3    H152646   5.136   4.869  15.237 -2.9203  0.0839 -0.0799
10385TIP3    H252647   5.234   4.840  15.125  0.5979  1.3618  2.5523
10386TIP3   OH252648   0.136   2.086  12.791  0.3973  0.1737 -0.5822
10386TIP3    H152649   0.202   2.055  12.853 -1.4879 -1.9111  0.4746
10386TIP3    H252650   0.066   2.121  12.846  0.7733  2.7788 -1.7018
10387TIP3   OH252651   5.008   5.113   5.094  0.0599 -0.6114 -0.5002
10387TIP3    H152652   5.038   5.185   5.038 -0.4654  0.7648  0.9268
10387TIP3    H252653   4.919   5.095   5.064  0.1333 -0.5625 -0.7524
10388TIP3   OH252654   4.955   5.274   3.537 -0.2191 -0.7234  0.6123
10388TIP3    H152655   4.952   5.222   3.618 -1.5308 -2.6378 -0.6122
10388TIP3    H252656   4.987   5.360   3.564 -0.1721 -1.4895  3.0800
10389TIP3   OH252657   5.740   2.788  11.082  1.0446 -0.3816 -0.6103
10389TIP3    H152658   5.675   2.779  11.012  0.3031 -0.5489  0.0807
10389TIP3    H252659   5.753   2.883  11.091  1.8636 -0.3917 -1.6156
10390TIP3   OH252660   5.326   4.076  13.323 -0.0351  0.3259 -0.0188
10390TIP3    H152661   5.415   4.100  13.299 -0.3971 -0.2658 -2.0189
10390TIP3    H252662   5.297   4.017  13.254 -2.0219  0.6056  0.5329
10391TIP3   OH252663   0.025   3.125   3.991 -0.1589 -0.1524 -0.4613
10391TIP3    H152664   0.084   3.192   3.956 -0.3960 -0.3883 -1.3159
10391TIP3    H252665   0.074   3.043   3.984  0.2641 -0.0290  0.9065
10392TIP3   OH252666   5.324   3.993  16.557  0.2268  0.3838 -0.4295
10392TIP3    H152667   5.243   3.996  16.506 -0.5993 -0.1093  0.8317
10392TIP3    H252668   5.317   4.066  16.618  0.7084  0.2990 -0.2724
10393TIP3   OH252669   6.394   6.447   1.696  0.0105  0.5353 -0.1302
10393TIP3    H152670   6.329   6.419   1.760 -0.4021  0.9558 -0.3640
10393TIP3    H252671   6.396   6.542   1.703  0.1303  0.5683 -0.5745
10394TIP3   OH252672   3.569   0.039  16.963  0.1307  0.1388 -0.8123
10394TIP3    H152673   3.620   0.074  16.890  2.3967 -1.2590  0.0432
10394TIP3    H252674   3.509  -0.023  16.922  1.0337 -0.2562 -1.5546
10395TIP3   OH252675   4.335   1.479  15.441 -0.3477 -0.3182  0.4589
10395TIP3    H152676   4.281   1.426  15.382  0.2687  0.9793 -1.2914
10395TIP3    H252677   4.413   1.500  15.390  0.4392  0.4030  1.9261
10396TIP3   OH252678   4.922   1.886   5.095  0.2323  0.6468  0.0386
10396TIP3    H152679   4.881   1.825   5.156 -2.0920  0.2510 -1.8784
10396TIP3    H252680   4.877   1.969   5.110  0.6306  0.9016 -0.1606
10397TIP3   OH252681   4.000   3.262  11.773  0.1845  0.3314  0.1451
10397TIP3    H152682   4.081   3.299  11.809  0.9644 -1.8052  0.6825
10397TIP3    H252683   3.936   3.333  11.780  1.5349  1.4663  1.4358
10398TIP3   OH252684   0.233   2.208   4.024 -0.1412 -0.0488 -0.2616
10398TIP3    H152685   0.146   2.168   4.019 -0.1998 -0.0386  0.5770
10398TIP3    H252686   0.246   2.225   4.117  0.8787 -0.3120 -0.3481
10399TIP3   OH252687   6.280   2.614  11.592 -0.3616 -0.1991 -0.0026
10399TIP3    H152688   6.342   2.550  11.627 -0.1093 -1.3896 -2.4998
10399TIP3    H252689   6.197   2.567  11.589 -0.7831  0.5042  0.7982
10400TIP3   OH252690   1.924   5.224  15.405  0.3722  0.1639 -0.1731
10400TIP3    H152691   1.885   5.311  15.409 -0.2640 -0.1311  0.1918
10400TIP3    H252692   1.852   5.167  15.377  0.6404 -0.3261  0.1294
10401TIP3   OH252693   3.630   0.241   0.250  0.2694  0.2429 -0.4673
10401TIP3    H152694   3.649   0.335   0.239 -1.2300  0.6963  0.5525
10401TIP3    H252695   3.552   0.240   0.305 -0.8186 -1.5822 -1.9919
10402TIP3   OH252696   2.446   1.934  15.340 -0.3803  1.1358 -0.1068
10402TIP3    H152697   2.429   2.011  15.286  1.4211  1.4992 -0.1969
10402TIP3    H252698   2.533   1.951  15.378 -0.3728 -0.4284  0.5956
10403TIP3   OH252699   1.545   5.216  12.054 -0.6684 -0.0760 -0.5491
10403TIP3    H152700   1.527   5.278  12.124 -0.3914 -0.6029 -0.0009
10403TIP3    H252701   1.490   5.140  12.075  0.3834 -0.7511 -0.1794
10404TIP3   OH252702   1.811   2.842   2.842 -0.1936 -0.2967 -0.2946
10404TIP3    H152703   1.882   2.777   2.840  0.9105  0.8488  0.5711
10404TIP3    H252704   1.760   2.824   2.764  0.3450 -1.9321 -0.3001
10405TIP3   OH252705   0.617   5.054   5.530  0.1151 -0.1009 -0.1025
10405TIP3    H152706   0.569   4.994   5.587  2.1477  0.5743  2.4058
10405TIP3    H252707   0.704   5.016   5.523  1.1293  1.9781  0.6909
10406TIP3   OH252708   1.827   6.206  11.466 -0.0946  0.3867 -0.3535
10406TIP3    H152709   1.909   6.197  11.515  0.5216  0.5825 -1.3402
10406TIP3    H252710   1.794   6.293  11.490 -0.6714 -0.1947  1.0236
10407TIP3   OH252711   0.711   3.172   3.188 -0.3638  0.2631 -0.2841
10407TIP3    H152712   0.719   3.108   3.117 -0.7235 -1.3543  1.0981
10407TIP3    H252713   0.624   3.156   3.225 -0.2820  1.2687  0.3495
10408TIP3   OH252714   3.083   3.256   4.666  0.7107  0.5714  0.2113
10408TIP3    H152715   3.152   3.274   4.602 -1.1472 -0.3712 -2.1538
10408TIP3    H252716   3.053   3.168   4.644 -2.0677  1.4265  0.3710
10409TIP3   OH252717   2.684   0.033   4.411  0.0114  0.1324 -0.0448
10409TIP3    H152718   2.589   0.027   4.412  0.0010  0.2109 -0.3991
10409TIP3    H252719   2.703   0.114   4.363  0.2138  1.5510  2.3875
10410TIP3   OH252720   3.280   6.646  14.555 -0.2051 -0.5909  0.1395
10410TIP3    H152721   3.357   6.623  14.503  0.3849  0.4544  0.5360
10410TIP3    H252722   3.302   6.730  14.594 -1.2081 -0.7003  0.9559
10411TIP3   OH252723   1.568   0.857  16.922 -0.1387  0.1059 -0.5112
10411TIP3    H152724   1.499   0.808  16.966 -0.8795  0.4936 -1.2312
10411TIP3    H252725   1.644   0.799  16.925 -0.9103 -0.9462 -1.0353
10412TIP3   OH252726   0.898   2.276  16.223  0.1991 -0.7668 -0.2865
10412TIP3    H152727   0.815   2.290  16.268  2.5332  1.1648  3.6997
10412TIP3    H252728   0.904   2.349  16.161 -0.4171 -0.1127  0.4149
10413TIP3   OH252729   3.496   3.083   1.589 -0.4357 -0.0070  0.2044
10413TIP3    H152730   3.537   3.001   1.561 -2.2868 -0.4869 -1.2260
10413TIP3    H252731   3.569   3.141   1.610  0.9297 -1.2886 -0.8990
10414TIP3   OH252732   3.320   0.750  12.449  0.4311  0.0010  0.2372
10414TIP3    H152733   3.373   0.769  12.371 -1.2224 -1.4188 -1.2822
10414TIP3    H252734   3.348   0.662  12.476 -0.1330 -0.1646  0.2889
10415TIP3   OH252735   3.708   2.762   4.513 -0.3844  0.2775  0.0095
10415TIP3    H152736   3.671   2.694   4.456 -1.6855  1.2082 -0.2912
10415TIP3    H252737   3.633   2.792   4.565  0.4682  0.5339  1.0984
10416TIP3   OH252738   3.130   1.515   0.904  0.0971  0.2710 -0.5069
10416TIP3    H152739   3.084   1.590   0.866 -0.5477  0.7994  1.2544
10416TIP3    H252740   3.199   1.494   0.841 -1.7823  0.2483 -2.6099
10417TIP3   OH252741   2.436   2.856  15.704  0.0853  0.0534 -0.7614
10417TIP3    H152742   2.510   2.900  15.662 -0.4334  1.1972 -0.4878
10417TIP3    H252743   2.361   2.912  15.686 -0.7608 -1.1801 -1.1709
10418TIP3   OH252744   5.577   6.093   0.562 -0.4243 -0.0307 -0.1014
10418TIP3    H152745   5.624   6.028   0.510  0.7622  0.4964  0.2928
10418TIP3    H252746   5.601   6.177   0.524 -1.3222  0.2284 -0.1068
10419TIP3   OH252747   6.350   6.041  13.036  0.2655 -0.3487  0.3199
10419TIP3    H152748   6.400   5.979  13.090  1.6669 -1.8206 -2.5548
10419TIP3    H252749   6.260   6.012  13.043  0.6306 -1.3961  0.7358
10420TIP3   OH252750   4.762   1.138  15.983 -0.7410 -0.4474  0.2461
10420TIP3    H152751   4.703   1.080  16.032 -0.7926 -1.4551 -0.9688
10420TIP3    H252752   4.749   1.113  15.892  3.4371 -2.5490  0.0697
10421TIP3   OH252753   1.207   5.108   1.180 -0.0565 -0.0021  0.3700
10421TIP3    H152754   1.182   5.072   1.094 -1.1927 -1.9204  1.4691
10421TIP3    H252755   1.302   5.102   1.182 -0.0444 -0.2862 -0.6335
10422TIP3   OH252756   5.127   3.948   4.819  0.4198  0.3349 -0.1263
10422TIP3    H152757   5.051   4.005   4.815  1.5601  1.8544 -0.6605
10422TIP3    H252758   5.202   4.005   4.801  1.5568 -1.3945 -1.1292
10423TIP3   OH252759   4.238   5.172  17.001  0.2315  0.0378  0.4596
10423TIP3    H152760   4.260   5.206  17.088  0.8121  0.7848  0.0239
10423TIP3    H252761   4.310   5.200  16.945  0.1668 -0.9780 -0.1363
10424TIP3   OH252762   5.364   3.094  11.416  0.2417 -0.2847 -0.7745
10424TIP3    H152763   5.294   3.038  11.449  1.4541 -1.4552 -0.1312
10424TIP3    H252764   5.429   3.033  11.382  0.6872  0.8108 -1.9050
10425TIP3   OH252765   2.086   4.677   1.620  0.0284 -0.0025 -0.6088
10425TIP3    H152766   2.158   4.656   1.681  0.7902 -0.5041 -1.6681
10425TIP3    H252767   2.012   4.625   1.652  0.9327 -1.6606 -1.1516
10426TIP3   OH252768   5.758   2.069  13.254 -0.1461  0.2164  0.3847
10426TIP3    H152769   5.777   2.154  13.216 -0.8303  0.0225 -0.4235
10426TIP3    H252770   5.701   2.088  13.328 -2.3879  0.3150 -1.2947
10427TIP3   OH252771   1.026   6.672   5.146 -0.3084 -0.5647  0.1297
10427TIP3    H152772   0.967   6.632   5.082  1.0012 -1.3076 -0.6365
10427TIP3    H252773   1.014   6.620   5.225 -0.7846 -0.6155  0.0291
10428TIP3   OH252774   4.003   6.317   5.514  0.0764  0.3411 -0.3895
10428TIP3    H152775   3.951   6.265   5.453  0.4203  2.3701 -2.4800
10428TIP3    H252776   4.011   6.403   5.473  1.0287  1.5382  2.1380
10429TIP3   OH252777   1.197   3.430  14.750 -0.1728 -0.5600 -0.5302
10429TIP3    H152778   1.145   3.510  14.741  0.0314 -0.3188  0.3810
10429TIP3    H252779   1.241   3.439  14.834  0.8936 -1.0351 -1.0262
10430TIP3   OH252780   2.846   1.302  14.081  0.6221 -0.6172  0.1884
10430TIP3    H152781   2.815   1.348  14.003 -0.0190  1.2255  1.4810
10430TIP3    H252782   2.768   1.261  14.118  0.3674  0.8561  1.3606
10431TIP3   OH252783   3.081   3.790   2.290  0.0872 -0.8962  0.2560
10431TIP3    H152784   3.114   3.757   2.206 -0.5310  1.0829 -0.7902
10431TIP3    H252785   3.151   3.847   2.322  0.2628 -1.5425  1.0281
10432TIP3   OH252786   4.876   6.446   1.568 -0.1324 -0.2647  0.2052
10432TIP3    H152787   4.940   6.497   1.519  0.2147 -2.1994 -1.4463
10432TIP3    H252788   4.925   6.409   1.641 -0.1751  1.0141  0.8848
10433TIP3   OH252789   0.548   3.086  11.454 -0.5558 -0.0605 -0.2902
10433TIP3    H152790   0.485   3.138  11.504  0.2102  0.9964 -0.3950
10433TIP3    H252791   0.632   3.132  11.467 -0.1549 -0.3656 -1.6770
10434TIP3   OH252792   4.848   0.725  11.360  0.0154 -0.1974 -0.0041
10434TIP3    H152793   4.846   0.820  11.357  0.4843 -0.2241 -1.8113
10434TIP3    H252794   4.796   0.698  11.284  0.8337 -1.3763 -0.1534
10435TIP3   OH252795   5.343   4.346   2.057 -0.2936 -0.0084 -0.0319
10435TIP3    H152796   5.267   4.359   2.114 -0.3984 -0.2076 -0.1251
10435TIP3    H252797   5.400   4.421   2.076  0.4584 -0.9654  1.5777
10436TIP3   OH252798   3.260   1.153  13.853  0.7230  0.5907  0.0071
10436TIP3    H152799   3.340   1.118  13.815  0.6840 -0.8805  1.1966
10436TIP3    H252800   3.191   1.132  13.790  1.1042  0.8756 -0.5033
10437TIP3   OH252801   1.806   0.239   5.674 -0.1944  0.2608 -0.0643
10437TIP3    H152802   1.839   0.204   5.592  1.5323 -0.1271  0.7725
10437TIP3    H252803   1.843   0.328   5.679 -0.3721  0.3211  0.2440
10438TIP3   OH252804   1.130   2.898   3.359 -0.2247  0.0081  0.1895
10438TIP3    H152805   1.188   2.906   3.284  1.0923 -0.8540  1.1023
10438TIP3    H252806   1.061   2.839   3.330  0.3115 -0.3747 -0.3092
10439TIP3   OH252807   2.369   1.339  14.038  0.6374 -0.0917 -0.4737
10439TIP3    H152808   2.278   1.367  14.027 -0.0927 -1.5301  1.6343
10439TIP3    H252809   2.386   1.284  13.962 -1.0068 -1.6618  0.2690
10440TIP3   OH252810   6.803   3.602  11.351  0.2664  0.0317  0.3125
10440TIP3    H152811   6.880   3.657  11.338 -0.5799  0.8159 -1.5561
10440TIP3    H252812   6.741   3.657  11.398  0.0913  0.0631  0.0422
10441TIP3   OH252813   0.716   1.501   2.316  0.5948  0.0043  0.0951
10441TIP3    H152814   0.664   1.494   2.236  0.4896  0.6339  0.1076
10441TIP3    H252815   0.781   1.569   2.296  1.5670 -0.9334 -0.0057
10442TIP3   OH252816   6.790   2.125   0.860 -0.2299  0.1656  0.6516
10442TIP3    H152817   6.792   2.093   0.770  1.4303 -1.9732  1.3915
10442TIP3    H252818   6.785   2.046   0.914 -2.2532  1.4527  2.4359
10443TIP3   OH252819   5.727   4.543   0.959 -0.5374  0.1115 -0.0704
10443TIP3    H152820   5.682   4.548   1.044 -0.0824 -0.5751  0.2198
10443TIP3    H252821   5.682   4.473   0.912  1.4379 -1.9419  0.9822
10444TIP3   OH252822   2.533   2.169   3.464  0.4061 -0.5055  0.5142
10444TIP3    H152823   2.437   2.170   3.454  0.2655  1.4459  1.8077
10444TIP3    H252824   2.564   2.241   3.408  0.8726  0.5773  2.1332
10445TIP3   OH252825   2.455   0.659  16.521  0.2609  0.3553  0.1003
10445TIP3    H152826   2.550   0.668  16.519  0.2707  0.3870  0.7409
10445TIP3    H252827   2.435   0.624  16.608 -0.3572  0.8783  0.1775
10446TIP3   OH252828   3.863   6.443   6.074  0.3143 -0.5864  0.8996
10446TIP3    H152829   3.837   6.365   6.026  0.0105 -1.3202  2.2331
10446TIP3    H252830   3.953   6.460   6.046  0.6754 -1.9144  1.2222
10447TIP3   OH252831   1.953   0.889   4.766 -0.5426 -1.0666  0.1319
10447TIP3    H152832   1.964   0.827   4.695  1.4912 -0.8090  0.1977
10447TIP3    H252833   1.894   0.845   4.827  0.1466 -2.5587 -0.2574
10448TIP3   OH252834   4.591   6.660  12.838 -0.2723 -0.1403 -0.2889
10448TIP3    H152835   4.686   6.653  12.837 -0.0734  2.3183 -2.4531
10448TIP3    H252836   4.570   6.690  12.927  0.7031 -3.0742  1.0056
10449TIP3   OH252837   6.703   1.929  11.597  0.3207  0.1158 -0.4084
10449TIP3    H152838   6.758   1.852  11.613 -2.2552 -1.6119  0.4766
10449TIP3    H252839   6.704   1.977  11.680 -0.9994 -0.9289  0.2312
10450TIP3   OH252840   6.108   3.887  12.657  0.0548 -0.0995 -0.1804
10450TIP3    H152841   6.070   3.898  12.745  0.4558 -0.4526  0.0398
10450TIP3    H252842   6.034   3.900  12.597  0.0147  1.3898  0.1556
10451TIP3   OH252843   6.219   0.046   5.400 -0.3843 -0.0696 -0.0317
10451TIP3    H152844   6.178  -0.001   5.473 -1.5026  0.1499 -0.5068
10451TIP3    H252845   6.167   0.021   5.324  1.9533 -1.8849 -1.1241
10452TIP3   OH252846   0.828   3.900   0.750  0.2963  0.1458 -0.0483
10452TIP3    H152847   0.764   3.839   0.787  0.9221 -0.8078 -0.5201
10452TIP3    H252848   0.909   3.849   0.743  1.0966  1.3127  0.4714
10453TIP3   OH252849   2.917   4.944  13.123  0.1283 -0.2027 -0.3164
10453TIP3    H152850   2.965   4.958  13.041  0.0668  0.3376 -0.2593
10453TIP3    H252851   2.826   4.934  13.097  0.1341 -0.2181 -0.3301
10454TIP3   OH252852   3.850   5.339  13.187  0.3605 -0.3163 -0.4357
10454TIP3    H152853   3.909   5.289  13.131  0.1214  0.8981 -1.8165
10454TIP3    H252854   3.852   5.428  13.151 -3.1469 -0.4957 -1.2206
10455TIP3   OH252855   3.955   3.743   6.196  0.2901  0.5744 -0.6560
10455TIP3    H152856   4.045   3.764   6.222  0.6078 -1.3660 -0.1011
10455TIP3    H252857   3.959   3.652   6.168 -1.6384  0.2797 -0.0341
10456TIP3   OH252858   3.701   0.303   6.135  0.3332  0.0752 -0.5948
10456TIP3    H152859   3.787   0.262   6.129 -0.3271 -1.6982  1.5265
10456TIP3    H252860   3.715   0.379   6.193  0.3303 -0.7087  0.4609
10457TIP3   OH252861   1.427   5.954   4.042  0.2385 -0.1866 -0.3220
10457TIP3    H152862   1.503   5.895   4.041  0.0600 -0.4255  0.1055
10457TIP3    H252863   1.400   5.956   4.134  0.5268  0.9309 -0.2579
10458TIP3   OH252864   1.570   4.690   2.982  0.6618 -0.1622 -0.1079
10458TIP3    H152865   1.587   4.596   2.972  1.5686  0.1878 -1.9163
10458TIP3    H252866   1.475   4.698   2.973  0.5355 -0.9258  0.4031
10459TIP3   OH252867   3.495   6.663  15.034 -0.1495  0.2308 -0.4571
10459TIP3    H152868   3.555   6.696  15.101 -0.6136 -0.7329  0.4308
10459TIP3    H252869   3.459   6.582  15.070  0.1389 -0.6930 -2.1609
10460TIP3   OH252870   4.113   4.243   6.214  0.0035 -0.2869 -0.0293
10460TIP3    H152871   4.110   4.199   6.299 -1.5910 -0.5455 -0.2074
10460TIP3    H252872   4.205   4.239   6.188  0.0495 -2.6152  0.4281
10461TIP3   OH252873   0.416   0.741   2.016 -0.2713  0.2961 -0.3123
10461TIP3    H152874   0.386   0.726   1.927  0.7594  0.5997 -0.7179
10461TIP3    H252875   0.491   0.799   2.007 -1.0219  1.4888  0.8597
10462TIP3   OH252876   0.342   6.402  15.592 -0.0191 -0.1553 -0.4736
10462TIP3    H152877   0.267   6.448  15.628  0.7423  1.4143 -0.8503
10462TIP3    H252878   0.325   6.397  15.498 -0.5250 -1.4769 -0.3261
10463TIP3   OH252879   6.053   2.241   0.179  0.7332  0.3249  0.0068
10463TIP3    H152880   6.069   2.195   0.096  1.6198  1.6992 -0.6020
10463TIP3    H252881   6.112   2.315   0.177  0.6342  0.4765  1.8204
10464TIP3   OH252882   5.653   3.449   1.245 -0.0145 -0.4103 -0.4202
10464TIP3    H152883   5.636   3.444   1.339 -1.1973 -1.3729 -0.6672
10464TIP3    H252884   5.664   3.543   1.227 -0.3249 -0.1783  0.5819
10465TIP3   OH252885   6.044   5.195  13.073  0.4770 -0.0718  0.0016
10465TIP3    H152886   6.116   5.254  13.048  0.0053  1.0639  1.2419
10465TIP3    H252887   6.082   5.139  13.141 -0.1821  1.4840  1.6932
10466TIP3   OH252888   5.392   2.365   2.326  0.1967 -0.2960  0.2870
10466TIP3    H152889   5.408   2.294   2.264  1.3387  0.4689 -0.3097
10466TIP3    H252890   5.311   2.405   2.297  1.6905  1.2663 -1.8970
10467TIP3   OH252891   3.499   0.900   2.940  0.1862  0.0781  0.2790
10467TIP3    H152892   3.420   0.879   2.892 -0.3426 -0.0275  1.1842
10467TIP3    H252893   3.545   0.816   2.949  1.0764  0.3589 -1.4140
10468TIP3   OH252894   2.454   5.491   1.176  0.7244  0.3173  0.1456
10468TIP3    H152895   2.466   5.474   1.269  1.8652  0.1915 -0.0142
10468TIP3    H252896   2.387   5.560   1.172 -0.2743 -0.5890  0.9922
10469TIP3   OH252897   5.074   2.691   5.961 -0.1962 -0.0737  0.3937
10469TIP3    H152898   5.079   2.597   5.976  0.5758 -0.0512  0.2799
10469TIP3    H252899   5.101   2.702   5.869 -1.2908  0.1540  0.0924
10470TIP3   OH252900   3.870   5.813  14.603  0.0489  0.4142  0.2176
10470TIP3    H152901   3.784   5.853  14.586 -0.0997 -0.9667 -2.6196
10470TIP3    H252902   3.850   5.724  14.631  0.5379  0.1705 -0.1943
10471TIP3   OH252903   2.011   2.679   6.035  0.2728 -0.2526 -0.1398
10471TIP3    H152904   2.049   2.715   6.114 -0.0884 -0.4707  0.1347
10471TIP3    H252905   2.043   2.588   6.032  2.8694  0.6834 -1.9235
10472TIP3   OH252906   3.778   5.979   6.223 -0.2524 -0.0450  0.0193
10472TIP3    H152907   3.860   6.017   6.192 -0.8462  1.1998 -0.0326
10472TIP3    H252908   3.763   6.019   6.309  0.2126 -1.7712  0.9342
10473TIP3   OH252909   5.028   6.463  11.109 -0.6308  0.0970 -0.0318
10473TIP3    H152910   5.083   6.535  11.078 -0.4850 -0.2467 -0.5719
10473TIP3    H252911   5.089   6.396  11.138 -0.7263 -1.5071 -3.4277
10474TIP3   OH252912   3.232   0.423   5.172 -0.1389 -0.6801  0.0970
10474TIP3    H152913   3.148   0.382   5.153 -0.3887 -0.3892  0.5655
10474TIP3    H252914   3.265   0.452   5.086  0.5636 -2.8364 -0.3822
10475TIP3   OH252915   4.854   1.220   2.345 -0.4287  0.0408  0.2404
10475TIP3    H152916   4.923   1.269   2.390 -0.2835 -1.0171  1.1887
10475TIP3    H252917   4.774   1.269   2.364 -0.2048  0.2290  0.7199
10476TIP3   OH252918   4.135   5.037  14.446 -0.5917  0.6492  0.2033
10476TIP3    H152919   4.062   4.976  14.436  0.3398 -0.6613  1.3401
10476TIP3    H252920   4.213   4.986  14.426  0.2207  1.3964  1.3619
10477TIP3   OH252921   2.006   2.364   4.007 -0.0367 -0.3124 -0.0415
10477TIP3    H152922   2.048   2.311   3.940 -0.7180  0.6179 -1.2308
10477TIP3    H252923   1.919   2.326   4.018 -0.7089  0.8336 -1.2577
10478TIP3   OH252924   0.092   6.543   3.872 -0.5828  1.0405  0.0662
10478TIP3    H152925   0.035   6.546   3.795  0.9907 -1.5504 -1.2530
10478TIP3    H252926   0.171   6.590   3.844  0.0627 -0.0625  0.0399
10479TIP3   OH252927   5.481   4.109  12.392  0.6674  0.1470  0.1678
10479TIP3    H152928   5.429   4.028  12.394  1.0898 -0.1059  2.3262
10479TIP3    H252929   5.421   4.176  12.425  0.1354  0.8548 -2.1638
10480TIP3   OH252930   0.876   0.692   3.969 -0.0279  0.1227  0.0040
10480TIP3    H152931   0.915   0.639   4.039  2.9615  1.6720 -0.4007
10480TIP3    H252932   0.806   0.741   4.011  0.5239 -0.3654  1.5047
10481TIP3   OH252933   1.970   3.275   1.945  0.0204  0.2850  0.2617
10481TIP3    H152934   2.014   3.200   1.905  0.3148  0.5319  0.1246
10481TIP3    H252935   2.005   3.351   1.900 -0.5583  0.4854  0.1436
10482TIP3   OH252936   6.530   1.540  16.553  0.4567  0.1615 -0.8750
10482TIP3    H152937   6.468   1.568  16.620  0.2336 -0.4707 -0.8232
10482TIP3    H252938   6.612   1.527  16.600  0.4842  0.4168 -0.8488
10483TIP3   OH252939   4.106   0.195   3.473 -0.1803 -0.6935 -0.1420
10483TIP3    H152940   4.112   0.124   3.409 -4.1260  0.2115 -1.6525
10483TIP3    H252941   4.179   0.253   3.452  1.0368 -2.5472 -1.0984
10484TIP3   OH252942   3.345   0.161   3.090 -0.4902 -0.2377 -0.0664
10484TIP3    H152943   3.328   0.228   3.023 -1.4135  1.6346  1.9919
10484TIP3    H252944   3.258   0.130   3.114 -0.1852 -0.5850  0.5808
10485TIP3   OH252945   6.401   4.690  16.184  0.5024  0.3479 -0.5084
10485TIP3    H152946   6.495   4.698  16.166  0.2075 -0.5205 -2.5450
10485TIP3    H252947   6.381   4.766  16.239  2.7293 -0.4001  1.4148
10486TIP3   OH252948   0.762   2.411  12.577 -0.3070 -0.5328  0.2969
10486TIP3    H152949   0.756   2.436  12.670  0.3623 -2.3423  0.8573
10486TIP3    H252950   0.801   2.487  12.534  0.3360 -0.0549  1.6969
10487TIP3   OH252951   3.077   4.553  16.491  0.0020  0.1661  0.1943
10487TIP3    H152952   3.112   4.551  16.580  0.6084 -1.8922 -0.0737
10487TIP3    H252953   2.982   4.555  16.502  0.0611 -0.8075  0.8846
10488TIP3   OH252954   2.644   5.921  11.341 -0.0997  0.1085  0.2463
10488TIP3    H152955   2.642   5.890  11.251 -1.6744  3.1079 -0.8356
10488TIP3    H252956   2.728   5.966  11.349  0.9804 -1.9903  0.9695
10489TIP3   OH252957   0.359   6.368   4.195 -0.3638  0.5845  0.2813
10489TIP3    H152958   0.365   6.387   4.288 -0.3426  1.2541  0.1481
10489TIP3    H252959   0.282   6.312   4.187 -0.6160  0.8747  0.6506
10490TIP3   OH252960   5.026   0.111  11.320 -0.3272  0.0259  0.4696
10490TIP3    H152961   4.956   0.163  11.282 -1.3045 -0.8339  1.0473
10490TIP3    H252962   5.099   0.118  11.258 -0.3863  2.1690  0.6049
10491TIP3   OH252963   0.890   6.462  16.332  0.0452  0.2062 -0.2098
10491TIP3    H152964   0.861   6.373  16.349  3.4046 -1.0834 -0.8331
10491TIP3    H252965   0.860   6.512  16.407 -0.6574 -1.7509  0.8392
10492TIP3   OH252966   3.465   2.427   5.253 -0.4619 -0.3219 -0.5744
10492TIP3    H152967   3.541   2.401   5.306 -0.6986 -0.2546 -0.1979
10492TIP3    H252968   3.473   2.376   5.173 -0.1070 -0.4395 -0.4660
10493TIP3   OH252969   0.879   2.209   1.978  0.6194 -0.4938 -0.2436
10493TIP3    H152970   0.946   2.198   2.046  2.2818 -1.1231 -1.9251
10493TIP3    H252971   0.920   2.174   1.899 -1.3115  0.1528 -1.5594
10494TIP3   OH252972   0.468   2.596  11.938 -0.2589 -0.4292  0.0703
10494TIP3    H152973   0.493   2.668  11.880 -0.4793 -0.2987  0.1373
10494TIP3    H252974   0.514   2.520  11.902  1.8264  0.1860  1.3649
10495TIP3   OH252975   5.114   2.650  15.793 -0.2672 -0.7965 -0.0988
10495TIP3    H152976   5.185   2.586  15.798  0.2782 -0.2307 -0.3581
10495TIP3    H252977   5.104   2.681  15.883 -0.1226 -0.8163 -0.0748
10496TIP3   OH252978   6.747   3.560   4.876 -0.1096 -0.3316 -0.3388
10496TIP3    H152979   6.825   3.615   4.889 -0.0974 -0.6566  0.9864
10496TIP3    H252980   6.780   3.481   4.833  0.1101  0.0075 -0.8017
10497TIP3   OH252981   5.104   6.187  12.688  0.3034 -0.1364 -0.5760
10497TIP3    H152982   5.121   6.244  12.613  1.8454 -0.1991 -0.2984
10497TIP3    H252983   5.179   6.127  12.690  0.2585 -0.1709  0.9844
10498TIP3   OH252984   1.793   4.793  11.116 -0.4240  0.3628  0.6391
10498TIP3    H152985   1.850   4.733  11.165  1.2562 -0.5750 -2.3188
10498TIP3    H252986   1.832   4.879  11.129  0.8525 -0.0801 -0.1734
10499TIP3   OH252987   2.927   6.808   6.166  0.2455 -0.8119  0.7097
10499TIP3    H152988   2.870   6.812   6.243 -0.1365  0.2346  0.3774
10499TIP3    H252989   3.010   6.772   6.199  0.7600  1.4934  2.0221
10500TIP3   OH252990   2.977   4.500  17.028 -0.0599 -0.3296  0.8553
10500TIP3    H152991   2.968   4.475  16.937 -0.5650 -0.0032  0.8122
10500TIP3    H252992   3.018   4.425  17.070 -0.5428 -0.7866  0.5134
10501TIP3   OH252993   2.754   3.329  13.589 -0.3668  0.6533 -0.2344
10501TIP3    H152994   2.755   3.299  13.498  0.1828 -2.1477  0.6619
10501TIP3    H252995   2.824   3.395  13.593  0.1627  0.1900 -1.6411
10502TIP3   OH252996   3.434   2.035   3.544  0.0328 -0.4790  0.2980
10502TIP3    H152997   3.467   2.002   3.461  1.3729 -0.2876  0.7402
10502TIP3    H252998   3.387   1.961   3.583 -2.1889 -0.0418 -1.4272
10503TIP3   OH252999   6.175   6.339  14.331  0.1922  0.0835  0.1308
10503TIP3    H153000   6.128   6.398  14.272 -3.1683 -1.8382  0.7346
10503TIP3    H253001   6.188   6.259  14.279  0.8488 -0.1850  0.7042
10504TIP3   OH253002   5.848   1.484   1.485 -0.1103  0.1055  0.4546
10504TIP3    H153003   5.880   1.412   1.540 -0.5397 -0.1104  0.4240
10504TIP3    H253004   5.876   1.461   1.397  1.3531  0.8912  0.6923
10505TIP3   OH253005   3.298   5.188   1.163  0.2572 -0.6214 -0.1478
10505TIP3    H153006   3.334   5.113   1.116  1.6059  0.1806 -0.4370
10505TIP3    H253007   3.359   5.201   1.236 -1.6728 -1.7115  1.7440
10506TIP3   OH253008   4.756   0.681  16.544 -0.0703 -0.5946  0.4989
10506TIP3    H153009   4.828   0.716  16.491 -0.4139  1.7866  1.5205
10506TIP3    H253010   4.794   0.669  16.631 -0.6975 -0.0578  0.8516
10507TIP3   OH253011   0.766   2.478  13.355  0.0747  0.0577  0.2137
10507TIP3    H153012   0.676   2.448  13.360 -0.0005 -0.1538 -1.9176
10507TIP3    H253013   0.760   2.566  13.317  0.7284  0.2090  0.4575
10508TIP3   OH253014   0.002   4.161   0.626  0.5251 -0.1660  0.3602
10508TIP3    H153015  -0.043   4.112   0.557 -0.2624  1.2969 -0.1858
10508TIP3    H253016   0.069   4.212   0.580 -0.1636  1.0020  0.6481
10509TIP3   OH253017   5.587   6.546   4.811 -0.1526  0.4174  1.0116
10509TIP3    H153018   5.620   6.607   4.746  1.0490 -0.3012  0.9315
10509TIP3    H253019   5.507   6.510   4.773  1.8161 -1.8332 -1.1882
10510TIP3   OH253020   3.567   5.922  11.499  0.2844 -0.4015  0.7693
10510TIP3    H153021   3.540   5.975  11.573  1.7905 -1.1391  1.8684
10510TIP3    H253022   3.649   5.961  11.470  0.5268 -1.0870  0.5147
10511TIP3   OH253023   3.456   2.848   3.952 -0.4440 -0.2382 -0.0771
10511TIP3    H153024   3.364   2.823   3.949  0.1465 -2.6463  0.5078
10511TIP3    H253025   3.503   2.765   3.954  1.7053  0.9660  1.0880
10512TIP3   OH253026   2.048   5.787  12.794 -0.4331  0.4827  0.4876
10512TIP3    H153027   1.993   5.852  12.838 -1.2983  0.3688 -0.3849
10512TIP3    H253028   2.136   5.825  12.796 -0.6101  0.8578  1.5489
10513TIP3   OH253029   6.540   5.323   3.865  0.1489 -0.5346 -0.3172
10513TIP3    H153030   6.602   5.253   3.886  0.1993 -0.4021 -0.0280
10513TIP3    H253031   6.489   5.336   3.945 -0.2833 -0.6698 -0.5638
10514TIP3   OH253032   5.398   0.326   0.606  0.6617  0.1354  0.0182
10514TIP3    H153033   5.410   0.355   0.515  0.5275  1.0102  0.2710
10514TIP3    H253034   5.303   0.318   0.616  0.5077  2.5155  0.8123
10515TIP3   OH253035   4.722   0.540   3.397 -0.3179 -0.3244  0.4790
10515TIP3    H153036   4.717   0.462   3.341 -1.4789  0.1862 -0.1267
10515TIP3    H253037   4.816   0.547   3.417  0.0757 -0.7403 -1.0717
10516TIP3   OH253038   4.728   3.345   0.795  0.6190 -0.6313  0.0340
10516TIP3    H153039   4.803   3.385   0.839 -0.2215 -0.9901  1.8732
10516TIP3    H253040   4.760   3.321   0.708  1.9910  1.2606 -0.0186
10517TIP3   OH253041   0.346   4.525   0.174  0.1014  0.0918 -0.1169
10517TIP3    H153042   0.295   4.463   0.122 -2.1022  1.5810  0.1974
10517TIP3    H253043   0.314   4.512   0.263  2.1841 -0.8032  0.5077
10518TIP3   OH253044   1.525   2.634  16.539  0.3234  0.1840  0.2687
10518TIP3    H153045   1.577   2.671  16.468 -0.6417 -0.4493 -0.7936
10518TIP3    H253046   1.482   2.709  16.580 -1.5325  0.2783 -1.7904
10519TIP3   OH253047   3.508   0.827   0.204 -0.2349  0.3980 -0.9690
10519TIP3    H153048   3.523   0.914   0.242 -2.3135  0.5568 -0.4520
10519TIP3    H253049   3.593   0.801   0.169  1.3454  1.0353  2.1735
10520TIP3   OH253050   2.716   5.996   5.906 -0.1100 -0.2320  0.0627
10520TIP3    H153051   2.710   5.943   5.985 -0.9180  0.3568  0.4117
10520TIP3    H253052   2.702   5.934   5.834 -2.7554 -0.2562  0.5298
10521TIP3   OH253053   6.264   2.508   5.619 -0.0911 -0.3226  0.4733
10521TIP3    H153054   6.230   2.504   5.708 -2.8569  0.5269 -0.5150
10521TIP3    H253055   6.267   2.416   5.591 -1.5119 -0.4174  0.6056
10522TIP3   OH253056   5.786   1.936   0.116  0.1574 -0.7436 -0.2021
10522TIP3    H153057   5.764   1.850   0.152 -2.0434 -0.3369 -0.5190
10522TIP3    H253058   5.731   1.997   0.164  1.2669  0.4367 -0.4081
10523TIP3   OH253059   0.663   4.806   6.671 -0.1262  0.5370  0.2989
10523TIP3    H153060   0.683   4.801   6.764 -1.3763  1.5913  0.6446
10523TIP3    H253061   0.595   4.740   6.657  1.1670 -0.7071 -0.1937
10524TIP3   OH253062   5.996   0.061  13.776  0.0961 -0.0813 -0.5608
10524TIP3    H153063   6.070   0.118  13.754  1.1365 -1.1103  0.2032
10524TIP3    H253064   5.979   0.080  13.869 -0.3160 -0.1620 -0.6218
10525TIP3   OH253065   1.412   3.544   1.119  0.4287 -0.0183  0.0776
10525TIP3    H153066   1.347   3.610   1.142  2.5742  2.5282 -0.8761
10525TIP3    H253067   1.469   3.587   1.055  1.6880 -2.9360 -0.8754
10526TIP3   OH253068   2.067   0.956  14.780 -0.1322  0.1523  0.2782
10526TIP3    H153069   1.981   0.935  14.746  0.6693 -0.6537 -1.2838
10526TIP3    H253070   2.099   0.874  14.818  1.5180 -0.5923 -2.6106
10527TIP3   OH253071   4.721   5.806   5.868 -0.0934 -0.1738  0.5721
10527TIP3    H153072   4.628   5.788   5.854  0.1185 -2.2647  1.6752
10527TIP3    H253073   4.725   5.842   5.957 -0.0441  1.6998 -0.1672
10528TIP3   OH253074   0.101   3.537   3.656 -0.1754  0.0797  0.3681
10528TIP3    H153075   0.181   3.536   3.604 -0.8816  2.0764 -0.8293
10528TIP3    H253076   0.060   3.621   3.634 -2.6257 -0.9441  0.8970
10529TIP3   OH253077   6.255   4.517   0.544 -0.5088  0.1361 -0.5570
10529TIP3    H153078   6.230   4.476   0.461 -0.2219 -0.2385 -0.4610
10529TIP3    H253079   6.285   4.444   0.599  0.9513  0.6034 -0.7259
10530TIP3   OH253080   1.494   0.307   4.587  0.1110  0.4620 -0.3567
10530TIP3    H153081   1.520   0.218   4.612 -1.3768 -0.2246 -1.2085
10530TIP3    H253082   1.577   0.355   4.582  0.9353 -0.8726  0.0734
10531TIP3   OH253083   1.756   1.054  12.387  0.3847 -0.4619 -0.6480
10531TIP3    H153084   1.689   1.061  12.455  0.7299  0.0659 -0.3503
10531TIP3    H253085   1.744   1.132  12.333  0.0231 -0.9521 -1.2792
10532TIP3   OH253086   0.416   6.408   4.445 -0.3649  0.4274 -0.6244
10532TIP3    H153087   0.367   6.490   4.449  1.1832  1.3371  0.3502
10532TIP3    H253088   0.398   6.365   4.529 -0.4836  0.1700 -0.7803
10533TIP3   OH253089   5.801   4.689  14.596  0.4703 -0.1697  0.3122
10533TIP3    H153090   5.715   4.675  14.635  0.7028  1.0960  1.2929
10533TIP3    H253091   5.785   4.686  14.501 -0.8527  1.1785  0.4745
10534TIP3   OH253092   0.653   5.339   5.838 -0.1590 -0.0386  0.7780
10534TIP3    H153093   0.715   5.305   5.774  0.1973  2.9238 -0.5365
10534TIP3    H253094   0.697   5.328   5.922  1.6559  0.8409 -0.0161
10535TIP3   OH253095   2.676   2.637   1.970 -0.7821 -0.5788 -0.2043
10535TIP3    H153096   2.604   2.688   1.934  0.6993  1.3953 -0.4528
10535TIP3    H253097   2.697   2.681   2.052 -0.2790 -1.5275  0.1752
10536TIP3   OH253098   0.077   3.764  14.458 -0.1188  0.6692  0.1661
10536TIP3    H153099   0.141   3.828  14.425  0.2773  1.5411  2.4990
10536TIP3    H253100   0.130   3.698  14.502 -0.6480 -0.2881 -0.6307
10537TIP3   OH253101   3.576   0.784  11.534 -0.0238 -0.0201  0.1429
10537TIP3    H153102   3.505   0.740  11.580  0.4998  0.0194  0.9960
10537TIP3    H253103   3.601   0.723  11.464  0.3963 -0.8848  1.0388
10538TIP3   OH253104   5.796   1.320   2.854 -0.3872  0.5052 -0.0044
10538TIP3    H153105   5.745   1.332   2.934  1.3745  2.4515  0.8827
10538TIP3    H253106   5.750   1.374   2.789 -0.5659  0.6989  0.2774
10539TIP3   OH253107   6.166   4.569   0.038  0.0947 -0.1732  0.5753
10539TIP3    H153108   6.176   4.656   0.077 -1.5658  1.0785 -1.6825
10539TIP3    H253109   6.196   4.579  -0.052 -0.3563 -1.8833  0.2221
10540TIP3   OH253110   6.037   4.038  14.301  0.7467  0.5105  0.2850
10540TIP3    H153111   6.077   4.052  14.215 -1.0924 -4.7770 -1.6850
10540TIP3    H253112   5.963   4.098  14.303 -0.0434 -0.2966 -2.5513
10541TIP3   OH253113   5.661   1.060   5.280  0.4775  0.3197 -0.1013
10541TIP3    H153114   5.659   1.122   5.352 -0.1323  1.1341 -0.8080
10541TIP3    H253115   5.745   1.016   5.289 -0.0997 -0.4411  1.8021
10542TIP3   OH253116   1.570   5.382   1.841  0.3089 -0.4644  0.7212
10542TIP3    H153117   1.510   5.344   1.905 -1.6145  1.2578 -0.0030
10542TIP3    H253118   1.522   5.379   1.758  2.1790 -1.2715 -0.3551
10543TIP3   OH253119   4.458   4.587  13.989 -0.0744 -0.6200  0.7272
10543TIP3    H153120   4.373   4.584  13.944 -0.1193 -0.2727  0.7882
10543TIP3    H253121   4.523   4.576  13.920  0.0413  3.8399 -0.0371
10544TIP3   OH253122   4.831   6.666   3.112 -0.4776 -0.0766  0.0780
10544TIP3    H153123   4.847   6.760   3.105 -3.5276  0.4994  0.0131
10544TIP3    H253124   4.861   6.643   3.200 -0.9053  1.2400  0.5766
10545TIP3   OH253125   5.942   4.129   6.001 -0.3087  0.4217  0.5357
10545TIP3    H153126   5.912   4.215   6.032 -1.3406  0.3782 -0.3071
10545TIP3    H253127   5.880   4.067   6.041  0.5478  0.0513  1.2942
10546TIP3   OH253128   6.020   3.653   3.032  0.2329 -1.0578  0.3838
10546TIP3    H153129   6.060   3.719   2.977  1.5233 -1.3083  0.9900
10546TIP3    H253130   5.927   3.653   3.008  0.1968  1.0413  0.4765
10547TIP3   OH253131   2.464   3.478  17.165  0.0694 -0.1455 -0.8337
10547TIP3    H153132   2.540   3.425  17.140  0.3877  0.3597 -0.9522
10547TIP3    H253133   2.424   3.430  17.237  1.8250  0.7127  0.7543
10548TIP3   OH253134   4.570   4.731  16.354  0.0225 -0.2768 -0.1245
10548TIP3    H153135   4.664   4.729  16.340 -0.1019  0.2510 -1.0733
10548TIP3    H253136   4.533   4.747  16.267 -0.8097  2.6554  0.7083
10549TIP3   OH253137   3.049   4.612   4.351  0.3684  0.8593 -0.0639
10549TIP3    H153138   3.024   4.520   4.362  1.4804  0.5410 -0.0820
10549TIP3    H253139   3.145   4.611   4.353  0.4627  1.6985 -2.4665
10550TIP3   OH253140   2.405   4.872   0.114  0.0637  0.0253 -0.2474
10550TIP3    H153141   2.351   4.908   0.184 -0.0072 -0.5492  0.0026
10550TIP3    H253142   2.345   4.856   0.041  0.1479  0.6806 -0.4593
10551TIP3   OH253143   6.737   0.380  11.212 -0.0844  0.5661  0.1432
10551TIP3    H153144   6.726   0.318  11.139 -0.1982  0.8220 -0.0579
10551TIP3    H253145   6.705   0.463  11.177 -1.5569  0.3641  0.9817
10552TIP3   OH253146   4.488   3.995   0.368 -0.4351  0.3550  0.2703
10552TIP3    H153147   4.423   4.061   0.343 -1.1450  0.3060  1.8818
10552TIP3    H253148   4.455   3.960   0.451 -0.0242 -1.9488 -0.4819
10553TIP3   OH253149   6.745   4.274  12.258  0.1338  0.0634  0.1680
10553TIP3    H153150   6.795   4.234  12.186 -0.7494 -1.0427  0.1625
10553TIP3    H253151   6.813   4.303  12.320  0.9367  1.5868 -1.3611
10554TIP3   OH253152   5.456   4.832   1.412 -0.0982 -0.3894 -0.1425
10554TIP3    H153153   5.450   4.925   1.393  0.4031 -0.0724  1.1390
10554TIP3    H253154   5.408   4.821   1.494  1.2317 -0.9545  0.5832
10555TIP3   OH253155   6.781   5.345   5.427 -0.5161 -0.2605  0.1979
10555TIP3    H153156   6.707   5.401   5.401  0.9406  2.3753  1.5942
10555TIP3    H253157   6.744   5.287   5.495 -1.3714  0.8626  0.7107
10556TIP3   OH253158   3.450   0.843   1.004 -0.1266  0.0501  0.0841
10556TIP3    H153159   3.381   0.817   1.065 -0.6959  1.3117 -0.0062
10556TIP3    H253160   3.420   0.810   0.919  0.2406 -0.9345  0.3273
10557TIP3   OH253161   2.836   3.155   4.964 -0.4580 -0.1347 -0.7250
10557TIP3    H153162   2.808   3.138   5.055  0.1050  0.0263 -0.5195
10557TIP3    H253163   2.927   3.124   4.961  0.5160  2.5384 -0.4244
10558TIP3   OH253164   1.912   2.004  11.712 -0.1648 -0.1801 -0.2290
10558TIP3    H153165   1.854   1.966  11.646 -0.9125 -2.1028  1.4596
10558TIP3    H253166   1.971   1.932  11.736 -0.1765  0.3559  1.4721
10559TIP3   OH253167   2.153   4.990   2.830  0.6158  0.0474  0.2025
10559TIP3    H153168   2.059   4.999   2.842  0.7135  0.4762  0.6350
10559TIP3    H253169   2.189   4.986   2.919  1.1160  1.0114  0.0460
10560TIP3   OH253170   5.677   2.235  16.678 -0.2532 -0.1008 -0.5128
10560TIP3    H153171   5.595   2.218  16.632 -0.5025 -0.0910 -0.0763
10560TIP3    H253172   5.711   2.148  16.700 -1.2560 -0.0622  1.2472
10561TIP3   OH253173   1.848   1.922  15.697  0.4043 -0.2707 -0.2066
10561TIP3    H153174   1.906   1.907  15.772  1.7684 -3.2740 -1.7469
10561TIP3    H253175   1.799   1.840  15.688  0.7859 -0.2477 -2.9825
10562TIP3   OH253176   0.637   2.835   3.625 -0.7935  0.2387  0.3550
10562TIP3    H153177   0.667   2.886   3.700 -0.8838  1.6828 -0.5659
10562TIP3    H253178   0.685   2.753   3.630 -1.0314  0.2030  2.1605
10563TIP3   OH253179   5.585   5.368  15.282 -0.2368  0.0435 -0.2493
10563TIP3    H153180   5.529   5.446  15.277 -2.8413 -1.8610 -3.1858
10563TIP3    H253181   5.645   5.378  15.208  1.3071  0.5456  1.0360
10564TIP3   OH253182   2.797   4.730   5.660  0.9535  0.2151  0.4522
10564TIP3    H153183   2.731   4.730   5.730 -0.1478 -0.2262 -0.5518
10564TIP3    H253184   2.850   4.652   5.677 -1.9898 -2.3542 -1.5827
10565TIP3   OH253185   2.056   4.204   2.267 -0.4568 -0.5462  0.3388
10565TIP3    H153186   2.040   4.212   2.361 -1.5013 -0.2580  0.1427
10565TIP3    H253187   2.134   4.148   2.261 -0.9333 -1.3439  1.3483
10566TIP3   OH253188   3.552   4.141   0.412 -0.1426  0.2035  0.0165
10566TIP3    H153189   3.571   4.144   0.506  1.0567 -0.8326 -0.1867
10566TIP3    H253190   3.512   4.226   0.393  0.0936  0.6262  1.3566
10567TIP3   OH253191   4.277   2.765   1.013 -0.0428 -0.1043  0.4435
10567TIP3    H153192   4.288   2.705   0.939  0.9457  0.2730  0.2866
10567TIP3    H253193   4.342   2.737   1.077  1.0509  1.3603  0.0013
10568TIP3   OH253194   1.927   3.111   0.446 -0.6315  0.0435 -0.6117
10568TIP3    H153195   1.959   3.027   0.477 -1.7018 -0.2190 -0.1767
10568TIP3    H253196   1.903   3.095   0.354  0.1049  0.1401 -0.8224
10569TIP3   OH253197   6.383   2.228  16.591 -0.2492 -0.2105 -0.3836
10569TIP3    H153198   6.381   2.200  16.500 -0.8908 -1.1199 -0.0946
10569TIP3    H253199   6.309   2.288  16.599 -0.2588 -0.2155 -0.4358
10570TIP3   OH253200   3.865   5.070   6.615 -0.0553 -0.0230 -0.2700
10570TIP3    H153201   3.844   5.145   6.560 -1.0434 -0.5474 -0.6169
10570TIP3    H253202   3.948   5.094   6.657 -0.1150  1.0522 -0.7419
10571TIP3   OH253203   5.646   5.293  16.976  0.1318 -0.7741  0.0492
10571TIP3    H153204   5.683   5.208  16.956  0.7061 -0.8545  1.4151
10571TIP3    H253205   5.651   5.300  17.071 -0.9460  0.3087  0.0458
10572TIP3   OH253206   2.218   6.365   5.640 -0.4326  0.7683 -0.3143
10572TIP3    H153207   2.164   6.286   5.639 -0.9467  1.1139 -1.2267
10572TIP3    H253208   2.187   6.414   5.716  0.1429 -0.0643  0.4736
10573TIP3   OH253209   3.394   5.869  13.208  0.0612 -0.0750  0.0889
10573TIP3    H153210   3.374   5.789  13.160 -0.4729 -0.7896  1.4604
10573TIP3    H253211   3.480   5.853  13.247 -1.6054 -1.4941  3.3784
10574TIP3   OH253212   4.224   3.404  13.592 -0.2276 -0.7281  0.4355
10574TIP3    H153213   4.240   3.344  13.519 -0.8995  1.5325 -1.6374
10574TIP3    H253214   4.240   3.491  13.555  1.2360  0.3619  3.5068
10575TIP3   OH253215   2.539   5.283   4.380  0.0985 -0.5494  0.2689
10575TIP3    H153216   2.496   5.270   4.295  1.1830 -1.2774 -0.1879
10575TIP3    H253217   2.571   5.196   4.403 -1.9143 -0.7637  2.3991
10576TIP3   OH253218   1.884   0.373   5.048 -0.2552  0.1561 -0.3900
10576TIP3    H153219   1.890   0.320   4.968  1.5693  0.3379 -0.4004
10576TIP3    H253220   1.960   0.346   5.100 -1.7683 -0.4400  1.5931
10577TIP3   OH253221   1.987   1.630  12.724 -0.1412 -0.6694  0.0643
10577TIP3    H153222   1.968   1.543  12.757 -1.0614 -0.9422 -1.1400
10577TIP3    H253223   1.994   1.685  12.802  1.0853 -1.9265  0.8586
10578TIP3   OH253224   2.524   0.180   3.308  0.1741  0.3586 -0.0677
10578TIP3    H153225   2.565   0.122   3.244  0.0169 -1.4259  1.4096
10578TIP3    H253226   2.431   0.181   3.284  0.3493  0.8614 -0.7352
10579TIP3   OH253227   0.370   0.137  11.413 -0.0777 -0.4678 -0.6653
10579TIP3    H153228   0.281   0.103  11.419  0.0880 -0.6720  0.9251
10579TIP3    H253229   0.400   0.111  11.326 -1.7421  0.0449 -1.4081
10580TIP3   OH253230   3.788   5.705   1.361 -0.0312  0.1246  0.2975
10580TIP3    H153231   3.875   5.729   1.329 -0.8264  1.4261 -0.9353
10580TIP3    H253232   3.732   5.709   1.284 -1.1018 -1.1921  0.9946
10581TIP3   OH253233   1.747   5.279  14.408 -1.0506 -0.3780  0.1930
10581TIP3    H153234   1.823   5.335  14.424 -1.4789 -0.0182  1.0075
10581TIP3    H253235   1.749   5.263  14.313 -0.3261  0.1441  0.1106
10582TIP3   OH253236   5.789   0.747  10.224  0.1317  0.4182  0.2038
10582TIP3    H153237   5.741   0.827  10.245  0.9389  2.0973 -3.8024
10582TIP3    H253238   5.881   0.773  10.228  0.4757 -0.9425  1.1947
10583TIP3   OH253239   2.307   6.315  16.526 -0.2755 -0.0578 -0.0517
10583TIP3    H153240   2.368   6.246  16.501 -0.6475 -0.0126 -1.1247
10583TIP3    H253241   2.354   6.396  16.506  0.4643  0.0207  1.9438
10584TIP3   OH253242   1.744   0.623  12.469 -0.4277  0.1219  0.3528
10584TIP3    H153243   1.751   0.697  12.530  1.3069  0.4503 -0.2243
10584TIP3    H253244   1.834   0.603  12.445 -1.0173 -0.8847 -1.0707
10585TIP3   OH253245   0.896   0.633  16.538 -0.1399 -0.1033  0.1940
10585TIP3    H153246   0.970   0.691  16.554  0.5713 -1.2063  0.9503
10585TIP3    H253247   0.887   0.582  16.619 -0.8221 -0.9790 -0.4203
10586TIP3   OH253248   3.375   2.834  15.032  0.1956  0.0767 -0.3925
10586TIP3    H153249   3.367   2.928  15.049 -0.2317  0.3616 -2.1351
10586TIP3    H253250   3.466   2.822  15.004  0.8311 -0.3581  1.7699
10587TIP3   OH253251   1.528   2.633  14.932  0.1270  0.9669  0.1753
10587TIP3    H153252   1.468   2.662  14.863 -0.4135  0.4138  0.4062
10587TIP3    H253253   1.474   2.627  15.010  0.1250 -1.0753  0.0379
10588TIP3   OH253254   3.510   5.880  13.791  0.2647  0.4450 -0.5931
10588TIP3    H153255   3.545   5.939  13.858  1.2681 -0.8094 -0.0027
10588TIP3    H253256   3.551   5.909  13.709  2.3662 -0.7370  0.0271
10589TIP3   OH253257   2.465   1.863   5.722  0.3559 -0.0967 -0.9364
10589TIP3    H153258   2.527   1.796   5.693  2.3059  0.0312  2.6020
10589TIP3    H253259   2.518   1.925   5.772 -2.4958  0.4718  1.5461
10590TIP3   OH253260   3.541   1.572   4.933  0.7220 -1.2791  0.1923
10590TIP3    H153261   3.576   1.623   5.006 -0.4786 -0.4729  0.2228
10590TIP3    H253262   3.598   1.495   4.927  1.1064 -1.1124  1.6739
10591TIP3   OH253263   5.782   0.761   4.156  0.0993  0.1493 -0.0712
10591TIP3    H153264   5.785   0.715   4.240  1.5225 -0.6042 -0.5208
10591TIP3    H253265   5.874   0.780   4.136 -0.2183  0.1937 -1.5331
10592TIP3   OH253266   0.245   6.202   6.848  0.0302  0.8000  0.4378
10592TIP3    H153267   0.284   6.251   6.776  1.4749 -1.6647 -0.5271
10592TIP3    H253268   0.153   6.227   6.847  0.5906  2.9244 -0.4719
10593TIP3   OH253269   1.976   4.275   0.993  0.5195 -0.4532 -0.5276
10593TIP3    H153270   1.914   4.347   0.979 -0.4587 -1.2277 -0.2262
10593TIP3    H253271   2.061   4.318   0.998  0.1132  0.5263 -1.8734
10594TIP3   OH253272   6.423   5.170  14.229 -0.6075  0.4435 -0.1378
10594TIP3    H153273   6.382   5.135  14.150  0.3930 -1.4054  0.1461
10594TIP3    H253274   6.352   5.177  14.293 -0.5682 -2.4340  0.2539
10595TIP3   OH253275   2.334   4.285  15.475 -0.5896 -0.0060  0.2607
10595TIP3    H153276   2.354   4.261  15.385 -0.3718  1.2368 -0.0313
10595TIP3    H253277   2.265   4.224  15.502  0.8240 -1.7310 -0.0341
10596TIP3   OH253278   1.873   6.604   1.042  0.5267 -0.6009  0.1417
10596TIP3    H153279   1.910   6.674   1.095  0.7480 -0.2646 -0.4551
10596TIP3    H253280   1.826   6.549   1.105 -1.5445  1.2951  0.3177
10597TIP3   OH253281   0.435   4.179  11.348 -0.3978 -0.3429 -0.6220
10597TIP3    H153282   0.439   4.274  11.336 -1.5460 -0.4773 -2.2051
10597TIP3    H253283   0.505   4.145  11.293  0.2186 -0.4170  0.1897
10598TIP3   OH253284   1.384   1.884  14.400 -0.1694 -0.5460 -0.0037
10598TIP3    H153285   1.361   1.965  14.448  1.0664 -0.9440  1.2875
10598TIP3    H253286   1.437   1.914  14.327  0.2846 -0.1791  0.4730
10599TIP3   OH253287   5.846   0.438  16.287 -0.4979  0.3289  0.2703
10599TIP3    H153288   5.843   0.377  16.361  0.0212 -1.3846 -1.1040
10599TIP3    H253289   5.912   0.402  16.228  0.4465  2.6823 -0.1788
10600TIP3   OH253290   2.195   1.994  14.014 -0.1870  0.3246 -0.2194
10600TIP3    H153291   2.153   1.908  14.019 -1.0248  0.7343 -0.2022
10600TIP3    H253292   2.279   1.977  13.970 -0.6632 -0.3883 -0.8621
10601TIP3   OH253293   1.660   2.244   4.336 -0.2444 -0.1976  0.4815
10601TIP3    H153294   1.722   2.206   4.399  1.8586  2.9912  0.4111
10601TIP3    H253295   1.646   2.333   4.367 -1.3660  0.5371 -2.0536
10602TIP3   OH253296   1.863   3.628   4.689  0.3037  0.3245 -0.0822
10602TIP3    H153297   1.816   3.548   4.711  0.3341  0.3462  0.0600
10602TIP3    H253298   1.915   3.605   4.611 -0.5083  0.5103 -0.6798
10603TIP3   OH253299   1.868   6.810  13.975  0.5705 -0.6873  0.2380
10603TIP3    H153300   1.838   6.721  13.989 -0.0085 -0.5669 -0.2310
10603TIP3    H253301   1.912   6.808  13.889  0.1021 -0.4098 -0.0111
10604TIP3   OH253302   4.310   4.297  12.476 -0.5747  0.5608  0.5437
10604TIP3    H153303   4.251   4.265  12.407  0.5425  1.1275 -0.6848
10604TIP3    H253304   4.390   4.321  12.430  0.1112  1.1499  2.0236
10605TIP3   OH253305   4.565   1.419  15.732  0.8626  0.1521 -0.0283
10605TIP3    H153306   4.507   1.444  15.804 -1.3708 -0.8723 -1.4176
10605TIP3    H253307   4.563   1.493  15.672  0.3089 -0.2530 -0.5038
10606TIP3   OH253308   0.972   1.123   4.226  0.2914  0.3271 -0.2544
10606TIP3    H153309   0.887   1.082   4.240  0.3499  0.1120 -0.5198
10606TIP3    H253310   1.036   1.056   4.251  0.3878  1.3663  2.4447
10607TIP3   OH253311   5.595   2.748  14.767 -0.3144  0.0602  0.3593
10607TIP3    H153312   5.632   2.831  14.797  1.0627  0.7325 -2.9846
10607TIP3    H253313   5.501   2.763  14.765 -0.1096  1.3958  0.2295
10608TIP3   OH253314   1.061   1.394   1.651 -0.8510  0.1649 -0.7310
10608TIP3    H153315   1.114   1.350   1.717  0.4295 -2.0906 -3.1306
10608TIP3    H253316   0.997   1.445   1.700 -0.5426 -2.1760  2.2200
10609TIP3   OH253317   1.331   3.965   0.526 -0.3851  0.2353 -0.1859
10609TIP3    H153318   1.341   3.893   0.463 -1.6095 -0.5283  0.4655
10609TIP3    H253319   1.306   4.040   0.472  0.8040  0.1590 -0.8639
10610TIP3   OH253320   3.948   1.884   4.466 -1.2217  0.8929  0.6869
10610TIP3    H153321   3.950   1.975   4.494  1.2765  1.0933 -0.0280
10610TIP3    H253322   3.999   1.837   4.532  0.7146  0.6336 -0.9469
10611TIP3   OH253323   4.864   4.650   3.791 -0.5108 -0.2889  0.1281
10611TIP3    H153324   4.810   4.652   3.870  0.5717  1.3427  0.8481
10611TIP3    H253325   4.928   4.580   3.808 -0.3746 -0.0426  0.6471
10612TIP3   OH253326   1.478   2.547   2.249 -0.0395  0.3334 -0.2676
10612TIP3    H153327   1.494   2.625   2.301 -0.0249 -0.8928  1.6395
10612TIP3    H253328   1.443   2.483   2.312  0.2326 -1.2886 -1.7110
10613TIP3   OH253329   5.636   4.367  15.451 -0.3223 -0.2956 -1.0382
10613TIP3    H153330   5.651   4.304  15.521  1.0671  0.3989 -0.6925
10613TIP3    H253331   5.665   4.322  15.371  0.2039 -0.2735 -0.8600
10614TIP3   OH253332   4.229   1.682   1.250  0.4301  0.2268 -0.3555
10614TIP3    H153333   4.197   1.598   1.216  0.2207  0.2191 -0.1384
10614TIP3    H253334   4.233   1.669   1.345 -1.0462  0.9500 -0.1803
10615TIP3   OH253335   0.703   6.409  14.692 -0.3692  0.6532 -0.9553
10615TIP3    H153336   0.769   6.444  14.751 -0.7112  0.0395 -0.2037
10615TIP3    H253337   0.631   6.471  14.697 -1.6774 -0.9945  1.6924
10616TIP3   OH253338   0.234   5.907   6.886 -0.3031  0.5735 -0.4978
10616TIP3    H153339   0.236   6.003   6.887 -1.1812  0.5876  0.3997
10616TIP3    H253340   0.253   5.884   6.795  0.1469  1.5868 -0.6751
10617TIP3   OH253341   6.273   5.974  14.586 -0.0539  0.8243 -0.1713
10617TIP3    H153342   6.242   6.015  14.506 -0.6626 -0.4850 -0.6128
10617TIP3    H253343   6.200   5.921  14.617  0.6752  0.1550  0.4514
10618TIP3   OH253344   6.229   4.360  14.531 -0.4753  0.7473 -0.2679
10618TIP3    H153345   6.276   4.391  14.453  0.9971 -0.1076  0.2517
10618TIP3    H253346   6.261   4.270  14.543 -2.8112 -0.1077 -0.3237
10619TIP3   OH253347   5.254   5.149   6.210  0.1347 -0.1993 -0.1991
10619TIP3    H153348   5.187   5.102   6.259  0.5151 -0.8120 -0.2638
10619TIP3    H253349   5.281   5.220   6.268  0.3159 -0.6978  0.3209
10620TIP3   OH253350   0.419   1.026  11.232  0.0820 -0.1238  0.2563
10620TIP3    H153351   0.417   0.934  11.258  0.5552 -0.2146 -0.0189
10620TIP3    H253352   0.421   1.023  11.136 -1.6220  0.2025  0.1890
10621TIP3   OH253353   3.171   0.575   2.722  0.1728 -0.4349 -0.5894
10621TIP3    H153354   3.128   0.645   2.773  1.3313 -0.2433  0.1482
10621TIP3    H253355   3.109   0.555   2.652 -1.6890 -1.0573  1.1975
10622TIP3   OH253356   1.014   3.377  14.538  0.1021  0.4219  0.3847
10622TIP3    H153357   1.015   3.288  14.505  3.3823  1.1515 -1.6784
10622TIP3    H253358   1.097   3.387  14.585  0.3971  2.7190 -0.5229
10623TIP3   OH253359   3.755   4.035  11.076  0.0260 -0.4952  0.4137
10623TIP3    H153360   3.764   4.049  10.981  1.1704  3.2734  0.9846
10623TIP3    H253361   3.843   4.015  11.106  0.3995  2.0630  1.1565
10624TIP3   OH253362   5.117   1.785  15.995 -0.2648 -0.4255  0.7310
10624TIP3    H153363   5.156   1.754  15.913  0.4797 -1.5569  1.4875
10624TIP3    H253364   5.024   1.795  15.974 -0.2991 -1.8776  0.0535
10625TIP3   OH253365   2.957   0.001  11.579 -0.7979  0.0131  0.8749
10625TIP3    H153366   3.043  -0.024  11.545 -0.4941  0.1023  1.5604
10625TIP3    H253367   2.905   0.023  11.501 -0.1553  0.1039  0.4693
10626TIP3   OH253368   0.734   4.700   1.178  0.3420  0.2615 -0.7055
10626TIP3    H153369   0.826   4.685   1.156  0.5623  1.7197 -0.8596
10626TIP3    H253370   0.729   4.687   1.273  0.2896 -1.7400 -0.9577
10627TIP3   OH253371   2.576   0.375  14.368  0.3908  0.6712 -0.2331
10627TIP3    H153372   2.497   0.406  14.413  0.0869  1.1126 -1.0641
10627TIP3    H253373   2.646   0.384  14.433 -0.3052 -0.0670  0.6322
10628TIP3   OH253374   2.252   6.649   5.403 -1.0822  0.1087 -0.4491
10628TIP3    H153375   2.318   6.715   5.424 -0.5168 -1.3081  2.5758
10628TIP3    H253376   2.300   6.582   5.354 -0.4068 -0.4923  0.9832
10629TIP3   OH253377   5.740   1.994  12.684 -0.4964  0.5521  0.3282
10629TIP3    H153378   5.703   2.018  12.769  0.7521 -2.8549  1.9271
10629TIP3    H253379   5.738   1.898  12.683  1.8372  0.4632 -2.4396
10630TIP3   OH253380   1.364   5.989  14.896  0.0796  0.2032 -0.3639
10630TIP3    H153381   1.276   5.960  14.920  0.9455 -1.8854  0.4398
10630TIP3    H253382   1.351   6.047  14.821 -2.0084  0.2861  0.0445
10631TIP3   OH253383   1.473   0.138  10.874  0.1606  0.2388 -0.0594
10631TIP3    H153384   1.538   0.205  10.893  0.2139  1.0018 -2.6776
10631TIP3    H253385   1.524   0.061  10.848  0.0666  1.0290 -2.7186
10632TIP3   OH253386   4.207   5.165  13.697  0.0458  0.8553  0.0266
10632TIP3    H153387   4.161   5.086  13.724  0.3282  0.9030  0.6503
10632TIP3    H253388   4.228   5.210  13.779 -2.1046  2.7052 -0.3922
10633TIP3   OH253389   1.535   3.219   0.679 -0.2999  0.6899 -0.1718
10633TIP3    H153390   1.439   3.218   0.670 -0.0538  0.3239 -2.9871
10633TIP3    H253391   1.559   3.310   0.667 -0.2538  0.7192  0.1395
10634TIP3   OH253392   6.693   4.951   0.442  0.1858  0.4260 -0.8138
10634TIP3    H153393   6.683   4.975   0.350  0.3786  2.4133 -0.3390
10634TIP3    H253394   6.619   4.992   0.486  0.5768  0.2088  0.0565
10635TIP3   OH253395   6.716   0.964  12.995 -0.1491 -0.1078 -0.2343
10635TIP3    H153396   6.767   0.916  13.061 -2.1854 -3.2335 -0.7968
10635TIP3    H253397   6.776   0.974  12.921  1.0281  0.2104  0.7494
10636TIP3   OH253398   3.512   4.175  12.688  0.1690 -0.1811  0.5701
10636TIP3    H153399   3.447   4.229  12.643 -0.3363 -0.4734  0.9392
10636TIP3    H253400   3.460   4.108  12.733  0.7343 -0.4820  0.7777
10637TIP3   OH253401   3.306   2.394   5.482  0.0502  0.1734  0.1517
10637TIP3    H153402   3.368   2.383   5.410 -0.7159  0.6636 -0.5966
10637TIP3    H253403   3.315   2.486   5.507  1.0250 -0.2328  1.3534
10638TIP3   OH253404   0.479   3.165   5.110 -0.1095  0.0023 -0.0490
10638TIP3    H153405   0.489   3.140   5.202 -0.4548 -1.8924 -0.5009
10638TIP3    H253406   0.410   3.108   5.077 -0.3575  1.0356 -1.3676
10639TIP3   OH253407   4.520   6.655   0.958  0.7222  0.3228  0.0529
10639TIP3    H153408   4.427   6.674   0.958  0.9975  1.7351  0.9267
10639TIP3    H253409   4.529   6.574   1.009 -0.2325 -1.0720 -1.9070
10640TIP3   OH253410   2.157   3.497   5.265 -0.8000 -0.1005 -0.2399
10640TIP3    H153411   2.107   3.569   5.227 -0.0462  1.0593  0.9036
10640TIP3    H253412   2.230   3.483   5.204  0.2108  1.5164  0.5533
10641TIP3   OH253413   2.284   0.726   6.027  0.1795  0.4277 -0.1389
10641TIP3    H153414   2.235   0.689   5.954 -0.1713  0.6761 -0.0294
10641TIP3    H253415   2.294   0.818   6.006  0.6200  0.3751 -0.1702
10642TIP3   OH253416   4.754   4.755   5.674  0.0171  0.1746  0.5429
10642TIP3    H153417   4.801   4.815   5.732 -2.0657  2.4533 -0.0467
10642TIP3    H253418   4.773   4.786   5.586  0.1385 -0.9886  0.1504
10643TIP3   OH253419   6.276   4.940  12.327  0.2083 -0.3871 -0.0220
10643TIP3    H153420   6.351   4.951  12.385  0.3970  1.2240 -0.5596
10643TIP3    H253421   6.293   4.858  12.280  1.2779 -0.3883  0.3746
10644TIP3   OH253422   0.423   0.945  12.629 -0.0652  0.5748  0.0885
10644TIP3    H153423   0.418   0.964  12.535 -1.6412 -0.8193 -0.1393
10644TIP3    H253424   0.517   0.936  12.646  0.2633  1.1554 -1.2848
10645TIP3   OH253425   6.771   6.280  12.562 -0.2936 -0.6090  0.6316
10645TIP3    H153426   6.731   6.349  12.614 -0.0774 -0.6860  0.9029
10645TIP3    H253427   6.848   6.321  12.523 -1.0274 -0.2649 -0.4573
10646TIP3   OH253428   6.374   0.154  16.664  0.0919 -0.8871  0.2875
10646TIP3    H153429   6.419   0.229  16.702 -0.2532 -0.6225  0.1807
10646TIP3    H253430   6.430   0.127  16.591  0.3513 -0.9027  0.4894
10647TIP3   OH253431   3.752   3.478   0.046 -0.0369 -0.1648  0.2432
10647TIP3    H153432   3.838   3.515   0.029 -0.1650  0.0114 -0.0241
10647TIP3    H253433   3.731   3.428  -0.033 -0.8261  1.0199 -0.3165
10648TIP3   OH253434   0.218   5.124   0.447  0.1433  0.0881 -0.7580
10648TIP3    H153435   0.185   5.214   0.449 -0.8036 -0.2726  0.6629
10648TIP3    H253436   0.274   5.117   0.524  1.9304  0.0629 -2.0206
10649TIP3   OH253437   0.464   5.664  15.802 -0.0295 -0.2827 -0.5988
10649TIP3    H153438   0.509   5.747  15.784 -0.1341  0.7957  3.5955
10649TIP3    H253439   0.534   5.599  15.805  0.3378  0.0629 -1.4028
10650TIP3   OH253440   6.589   4.441   4.987 -0.5226 -0.0224  0.0878
10650TIP3    H153441   6.672   4.448   5.034 -0.1848 -1.4055 -0.2891
10650TIP3    H253442   6.525   4.418   5.054 -0.4089  0.0082  0.2070
10651TIP3   OH253443   1.514   0.820  14.510  0.4446  0.0126 -0.0711
10651TIP3    H153444   1.518   0.892  14.574 -0.3797 -0.5409  0.6142
10651TIP3    H253445   1.421   0.807  14.495  0.5985 -0.8542 -0.2630
10652TIP3   OH253446   1.378   2.337  13.595  0.1104  0.0366 -0.5934
10652TIP3    H153447   1.437   2.391  13.543  0.5910  0.1520  0.0654
10652TIP3    H253448   1.399   2.247  13.570  0.0411  0.1084 -0.9114
10653TIP3   OH253449   5.687   0.428   0.413 -0.2744  0.2238  0.0556
10653TIP3    H153450   5.620   0.428   0.345  0.9239 -1.7037 -1.2081
10653TIP3    H253451   5.691   0.336   0.443 -0.4174  0.9288  2.3763
10654TIP3   OH253452   1.426   4.123  13.364 -0.1745 -0.2954  0.5336
10654TIP3    H153453   1.446   4.215  13.348 -0.0711 -0.1470  1.5380
10654TIP3    H253454   1.387   4.093  13.281  0.0191  0.5754  0.1166
10655TIP3   OH253455   3.248   5.106   0.181  0.2277  0.4335 -0.6892
10655TIP3    H153456   3.186   5.169   0.219 -0.3746  0.1691 -1.2231
10655TIP3    H253457   3.331   5.153   0.178 -0.3758  1.4474 -1.7283
10656TIP3   OH253458   2.171   5.670   5.564 -0.3435 -0.0346 -0.5434
10656TIP3    H153459   2.187   5.759   5.533 -2.1087  0.5247  0.1251
10656TIP3    H253460   2.103   5.636   5.507 -0.1513 -0.7228 -0.3703
10657TIP3   OH253461   1.000   5.277   2.096 -0.2694  0.0794 -0.0669
10657TIP3    H153462   0.942   5.334   2.046 -0.9369 -0.6235 -0.0957
10657TIP3    H253463   1.035   5.216   2.032  0.6497  0.6145 -0.0816
10658TIP3   OH253464   4.497   6.268   2.381 -0.1259 -0.5142  0.4673
10658TIP3    H153465   4.521   6.360   2.381 -1.5128 -0.1462  0.4856
10658TIP3    H253466   4.546   6.230   2.454  1.0837  0.0338 -0.0550
10659TIP3   OH253467   2.416   0.974   3.073  0.8429  0.0162 -0.3033
10659TIP3    H153468   2.346   0.943   3.131  1.6194  1.5425  1.5324
10659TIP3    H253469   2.380   0.964   2.985 -1.6047  0.4970  0.5775
10660TIP3   OH253470   6.592   4.874   6.201 -0.0188  0.0276  0.1782
10660TIP3    H153471   6.653   4.834   6.140 -1.4038 -1.4122 -0.2883
10660TIP3    H253472   6.587   4.812   6.274 -0.0998  0.6622  0.7202
10661TIP3   OH253473   5.532   6.359   3.543 -0.2419  0.1459 -0.4881
10661TIP3    H153474   5.449   6.401   3.522 -0.8384 -0.8872 -0.2468
10661TIP3    H253475   5.507   6.278   3.587  0.9138  0.2338  0.3391
10662TIP3   OH253476   6.281   3.098  14.739  0.1471 -0.1154 -0.5372
10662TIP3    H153477   6.314   3.138  14.820  0.3288 -3.2870  1.0470
10662TIP3    H253478   6.352   3.039  14.712 -0.6228 -0.3384 -2.1067
10663TIP3   OH253479   5.258   4.160  16.327 -0.0937  0.0785  0.1104
10663TIP3    H153480   5.220   4.207  16.253 -0.4161 -0.0300  0.2049
10663TIP3    H253481   5.227   4.070  16.316  0.5224 -0.1129 -0.0734
10664TIP3   OH253482   3.151   0.084  16.180 -0.2727 -0.0481 -0.0881
10664TIP3    H153483   3.236   0.044  16.197 -0.2008  0.6251  1.2302
10664TIP3    H253484   3.097   0.011  16.149  0.4452 -0.7445  0.2637
10665TIP3   OH253485   6.417   1.643  16.318  0.7337 -0.1804  0.0647
10665TIP3    H153486   6.336   1.606  16.283  0.2971  1.3515 -0.5647
10665TIP3    H253487   6.458   1.570  16.365 -0.9812 -0.9741  0.3579
10666TIP3   OH253488   0.763   1.529  12.451  0.1644  0.4731  0.0088
10666TIP3    H153489   0.765   1.610  12.502  0.6210  1.0256 -0.8686
10666TIP3    H253490   0.855   1.505  12.440  0.1321  1.0152 -1.5736
10667TIP3   OH253491   3.638   3.255  17.149  0.4888 -0.7226 -0.9246
10667TIP3    H153492   3.730   3.236  17.171  0.1613 -1.4002 -0.1207
10667TIP3    H253493   3.630   3.228  17.057  1.3315  0.1961 -1.2787
10668TIP3   OH253494   5.523   1.072  11.859  0.0679 -0.1873  0.3281
10668TIP3    H153495   5.457   1.088  11.927 -0.7263 -2.5993  0.1823
10668TIP3    H253496   5.490   0.996  11.811  2.6069 -1.0112 -0.2056
10669TIP3   OH253497   1.136   5.521  15.062  0.2048 -0.2526 -0.2661
10669TIP3    H153498   1.113   5.523  14.969 -0.5723 -2.2661 -0.1365
10669TIP3    H253499   1.079   5.587  15.102 -0.1070 -0.0307 -1.0750
10670TIP3   OH253500   5.799   5.015  12.797  0.3286 -0.1463  0.1427
10670TIP3    H153501   5.801   5.023  12.892 -0.6451 -1.1947  0.2659
10670TIP3    H253502   5.774   4.924  12.781  3.2411 -0.7743 -1.1306
10671TIP3   OH253503   3.144   4.021  15.677  0.2840 -0.1874 -0.5216
10671TIP3    H153504   3.080   3.978  15.620 -1.0936 -0.4786  1.1925
10671TIP3    H253505   3.136   4.114  15.657 -0.3047 -0.2746 -0.6917
10672TIP3   OH253506   3.350   0.594   0.241  0.4794  0.0689 -0.3416
10672TIP3    H153507   3.396   0.677   0.235 -0.3828  0.5916  0.1696
10672TIP3    H253508   3.275   0.604   0.182  0.2926 -0.2910 -0.1669
10673TIP3   OH253509   5.443   6.235   5.209  0.0403  0.5787  0.0204
10673TIP3    H153510   5.539   6.237   5.207  0.0596  0.5911  0.6507
10673TIP3    H253511   5.421   6.265   5.298 -0.5902  2.0638 -0.6151
10674TIP3   OH253512   2.279   4.236   0.381  0.8706  0.3076 -0.3435
10674TIP3    H153513   2.288   4.306   0.445 -1.0412  0.9258 -0.7170
10674TIP3    H253514   2.361   4.186   0.388  1.9403  2.1254  0.4438
10675TIP3   OH253515   3.791   6.360   4.493 -0.5029  0.5395 -0.4249
10675TIP3    H153516   3.778   6.454   4.483 -0.7616  0.3067 -2.5139
10675TIP3    H253517   3.886   6.348   4.497 -0.4777  0.8960  0.2079
10676TIP3   OH253518   0.274   0.433  16.781  0.3759  0.4094  0.3851
10676TIP3    H153519   0.345   0.372  16.800  0.2236 -0.4878 -1.7312
10676TIP3    H253520   0.269   0.433  16.685 -2.7314  0.1527  0.5092
10677TIP3   OH253521   5.934   4.491   2.695  0.3230  0.4908  0.2380
10677TIP3    H153522   5.877   4.529   2.762  0.6546 -1.3685  1.6046
10677TIP3    H253523   5.876   4.477   2.620 -1.3240 -2.2387  1.9248
10678TIP3   OH253524   0.168   1.138   5.501 -0.2645 -0.2394  0.2303
10678TIP3    H153525   0.239   1.140   5.437 -0.1210 -0.7191  0.3682
10678TIP3    H253526   0.108   1.072   5.467 -2.4733  2.6956 -1.7861
10679TIP3   OH253527   1.990   2.300   2.610  0.5444  0.3370 -0.4970
10679TIP3    H153528   2.063   2.316   2.550  1.3645 -1.1498  0.0972
10679TIP3    H253529   1.928   2.248   2.559  0.8828 -0.2475 -0.3156
10680TIP3   OH253530   4.186   4.221   1.439 -0.0113 -0.4480  0.6870
10680TIP3    H153531   4.229   4.240   1.356  0.2106 -1.2539  0.6177
10680TIP3    H253532   4.138   4.301   1.459  0.8699  0.1715  0.3662
10681TIP3   OH253533   1.714   0.818  14.326 -0.2339  0.0307 -0.1468
10681TIP3    H153534   1.649   0.818  14.396 -0.1806  0.0691 -0.0964
10681TIP3    H253535   1.798   0.811  14.372 -0.1082  1.5974 -0.1075
10682TIP3   OH253536   2.458   0.516  15.749  0.0650  0.0567 -0.6655
10682TIP3    H153537   2.427   0.580  15.813 -1.4789 -1.7166  0.3995
10682TIP3    H253538   2.523   0.464  15.796 -0.6156 -0.8464 -0.7065
10683TIP3   OH253539   4.207   4.931   3.686  0.1982  0.1373 -0.1330
10683TIP3    H153540   4.127   4.902   3.643  0.1449 -0.8518  0.6184
10683TIP3    H253541   4.277   4.888   3.637  0.3986  2.4232 -1.9330
10684TIP3   OH253542   0.472   0.238  15.477  0.2837 -0.3963 -0.6889
10684TIP3    H153543   0.504   0.148  15.478  1.4485  0.0216 -0.2369
10684TIP3    H253544   0.479   0.267  15.567  0.2277  0.2625 -0.8954
10685TIP3   OH253545   2.606   2.326   3.228 -0.2893  0.1033 -0.3233
10685TIP3    H153546   2.659   2.292   3.157  2.0098  4.1225 -0.6842
10685TIP3    H253547   2.527   2.361   3.185  0.9551  2.2455 -0.9403
10686TIP3   OH253548   3.488   2.310  15.509  0.7392 -0.1539 -0.3408
10686TIP3    H153549   3.458   2.235  15.562 -0.4972 -0.2818 -1.1976
10686TIP3    H253550   3.539   2.270  15.438  0.1376 -0.1827 -0.7591
10687TIP3   OH253551   5.753   4.687  16.256  0.3102 -0.4348  0.1631
10687TIP3    H153552   5.749   4.638  16.338  3.0220 -1.8362 -0.4910
10687TIP3    H253553   5.802   4.766  16.278  2.8409 -1.7739 -0.5185
10688TIP3   OH253554   1.377   6.674  12.205  0.1264  0.1153  0.0292
10688TIP3    H153555   1.370   6.716  12.291 -0.6888  2.3411 -1.0855
10688TIP3    H253556   1.472   6.667  12.190  0.2710  0.0281  0.9506
10689TIP3   OH253557   6.013   6.772   2.082  0.3269  0.3842  0.2584
10689TIP3    H153558   5.959   6.732   2.013 -0.0528  0.8287  0.2952
10689TIP3    H253559   6.027   6.862   2.052 -0.5520  0.8258  1.1709
10690TIP3   OH253560   6.736   4.957   2.784 -0.7659 -0.0023  1.0835
10690TIP3    H153561   6.783   4.910   2.715 -0.4951  0.9775  0.5937
10690TIP3    H253562   6.662   4.900   2.806 -0.5328 -0.5783  0.3804
10691TIP3   OH253563   1.706   5.356   2.415 -0.1936  0.2574  0.1730
10691TIP3    H153564   1.742   5.399   2.338  1.7126  1.7887  1.8517
10691TIP3    H253565   1.613   5.380   2.415  0.3361  2.4164 -0.2431
10692TIP3   OH253566   6.642   5.698   6.168 -0.3070  0.1956  0.8079
10692TIP3    H153567   6.672   5.685   6.258  1.7165  0.9008  0.2710
10692TIP3    H253568   6.571   5.635   6.157 -0.0179 -0.4854  2.6374
10693TIP3   OH253569   4.669   2.666  11.590 -0.1086  0.1587  0.1408
10693TIP3    H153570   4.706   2.610  11.658 -1.3116 -1.4778 -0.5328
10693TIP3    H253571   4.586   2.696  11.627 -0.3580 -0.0357 -0.2663
10694TIP3   OH253572   5.675   6.193  13.367  0.2208 -0.0465 -0.5639
10694TIP3    H153573   5.638   6.204  13.454 -1.0619  1.5071 -1.2777
10694TIP3    H253574   5.607   6.148  13.318  0.9905 -1.0354 -0.7339
10695TIP3   OH253575   0.416   1.855   2.695 -0.3014  0.3528 -0.2120
10695TIP3    H153576   0.380   1.767   2.686 -0.0664  0.2571 -0.2147
10695TIP3    H253577   0.408   1.893   2.607 -2.3242  1.0756  0.2585
10696TIP3   OH253578   4.684   4.647  12.619 -0.0381 -0.0630 -0.1285
10696TIP3    H153579   4.672   4.739  12.639  0.9823 -0.5218  2.8042
10696TIP3    H253580   4.596   4.609  12.625  0.1119 -0.0144  2.7087
10697TIP3   OH253581   2.712   0.438  15.117 -0.3434  0.0280 -0.4850
10697TIP3    H153582   2.652   0.505  15.148  0.8915  1.3208 -0.8676
10697TIP3    H253583   2.676   0.411  15.032 -0.0855  1.1741 -0.9605
10698TIP3   OH253584   0.961   6.519   4.874  0.2847 -0.1664 -0.6909
10698TIP3    H153585   0.887   6.481   4.920  1.5317 -1.7588  0.0693
10698TIP3    H253586   0.968   6.467   4.793  0.1751  0.4130 -1.0786
10699TIP3   OH253587   5.368   0.094   5.724 -0.0269  0.5197  0.1861
10699TIP3    H153588   5.320   0.143   5.791 -1.0533  1.2354 -1.0488
10699TIP3    H253589   5.436   0.154   5.694  0.4547  0.1857  0.5972
10700TIP3   OH253590   5.725   2.905  12.843 -0.2494  0.2073  0.5354
10700TIP3    H153591   5.718   2.811  12.859  0.6129  0.2104  0.9869
10700TIP3    H253592   5.792   2.913  12.775 -1.2510  0.4200 -0.4226
10701TIP3   OH253593   4.903   5.105   2.744 -0.0672 -0.2031 -0.4523
10701TIP3    H153594   4.973   5.041   2.754  0.9258  0.6290 -1.9034
10701TIP3    H253595   4.823   5.056   2.766  0.8989 -1.2734  0.7908
10702TIP3   OH253596   0.691   4.426  12.842 -0.2135  0.2627 -0.1273
10702TIP3    H153597   0.620   4.463  12.894 -0.9986 -0.8994 -0.3491
10702TIP3    H253598   0.656   4.343  12.810  0.0980  1.1251 -2.8389
10703TIP3   OH253599   0.281   4.460   4.592 -0.4522  0.5679  0.1713
10703TIP3    H153600   0.363   4.467   4.543 -0.4789  2.5356  0.3898
10703TIP3    H253601   0.215   4.440   4.525  0.6569 -4.6173  0.3841
10704TIP3   OH253602   2.595   0.634   0.402 -0.0960 -0.0957 -0.0339
10704TIP3    H153603   2.544   0.713   0.418 -0.7323 -0.5874  0.3896
10704TIP3    H253604   2.638   0.616   0.486  0.0984 -0.1646 -0.1482
10705TIP3   OH253605   5.898   6.165  15.315  0.3053  0.0566  0.1958
10705TIP3    H153606   5.834   6.217  15.267  1.1869  0.0297 -1.0399
10705TIP3    H253607   5.983   6.204  15.293  0.7502 -0.0093  1.6716
10706TIP3   OH253608   0.016   6.429   4.554 -0.3303 -0.0270  0.1704
10706TIP3    H153609   0.110   6.420   4.571 -0.7073 -1.5144  1.5620
10706TIP3    H253610   0.004   6.390   4.467  0.4546  0.8524 -0.3368
10707TIP3   OH253611   3.309   3.723   0.467 -0.3629 -0.8354  0.5313
10707TIP3    H153612   3.329   3.803   0.419 -0.4933 -0.8326  0.4820
10707TIP3    H253613   3.390   3.673   0.465 -0.7988 -1.5038 -0.9785
10708TIP3   OH253614   0.303   6.122  16.602  0.6404 -0.0450 -0.0067
10708TIP3    H153615   0.224   6.127  16.656  1.0218  2.6533  0.4072
10708TIP3    H253616   0.375   6.129  16.665  1.1301  0.4030 -0.6120
10709TIP3   OH253617   2.311   5.651  12.754 -0.0928 -0.1286  0.6290
10709TIP3    H153618   2.333   5.738  12.786  0.8996 -0.4702  0.8979
10709TIP3    H253619   2.310   5.597  12.833 -0.3011 -0.4468  0.4112
10710TIP3   OH253620   5.690   3.349  14.977  0.1925 -0.3337 -0.1539
10710TIP3    H153621   5.600   3.377  14.990 -0.0604  0.0176 -2.4844
10710TIP3    H253622   5.733   3.424  14.937  1.5070 -0.5474  0.8083
10711TIP3   OH253623   3.925   3.454   4.268  0.0279 -0.4369 -0.8783
10711TIP3    H153624   3.976   3.409   4.335 -0.2978  0.5878  0.0689
10711TIP3    H253625   3.975   3.442   4.187  1.6567  0.3673 -0.0046
10712TIP3   OH253626   6.482   4.628  11.774  0.1490  0.4961 -0.1802
10712TIP3    H153627   6.474   4.664  11.685 -0.7480  0.2761 -0.1988
10712TIP3    H253628   6.397   4.587  11.790  1.2661 -1.9955 -0.3394
10713TIP3   OH253629   4.877   3.514   5.580 -0.6506  1.1120 -0.1198
10713TIP3    H153630   4.921   3.429   5.582 -0.2853  1.2897 -0.3968
10713TIP3    H253631   4.871   3.535   5.487 -0.9281  1.2918 -0.0596
10714TIP3   OH253632   4.655   4.942   2.155  0.1662 -0.1368  0.4666
10714TIP3    H153633   4.649   4.991   2.237  1.1058  1.3990 -0.3561
10714TIP3    H253634   4.748   4.920   2.147  0.0221 -0.5751 -0.0185
10715TIP3   OH253635   1.865   4.086  15.305 -0.2905 -0.0165  0.6375
10715TIP3    H153636   1.917   4.006  15.294 -1.5414 -0.4940 -2.3392
10715TIP3    H253637   1.782   4.056  15.343 -0.1008  0.1147  1.1563
10716TIP3   OH253638   5.123   3.116  11.222  0.0249  0.3660  0.1752
10716TIP3    H153639   5.074   3.159  11.292  0.8372  2.8177 -0.7051
10716TIP3    H253640   5.146   3.030  11.258 -1.5628  0.6831  2.0337
10717TIP3   OH253641   4.137   4.549   4.652  0.4661 -0.1968 -0.1502
10717TIP3    H153642   4.112   4.464   4.689  1.8902  0.1889  1.7767
10717TIP3    H253643   4.144   4.533   4.558 -0.0120 -2.0391  0.1118
10718TIP3   OH253644   6.593   0.469   0.658  0.3638 -0.0163  0.2872
10718TIP3    H153645   6.559   0.546   0.705 -0.0898 -0.3890  0.5693
10718TIP3    H253646   6.618   0.503   0.572 -1.0528  0.1906 -0.0491
10719TIP3   OH253647   5.449   0.993   1.680  0.2555 -0.8828 -0.4089
10719TIP3    H153648   5.364   0.984   1.636  0.5557  0.6653 -1.3626
10719TIP3    H253649   5.449   0.925   1.747 -0.7770 -2.3948 -1.9207
10720TIP3   OH253650   5.871   2.397   5.264 -0.0391  0.1942  0.0196
10720TIP3    H153651   5.815   2.474   5.256 -0.9170 -0.3886  0.6050
10720TIP3    H253652   5.826   2.329   5.216  0.8762  0.1028 -0.7323
10721TIP3   OH253653   5.916   1.029  12.417  0.2521 -0.0902 -0.1207
10721TIP3    H153654   5.978   1.086  12.373  1.4078 -1.1082  0.1763
10721TIP3    H253655   5.830   1.056  12.383  0.8524  1.2558 -0.5881
10722TIP3   OH253656   5.401   1.188  12.141  0.2235 -0.0419  0.3072
10722TIP3    H153657   5.459   1.218  12.211  0.6776 -0.2143  0.0091
10722TIP3    H253658   5.331   1.141  12.187  0.1835  0.3829  0.6851
10723TIP3   OH253659   1.343   3.220   0.959 -0.1323  0.3046  0.7719
10723TIP3    H153660   1.378   3.248   1.043 -2.4559  1.2275  1.4915
10723TIP3    H253661   1.300   3.298   0.924 -0.4877 -0.4694 -0.5547
10724TIP3   OH253662   6.496   0.306   4.963 -0.0204  0.2488 -0.2554
10724TIP3    H153663   6.530   0.338   5.046  1.2145 -0.8046 -0.3279
10724TIP3    H253664   6.522   0.214   4.960  0.9160  0.5379 -2.2869
10725TIP3   OH253665   6.459   2.266   3.827 -0.2361  0.3253 -0.5754
10725TIP3    H153666   6.461   2.292   3.734  0.2928 -0.5144 -0.8033
10725TIP3    H253667   6.412   2.183   3.827 -0.3617  0.3961 -0.0687
10726TIP3   OH253668   5.087   3.905   1.644 -0.5211  0.0748 -0.1452
10726TIP3    H153669   5.070   3.993   1.608  1.5376  0.9104  0.8480
10726TIP3    H253670   5.001   3.876   1.677 -0.8967  2.4504  1.0925
10727TIP3   OH253671   5.962   5.063   0.969 -0.3227  0.8145  0.2220
10727TIP3    H153672   6.030   5.121   1.003  0.1696 -0.2408  1.0457
10727TIP3    H253673   5.953   4.994   1.035 -2.9425  1.5027  0.6300
10728TIP3   OH253674   0.136   5.532  11.773 -0.6683 -0.0417 -0.7590
10728TIP3    H153675   0.057   5.586  11.768 -0.7766 -0.2955 -2.0772
10728TIP3    H253676   0.203   5.585  11.729 -0.1106  0.1608  0.3261
10729TIP3   OH253677   2.042   3.848  11.997  0.7299 -0.4949 -0.4366
10729TIP3    H153678   1.981   3.777  12.013  0.0227 -0.1306 -1.4433
10729TIP3    H253679   2.081   3.867  12.082  2.0868 -3.1270 -0.4347
10730TIP3   OH253680   2.253   6.305   1.687 -0.2208  0.1598 -0.1090
10730TIP3    H153681   2.285   6.380   1.737  0.3612 -0.1349 -0.0449
10730TIP3    H253682   2.307   6.232   1.715  0.5600  0.1243 -1.6569
10731TIP3   OH253683   3.220   2.696  15.903 -0.3220  0.8901  0.1348
10731TIP3    H153684   3.175   2.759  15.959 -0.2473  0.7083  0.3971
10731TIP3    H253685   3.305   2.682  15.946 -0.6256  0.0482  0.4619
10732TIP3   OH253686   6.198   5.681  14.524  0.0862  0.1349 -0.8357
10732TIP3    H153687   6.162   5.742  14.587  0.4080  0.7880 -1.2742
10732TIP3    H253688   6.126   5.663  14.464  0.0418  0.2231 -0.8097
10733TIP3   OH253689   4.733   0.430   0.678 -0.0707  0.5307  0.4799
10733TIP3    H153690   4.815   0.458   0.719  0.8953 -0.5612 -0.6427
10733TIP3    H253691   4.685   0.386   0.747  1.0672 -0.3470  0.7273
10734TIP3   OH253692   5.644   2.043   1.219  0.2784 -0.0486 -0.2561
10734TIP3    H153693   5.618   2.066   1.309  2.0079  2.1708 -0.2575
10734TIP3    H253694   5.626   1.950   1.212 -1.6434  0.1166  1.7876
10735TIP3   OH253695   5.335   3.660  10.829 -0.1916 -0.3012  0.2267
10735TIP3    H153696   5.352   3.740  10.781 -1.5544  0.0069  0.2286
10735TIP3    H253697   5.362   3.590  10.769 -2.1876  0.0642 -1.1670
10736TIP3   OH253698   3.977   4.550   5.708 -0.1406 -0.1231  0.2589
10736TIP3    H153699   3.933   4.612   5.766 -1.6189 -1.3713  0.5312
10736TIP3    H253700   3.948   4.575   5.621 -1.1966 -0.7766  0.4163
10737TIP3   OH253701   4.800   4.330   4.383 -0.1236 -0.3694 -0.4747
10737TIP3    H153702   4.891   4.332   4.351 -0.1533  2.1171 -0.4272
10737TIP3    H253703   4.786   4.238   4.406  3.0144 -0.4737  1.3480
10738TIP3   OH253704   2.343   6.756   5.766  0.1411  0.1549 -0.1361
10738TIP3    H153705   2.309   6.672   5.795  1.2981 -1.0436 -2.1617
10738TIP3    H253706   2.368   6.801   5.847 -1.4363 -1.0182  1.0198
10739TIP3   OH253707   2.341   2.565   2.078 -0.0082 -0.0267  0.5498
10739TIP3    H153708   2.412   2.511   2.112  0.0547  0.9027  1.9218
10739TIP3    H253709   2.338   2.640   2.136 -2.2412 -0.1384  0.6245
10740TIP3   OH253710   3.817   1.104   6.266 -0.0807  0.2094 -0.3840
10740TIP3    H153711   3.791   1.083   6.356 -1.1108  1.1877 -0.4420
10740TIP3    H253712   3.902   1.148   6.275 -0.1929  0.3274  0.1101
10741TIP3   OH253713   3.146   4.114   3.529 -0.2653 -0.5814 -0.3496
10741TIP3    H153714   3.204   4.048   3.491  0.3856 -0.0967 -0.2051
10741TIP3    H253715   3.172   4.196   3.488 -1.0050 -0.3908 -0.4539
10742TIP3   OH253716   1.808   0.800  10.783 -0.1439  0.0957 -0.4880
10742TIP3    H153717   1.802   0.865  10.713 -1.6396 -0.1127 -0.5544
10742TIP3    H253718   1.781   0.847  10.862  1.4751  0.3115 -0.0482
10743TIP3   OH253719   3.066   0.734   4.005 -0.5564 -0.5470 -0.1690
10743TIP3    H153720   3.067   0.713   3.911  0.0619  0.3465 -0.3560
10743TIP3    H253721   3.060   0.648   4.047 -1.1441 -0.9461 -1.0252
10744TIP3   OH253722   2.186   4.593   3.656 -0.5407 -0.3752  0.4329
10744TIP3    H153723   2.278   4.568   3.658 -0.6842 -0.9686 -0.3367
10744TIP3    H253724   2.185   4.678   3.612 -0.3379 -0.2519  0.6640
10745TIP3   OH253725   1.719   0.612   1.661  0.1278 -0.2737 -0.3155
10745TIP3    H153726   1.671   0.690   1.633  1.2800  0.2263 -0.9015
10745TIP3    H253727   1.753   0.634   1.748  0.8100  0.0388 -0.6586
10746TIP3   OH253728   2.662   3.128  12.381  0.1128  0.0213  0.6385
10746TIP3    H153729   2.576   3.171  12.379  1.3233  2.6121  1.6135
10746TIP3    H253730   2.681   3.108  12.289 -1.5394 -0.6537  0.4229
10747TIP3   OH253731   6.450   0.738  12.151 -0.0549 -0.5606  0.0561
10747TIP3    H153732   6.399   0.784  12.084 -3.6864 -2.3297  1.4560
10747TIP3    H253733   6.481   0.659  12.106 -0.3647 -0.5124 -0.2544
10748TIP3   OH253734   5.997   5.097  10.584 -0.4668 -0.4644  0.4660
10748TIP3    H153735   6.084   5.091  10.544 -0.9472 -2.1839 -0.3538
10748TIP3    H253736   5.957   5.174  10.543  0.1445 -0.4901 -0.1843
10749TIP3   OH253737   1.796   3.532  17.258 -0.4064 -0.3445 -0.3835
10749TIP3    H153738   1.782   3.626  17.243 -0.0905 -0.0458  1.1414
10749TIP3    H253739   1.845   3.503  17.181  0.3031  0.9357 -0.4273
10750TIP3   OH253740   4.552   6.044   5.454  0.1731  0.6594 -0.0060
10750TIP3    H153741   4.645   6.058   5.468  0.2185 -1.1164  1.6628
10750TIP3    H253742   4.513   6.131   5.459  1.6022  1.2786  0.3928
10751TIP3   OH253743   5.427   4.946  14.289 -0.5310  0.0335  0.3788
10751TIP3    H153744   5.351   5.002  14.304 -0.5357  0.0162  0.4168
10751TIP3    H253745   5.496   4.985  14.343 -1.1076 -1.2216  2.0467
10752TIP3   OH253746   3.334   1.090  12.874 -0.1814 -0.2012 -0.1662
10752TIP3    H153747   3.290   1.102  12.959  2.2993  1.1229  1.0078
10752TIP3    H253748   3.332   1.177  12.834 -0.8277 -0.6960 -1.2369
10753TIP3   OH253749   6.268   4.060   0.356  0.5337 -0.2071  0.6296
10753TIP3    H153750   6.210   4.039   0.429 -0.3526  1.3963  0.4234
10753TIP3    H253751   6.216   4.041   0.278  0.1924  1.4059  0.4422
10754TIP3   OH253752   5.064   3.608   5.947  0.5765 -0.4022  0.3378
10754TIP3    H153753   5.151   3.640   5.924 -0.2603  0.7377 -1.3301
10754TIP3    H253754   5.069   3.589   6.041  2.2703  0.7546  0.4999
10755TIP3   OH253755   3.291   3.742  11.407 -0.4567 -0.5566  0.0154
10755TIP3    H153756   3.205   3.760  11.444 -0.5756 -2.0186  0.4805
10755TIP3    H253757   3.294   3.793  11.327 -1.6835 -0.3321  0.1029
10756TIP3   OH253758   5.407   1.116  16.357  0.3013  0.1498 -0.0752
10756TIP3    H153759   5.475   1.128  16.291  1.0523  2.6919  1.1225
10756TIP3    H253760   5.438   1.042  16.410  1.6655  0.6730 -0.1284
10757TIP3   OH253761   4.336   5.843   6.484 -1.2137 -0.1455 -0.2734
10757TIP3    H153762   4.386   5.892   6.419  0.1440  0.3073  1.0713
10757TIP3    H253763   4.398   5.829   6.556 -1.7176 -3.3774 -0.3928
10758TIP3   OH253764   0.736   3.012   0.714 -0.0526  0.5899  0.6416
10758TIP3    H153765   0.675   3.028   0.643 -0.6004 -1.3964  0.6350
10758TIP3    H253766   0.772   2.925   0.696  0.1631  0.2680  2.5177
10759TIP3   OH253767   1.892   1.321  17.095 -0.1125  0.6500  0.0830
10759TIP3    H153768   1.939   1.339  17.176 -1.8875 -0.4131  1.3880
10759TIP3    H253769   1.868   1.407  17.061 -0.4289  1.0698  1.3500
10760TIP3   OH253770   3.364   6.045  11.335  0.1799 -0.4289  0.1041
10760TIP3    H153771   3.382   5.997  11.254 -0.3254 -0.4258 -0.0081
10760TIP3    H253772   3.417   6.000  11.401 -0.6565 -1.4355  0.0955
10761TIP3   OH253773   3.361   2.069   5.600 -0.7110  0.1566  0.4811
10761TIP3    H153774   3.449   2.052   5.631  0.1119 -0.2060 -1.9538
10761TIP3    H253775   3.333   2.147   5.648  1.2816  0.8085  0.6025
10762TIP3   OH253776   2.778   3.243   6.816 -0.6888 -0.2023  0.0032
10762TIP3    H153777   2.760   3.158   6.855 -1.4593  0.3500  0.8891
10762TIP3    H253778   2.866   3.266   6.846 -0.5485 -0.6154 -0.1006
10763TIP3   OH253779   3.903   5.767   5.855  0.1940  0.1899  0.0238
10763TIP3    H153780   3.816   5.730   5.847  0.4996 -0.8304  1.2143
10763TIP3    H253781   3.895   5.855   5.818 -1.0125 -0.3490 -1.0377
10764TIP3   OH253782   0.472   4.739   2.980  0.3672 -0.0464  0.6301
10764TIP3    H153783   0.457   4.649   2.953 -0.2591  0.1288  0.3992
10764TIP3    H253784   0.540   4.771   2.921 -2.2502  0.9181 -1.9818
10765TIP3   OH253785   2.674   3.297  15.480  0.0171  0.0548 -0.3706
10765TIP3    H153786   2.659   3.386  15.449  0.8528 -0.0607 -1.1133
10765TIP3    H253787   2.666   3.303  15.575  0.9407  1.0835 -0.3541
10766TIP3   OH253788   4.674   2.395  12.741  0.5125 -0.4171  0.2338
10766TIP3    H153789   4.635   2.400  12.653  1.8514 -2.5880 -0.5232
10766TIP3    H253790   4.710   2.482  12.756 -3.4497  1.2913  0.4436
10767TIP3   OH253791   6.453   5.875   5.086  0.2473  0.1609  0.0725
10767TIP3    H153792   6.463   5.851   5.178 -1.6248  0.5230  0.3780
10767TIP3    H253793   6.470   5.969   5.084  1.0195  0.0275 -0.0899
10768TIP3   OH253794   1.091   3.996  13.366  0.3249  0.0436  0.4565
10768TIP3    H153795   1.001   3.964  13.356  0.1606  1.1054 -1.7146
10768TIP3    H253796   1.088   4.053  13.442 -0.6782 -0.4518  0.7967
10769TIP3   OH253797   3.922   4.955  16.058 -0.2526 -0.0224 -0.1479
10769TIP3    H153798   3.929   4.860  16.047 -0.5355 -0.1267  0.5764
10769TIP3    H253799   3.921   4.989  15.968  1.3737 -0.5856 -0.3958
10770TIP3   OH253800   6.609   1.103  10.988  0.2372  0.5791  0.4302
10770TIP3    H153801   6.525   1.063  11.009  0.1471  0.5023 -0.0661
10770TIP3    H253802   6.624   1.081  10.896 -0.1587  2.2835 -0.0750
10771TIP3   OH253803   6.566   1.729   3.606  0.7968  0.0163 -0.4887
10771TIP3    H153804   6.503   1.696   3.542 -0.5397 -0.0009  0.7916
10771TIP3    H253805   6.571   1.823   3.588  1.7154 -0.2645 -1.6986
10772TIP3   OH253806   5.342   1.184  13.555  0.3243 -0.4666  0.3839
10772TIP3    H153807   5.250   1.168  13.534 -0.6853  2.2088  2.4171
10772TIP3    H253808   5.353   1.145  13.642  0.6342  0.7435  0.8916
10773TIP3   OH253809   2.685   6.682  14.994 -0.2630 -0.2160  0.1907
10773TIP3    H153810   2.735   6.673  14.914 -0.1688  1.1097  0.0840
10773TIP3    H253811   2.666   6.776  15.000  0.1699 -0.2148  1.9676
10774TIP3   OH253812   6.720   5.501  12.166  0.0724  0.4070 -0.2354
10774TIP3    H153813   6.727   5.576  12.224 -0.0813 -1.5417  2.4180
10774TIP3    H253814   6.629   5.472  12.173 -0.2758  0.8502 -2.4293
10775TIP3   OH253815   6.278   6.635   5.080 -0.2141  0.8306 -0.0062
10775TIP3    H153816   6.192   6.665   5.106  0.4783  3.1655 -0.3332
10775TIP3    H253817   6.322   6.612   5.162  0.2223  3.4185  0.5190
10776TIP3   OH253818   2.469   5.647  11.397 -0.0531 -0.0500  0.3813
10776TIP3    H153819   2.405   5.612  11.335  1.9647 -0.9213 -1.2555
10776TIP3    H253820   2.497   5.729  11.358 -0.5658  0.6095  1.3829
10777TIP3   OH253821   4.950   5.772   5.407  0.3125  0.1249  0.7665
10777TIP3    H153822   4.901   5.854   5.417  0.5237  0.3354  0.0969
10777TIP3    H253823   4.906   5.710   5.466 -1.5359 -0.0389 -0.7651
10778TIP3   OH253824   2.875   0.499   4.409 -0.5817 -0.0863  0.1233
10778TIP3    H153825   2.907   0.473   4.323 -1.5462  0.0149 -0.2790
10778TIP3    H253826   2.946   0.551   4.447  0.0335 -0.5270 -0.4186
10779TIP3   OH253827   2.533   6.811  11.832 -0.8248  0.2006 -0.2474
10779TIP3    H153828   2.491   6.780  11.913 -0.1597  1.2680  0.5214
10779TIP3    H253829   2.579   6.891  11.858  0.5556 -0.2114 -1.3867
10780TIP3   OH253830   5.359   1.429  14.081  0.3181 -0.2447  0.1563
10780TIP3    H153831   5.303   1.504  14.101  0.6192 -0.3029  1.2687
10780TIP3    H253832   5.395   1.448  13.994  0.2068  0.7829  0.3280
10781TIP3   OH253833   3.093   0.649  13.189  0.7508  0.1784  0.0012
10781TIP3    H153834   3.104   0.563  13.228 -2.2727  0.5143  1.8066
10781TIP3    H253835   3.170   0.698  13.217  1.7872 -1.5035  0.1579
10782TIP3   OH253836   4.225   6.109   1.464  0.2324 -0.4378  0.5589
10782TIP3    H153837   4.274   6.157   1.530  1.2063 -1.2264  0.4205
10782TIP3    H253838   4.222   6.019   1.497 -2.7975 -0.0430  1.5233
10783TIP3   OH253839   6.450   4.900  14.669  0.1698 -0.6311  0.4598
10783TIP3    H153840   6.494   4.815  14.663  3.7916  1.1550  0.5957
10783TIP3    H253841   6.449   4.932  14.579  3.5209  1.3738  1.0454
10784TIP3   OH253842   6.785   3.009  11.612 -0.1049 -0.7218  0.0918
10784TIP3    H153843   6.713   3.036  11.668 -1.0070 -2.2055 -0.3400
10784TIP3    H253844   6.777   2.914  11.606 -0.5856 -0.5336 -3.2525
10785TIP3   OH253845   5.471   1.291   3.983  0.2347 -0.1510 -0.3034
10785TIP3    H153846   5.440   1.238   3.910  1.8741  0.8902 -1.7742
10785TIP3    H253847   5.449   1.239   4.061 -0.3519 -1.8603 -1.5841
10786TIP3   OH253848   0.464   3.166   2.582  0.6930 -0.2089  0.3459
10786TIP3    H153849   0.384   3.140   2.627  1.4574 -0.2546  1.6965
10786TIP3    H253850   0.438   3.242   2.529 -0.5032 -0.9626 -0.1576
10787TIP3   OH253851   4.323   1.715   2.521 -0.3327 -0.0662  0.5708
10787TIP3    H153852   4.415   1.704   2.546  0.1827  1.5575 -0.5428
10787TIP3    H253853   4.284   1.629   2.536  1.3581 -0.7651  1.0938
10788TIP3   OH253854   3.312   3.781  15.996  0.3761  0.1136  0.1340
10788TIP3    H153855   3.363   3.712  16.038 -0.2383  0.4153  1.4175
10788TIP3    H253856   3.375   3.829  15.943  0.8799 -1.2036 -0.4824
10789TIP3   OH253857   2.358   1.358   4.347  0.0245  0.4752 -0.0280
10789TIP3    H153858   2.337   1.408   4.268  0.8243  1.5427  0.4173
10789TIP3    H253859   2.389   1.424   4.409 -0.7500 -0.3341  1.2313
10790TIP3   OH253860   5.045   1.895   1.985 -0.1983 -0.0000  0.1004
10790TIP3    H153861   5.138   1.885   1.962 -0.3097 -2.5182  0.5166
10790TIP3    H253862   5.021   1.981   1.953  2.3295  0.7345  0.0790
10791TIP3   OH253863   1.222   5.290  12.065  0.1018 -0.3101 -0.2869
10791TIP3    H153864   1.260   5.373  12.036  1.2934 -0.6495  0.2776
10791TIP3    H253865   1.264   5.272  12.149 -2.4676  0.0754  1.1156
10792TIP3   OH253866   0.473   0.869   4.081 -0.3881 -0.4447 -0.3339
10792TIP3    H153867   0.476   0.945   4.023 -0.4183 -0.0478  0.1854
10792TIP3    H253868   0.418   0.896   4.154 -0.8165 -1.1353 -0.3894
10793TIP3   OH253869   6.070   5.448   6.034 -0.4551 -0.5096 -0.6908
10793TIP3    H153870   6.154   5.462   5.990  0.0487  1.5522  0.8600
10793TIP3    H253871   6.082   5.368   6.084  0.8657  0.1664  0.1145
10794TIP3   OH253872   2.039   0.730  16.474 -0.0684 -0.6727  0.5294
10794TIP3    H153873   2.055   0.819  16.445 -0.6744 -0.2565  1.4582
10794TIP3    H253874   2.120   0.683  16.454  0.0979 -0.0194 -0.3440
10795TIP3   OH253875   0.816   4.855   0.694 -1.0302  0.3349  0.0825
10795TIP3    H153876   0.822   4.770   0.738 -0.1096  0.4930  0.2749
10795TIP3    H253877   0.724   4.879   0.701 -1.3212 -0.7110 -0.0877
10796TIP3   OH253878   3.040   4.715   3.305  0.5204  0.3681  0.1888
10796TIP3    H153879   3.044   4.744   3.396 -0.1576  2.1862 -0.3394
10796TIP3    H253880   3.131   4.706   3.278  0.7228 -0.4196  1.1108
10797TIP3   OH253881   3.815   5.724  13.709  0.4370  0.3333  0.0517
10797TIP3    H153882   3.910   5.712  13.705  0.3869  0.2861 -1.5558
10797TIP3    H253883   3.803   5.819  13.702  0.3798  0.3423  0.3069
10798TIP3   OH253884   0.833   4.751   6.074  0.0472 -0.1036 -0.0353
10798TIP3    H153885   0.834   4.843   6.100 -2.3726  0.2203 -0.9596
10798TIP3    H253886   0.921   4.735   6.039  0.8473  1.5296  1.1726
10799TIP3   OH253887   3.555   2.292   3.329  0.7296  0.0272 -0.1805
10799TIP3    H153888   3.481   2.337   3.370  0.8942 -0.1690  0.3387
10799TIP3    H253889   3.515   2.220   3.280  0.5299  0.2747 -0.3812
10800TIP3   OH253890   3.614   1.968   5.626 -0.2780 -0.1639 -0.0398
10800TIP3    H153891   3.628   1.952   5.719 -0.3437 -0.4963 -0.0851
10800TIP3    H253892   3.702   1.985   5.591 -0.2487 -0.0815  0.0750
10801TIP3   OH253893   2.410   2.941  11.946  0.2204  0.3839  0.4389
10801TIP3    H153894   2.427   2.869  11.885 -0.8673  0.8241 -0.3999
10801TIP3    H253895   2.497   2.969  11.974  0.6519 -2.1687  1.8916
10802TIP3   OH253896   3.497   5.533   5.183  0.9700 -0.4329  0.0928
10802TIP3    H153897   3.443   5.458   5.158  1.6334 -0.7849 -0.2913
10802TIP3    H253898   3.500   5.529   5.279  1.2062 -1.0481  0.0633
10803TIP3   OH253899   1.646   5.088  14.573  0.3435 -0.3893 -0.0030
10803TIP3    H153900   1.707   5.031  14.619  1.0662  0.8041  0.5534
10803TIP3    H253901   1.702   5.152  14.529 -0.4400 -0.2154 -0.7647
10804TIP3   OH253902   0.505   3.470  14.673 -0.1339  0.1532 -0.4851
10804TIP3    H153903   0.506   3.429  14.760  0.1998  2.4688  0.6646
10804TIP3    H253904   0.587   3.521  14.670  0.2790 -0.5999 -2.5217
10805TIP3   OH253905   3.035   6.402  16.495 -0.5964  0.0071 -0.4233
10805TIP3    H153906   2.989   6.388  16.412 -1.5103  0.1796  0.0388
10805TIP3    H253907   3.075   6.489  16.486 -0.3224 -0.1678 -0.8558
10806TIP3   OH253908   0.805   4.775  14.845 -0.2166 -0.1515 -0.1373
10806TIP3    H153909   0.892   4.767  14.884  0.5499 -0.0897 -1.7837
10806TIP3    H253910   0.795   4.696  14.792 -1.5316 -0.5841  0.7361
10807TIP3   OH253911   3.101   1.058   0.354 -0.8034  0.3787  0.2832
10807TIP3    H153912   3.089   1.103   0.438 -0.3689  0.3899  0.3377
10807TIP3    H253913   3.102   0.965   0.376 -1.8361  0.3294  0.1550
10808TIP3   OH253914   3.474   0.799  13.859 -0.2107  0.1942 -0.0857
10808TIP3    H153915   3.548   0.856  13.838 -0.0417 -0.4855 -1.4424
10808TIP3    H253916   3.415   0.808  13.783 -0.8160 -0.4038  0.3094
10809TIP3   OH253917   6.097   5.477   5.243 -0.2593 -0.2081  0.1812
10809TIP3    H153918   6.016   5.501   5.198  0.4545  0.7835 -0.6184
10809TIP3    H253919   6.163   5.476   5.174  0.4464 -0.8070  0.8555
10810TIP3   OH253920   0.217   1.757   5.969  0.0710 -0.2122  0.0199
10810TIP3    H153921   0.309   1.732   5.978  0.1844  0.1555 -0.0908
10810TIP3    H253922   0.208   1.783   5.878 -0.3493 -1.0514 -0.1826
10811TIP3   OH253923   0.993   2.419   5.234  0.2716 -0.3671 -0.5906
10811TIP3    H153924   1.000   2.353   5.303  1.0702  1.0763  0.7571
10811TIP3    H253925   1.037   2.381   5.159  1.5888 -0.9729  0.4812
10812TIP3   OH253926   0.354   6.201  12.093  0.2431  0.6467  0.1952
10812TIP3    H153927   0.439   6.183  12.134 -0.0656  0.7811  0.8945
10812TIP3    H253928   0.300   6.126  12.118  0.7151 -0.4208 -1.8525
10813TIP3   OH253929   3.331   0.750  14.845 -0.6083  0.2092 -0.5651
10813TIP3    H153930   3.402   0.731  14.906 -2.0105 -1.4278  0.5888
10813TIP3    H253931   3.350   0.698  14.767 -0.3147  0.1187 -0.4295
10814TIP3   OH253932   3.853   1.269   5.408  0.1218  0.2846  0.3523
10814TIP3    H153933   3.870   1.360   5.383 -0.5636  0.2571 -0.2124
10814TIP3    H253934   3.829   1.273   5.500  0.5565  0.6262  0.4497
10815TIP3   OH253935   6.634   6.653   4.166 -0.5251 -0.3558 -0.0203
10815TIP3    H153936   6.587   6.596   4.227 -0.9648  0.7444  0.6809
10815TIP3    H253937   6.575   6.662   4.092 -0.1949 -1.3000 -0.4096
10816TIP3   OH253938   5.625   3.497  15.360  0.2533 -0.3380  0.1267
10816TIP3    H153939   5.599   3.578  15.405  0.3860  0.1438 -0.6537
10816TIP3    H253940   5.581   3.501  15.275  1.9363 -0.0460 -0.7664
10817TIP3   OH253941   0.063   4.311   2.613 -0.1338  0.1807  0.5877
10817TIP3    H153942   0.002   4.296   2.686 -0.4199 -0.3394  0.2423
10817TIP3    H253943   0.121   4.380   2.645 -1.1060  0.9099  0.7931
10818TIP3   OH253944   1.103   3.882  13.023 -0.2426 -0.1516  0.3298
10818TIP3    H153945   1.173   3.847  12.968 -0.1400 -0.4409  0.6479
10818TIP3    H253946   1.044   3.808  13.036  0.6440 -0.5647  2.0797
10819TIP3   OH253947   2.165   0.109   6.008  0.6838  0.1873  0.4134
10819TIP3    H153948   2.076   0.074   6.013  1.1585 -1.3922 -1.4799
10819TIP3    H253949   2.155   0.194   5.966  0.0732 -0.0953 -0.0201
10820TIP3   OH253950   3.376   3.332  12.371  0.1221 -0.0178  0.0076
10820TIP3    H153951   3.450   3.382  12.336 -0.3554  0.0731 -0.8892
10820TIP3    H253952   3.311   3.333  12.301 -1.6809  1.8884  1.6382
10821TIP3   OH253953   6.315   1.514   5.623  0.5627 -0.1908  0.5239
10821TIP3    H153954   6.307   1.419   5.621  3.2303 -0.4751  2.1047
10821TIP3    H253955   6.368   1.535   5.546  0.8246 -0.0519  0.7464
10822TIP3   OH253956   1.241   1.434   1.351 -0.4289  0.0394  0.8995
10822TIP3    H153957   1.287   1.409   1.271 -0.3940  1.8582  0.3242
10822TIP3    H253958   1.156   1.466   1.320 -0.7496 -0.0766  1.6681
10823TIP3   OH253959   5.398   5.081  11.571 -0.2496 -0.3264  0.3969
10823TIP3    H153960   5.324   5.124  11.527  0.3344 -0.1464 -0.4152
10823TIP3    H253961   5.402   5.124  11.657 -1.2467 -0.5176  0.5501
10824TIP3   OH253962   2.562   6.063  12.633 -0.2151 -0.7718  0.0837
10824TIP3    H153963   2.627   6.055  12.703  0.7695  1.2513 -0.5536
10824TIP3    H253964   2.504   5.988  12.645  1.6572 -2.0810  1.2810
10825TIP3   OH253965   6.574   1.139   3.081 -0.3628 -0.2427  0.3398
10825TIP3    H153966   6.499   1.195   3.062 -0.0262  0.7561  1.8381
10825TIP3    H253967   6.624   1.137   3.000  0.4089  2.8808  0.6695
10826TIP3   OH253968   6.523   6.127   5.136 -0.8620 -0.5864 -0.5267
10826TIP3    H153969   6.448   6.167   5.181 -1.4521 -1.3453 -0.8244
10826TIP3    H253970   6.522   6.166   5.049 -1.7026 -1.5719 -0.9613
10827TIP3   OH253971   5.417   5.336  15.665  0.0205 -0.6589  0.3314
10827TIP3    H153972   5.465   5.347  15.747  0.3038  0.6314  0.0063
10827TIP3    H253973   5.326   5.328  15.691  0.1322 -0.4337  0.7861
10828TIP3   OH253974   2.094   0.744   5.738 -0.1164 -0.0796 -0.3562
10828TIP3    H153975   2.046   0.700   5.668  0.7866  1.1799 -1.8001
10828TIP3    H253976   2.052   0.714   5.819  0.7550 -3.9956 -1.2306
10829TIP3   OH253977   1.072   5.947  12.369  0.0903 -0.5092 -0.5083
10829TIP3    H153978   1.060   5.854  12.353 -1.6667 -0.1105 -1.7231
10829TIP3    H253979   1.095   5.984  12.283 -0.9672  0.4159 -0.4087
10830TIP3   OH253980   2.442   6.632   4.766 -0.5524 -0.1767  0.2313
10830TIP3    H153981   2.464   6.554   4.816 -0.8046 -0.6526 -0.3820
10830TIP3    H253982   2.370   6.603   4.709 -0.8861  0.5978  0.2560
10831TIP3   OH253983   2.438   0.496  10.579 -0.0020 -0.0567  0.2287
10831TIP3    H153984   2.493   0.428  10.540  0.6575  0.3875  0.3954
10831TIP3    H253985   2.498   0.567  10.601 -0.7511  0.7636 -0.3311
10832TIP3   OH253986   1.540   5.799  15.743 -0.2486  0.4036  0.1090
10832TIP3    H153987   1.485   5.750  15.804  0.0195 -0.8695 -0.6440
10832TIP3    H253988   1.484   5.812  15.666 -0.1973  0.9528  0.1664
10833TIP3   OH253989   2.295   5.265   1.661  0.1993 -0.1411  0.6644
10833TIP3    H153990   2.262   5.182   1.627  1.4749 -1.2203  2.0176
10833TIP3    H253991   2.231   5.330   1.631 -2.8105 -2.0805  2.6210
10834TIP3   OH253992   4.971   6.505   0.694 -0.2902 -0.4426  0.3088
10834TIP3    H153993   5.059   6.468   0.692  0.6178  1.5055  1.8847
10834TIP3    H253994   4.937   6.484   0.781 -0.3039  1.1411  0.7081
10835TIP3   OH253995   2.428   0.582   3.419  0.4847 -0.3879  0.3977
10835TIP3    H153996   2.485   0.546   3.487 -1.2422  0.0784  2.1387
10835TIP3    H253997   2.358   0.627   3.468 -0.8379 -0.1316 -1.6911
10836TIP3   OH253998   6.004   1.953  13.384 -0.4801  0.1736  0.3097
10836TIP3    H153999   5.941   1.894  13.341 -0.1644 -0.5356  0.8166
10836TIP3    H254000   5.970   2.041  13.366 -0.9608 -0.1571 -0.4461
10837TIP3   OH254001   0.826   1.635   1.692 -0.9576 -0.4700  0.0601
10837TIP3    H154002   0.750   1.693   1.693 -0.5209  0.0768  1.4976
10837TIP3    H254003   0.874   1.659   1.613 -0.7588  1.1643  0.6599
10838TIP3   OH254004   1.919   4.734  16.758  0.2367  0.4213  0.0966
10838TIP3    H154005   1.971   4.801  16.715  2.7335  0.1792  2.5513
10838TIP3    H254006   1.849   4.782  16.803 -0.6986  0.9153 -1.8605
10839TIP3   OH254007   6.224   5.058   1.256 -0.2589  0.1330 -0.2471
10839TIP3    H154008   6.141   5.088   1.293  0.1880  0.0284  0.8288
10839TIP3    H254009   6.277   5.034   1.331  0.6760 -0.0061 -0.9479
10840TIP3   OH254010   4.244   2.685  13.874  0.5708  0.2823 -0.7562
10840TIP3    H154011   4.267   2.630  13.949  0.1227  1.6170  0.3652
10840TIP3    H254012   4.149   2.674  13.864  0.8253 -0.9782 -2.0160
10841TIP3   OH254013   4.556   3.951  17.100 -0.4149 -0.3047 -0.7899
10841TIP3    H154014   4.547   4.009  17.175  1.2599  0.6288 -1.3005
10841TIP3    H254015   4.467   3.943  17.066 -0.7243  1.6943 -0.5164
10842TIP3   OH254016   5.196   0.772   0.787  0.1312 -0.3340 -0.0706
10842TIP3    H154017   5.235   0.763   0.701 -1.8947  0.1524 -1.0690
10842TIP3    H254018   5.238   0.849   0.825 -0.9167  1.0994 -1.7325
10843TIP3   OH254019   0.765   2.879  14.446 -0.7271  0.2161 -0.2287
10843TIP3    H154020   0.694   2.902  14.387 -1.5522  1.3756  1.1688
10843TIP3    H254021   0.728   2.891  14.534  1.0372  0.3952  0.5196
10844TIP3   OH254022   1.332   0.717  14.128 -0.4616  0.2938 -0.0802
10844TIP3    H154023   1.400   0.784  14.138 -1.2723  1.1116 -0.0106
10844TIP3    H254024   1.254   0.766  14.103 -0.4374 -0.8965 -2.6000
10845TIP3   OH254025   6.064   6.010   1.787  0.3109 -0.0437 -1.1408
10845TIP3    H154026   6.046   6.027   1.880 -0.7872 -0.2675 -1.3072
10845TIP3    H254027   6.058   6.096   1.746  1.9627  0.2370 -0.8269
10846TIP3   OH254028   0.609   0.508  15.518 -0.0462 -0.1797  0.1884
10846TIP3    H154029   0.572   0.450  15.584  0.7568 -0.2903  0.5498
10846TIP3    H254030   0.648   0.580  15.569 -1.4389  0.9274 -0.2695
10847TIP3   OH254031   0.212   1.334   2.606  0.5251  0.1659 -0.3124
10847TIP3    H154032   0.233   1.371   2.520 -0.4317 -0.6410 -0.9077
10847TIP3    H254033   0.286   1.276   2.626  0.6341  0.1666 -0.7070
10848TIP3   OH254034   3.343   3.959  14.083 -0.5670 -0.2418 -0.2575
10848TIP3    H154035   3.251   3.938  14.100 -0.1946 -1.5162  0.2057
10848TIP3    H254036   3.353   4.047  14.118 -1.8063  0.2303 -1.0279
10849TIP3   OH254037   2.821   6.703   1.481  0.4933 -0.3181  0.0380
10849TIP3    H154038   2.788   6.617   1.455 -2.3290  0.9666 -0.8597
10849TIP3    H254039   2.815   6.703   1.577  0.7166 -1.1991  0.0499
10850TIP3   OH254040   1.493   3.524   4.535  0.7206  0.2514  0.0802
10850TIP3    H154041   1.409   3.554   4.568  1.3218 -0.5292  2.4701
10850TIP3    H254042   1.553   3.534   4.610  2.5258 -0.1132 -1.2726
10851TIP3   OH254043   5.854   3.578  14.807 -0.1987 -0.1637  0.3908
10851TIP3    H154044   5.904   3.575  14.888 -0.8928  3.2898  1.0210
10851TIP3    H254045   5.919   3.593  14.738 -0.1735  3.7196  1.1397
10852TIP3   OH254046   4.602   0.025  13.724 -1.0726 -0.3597 -0.2307
10852TIP3    H154047   4.583  -0.061  13.760 -0.3413 -0.5518 -0.2934
10852TIP3    H254048   4.518   0.070  13.724 -1.3255 -0.8199  0.4780
10853TIP3   OH254049   1.047   6.455  11.646  0.1690  0.7192  0.8471
10853TIP3    H154050   0.965   6.409  11.629  1.1895 -1.3671  1.4061
10853TIP3    H254051   1.028   6.547  11.625 -1.3987 -0.2031 -1.9828
10854TIP3   OH254052   5.684   0.911  15.817 -0.4154 -0.3804 -0.3137
10854TIP3    H154053   5.656   1.003  15.819 -0.8993 -0.5403  0.8820
10854TIP3    H254054   5.730   0.899  15.899 -1.7223 -1.6223  0.2514
10855TIP3   OH254055   2.261   4.980  16.147 -0.5930  0.1947  0.1990
10855TIP3    H154056   2.251   5.020  16.061  0.6561  1.5622  0.6602
10855TIP3    H254057   2.238   5.050  16.208 -1.7658 -0.8529  0.9676
10856TIP3   OH254058   5.044   0.613  14.601 -0.1286  0.6024  0.1911
10856TIP3    H154059   5.063   0.556  14.675  0.3706  0.1226 -0.3057
10856TIP3    H254060   4.953   0.639  14.614 -0.6143 -0.9384  0.0059
10857TIP3   OH254061   0.183   4.833  17.229  0.6135  0.0858  0.6712
10857TIP3    H154062   0.251   4.765  17.220  2.1565  1.6139  0.5109
10857TIP3    H254063   0.118   4.793  17.286  0.7429 -2.1070 -0.6305
10858TIP3   OH254064   1.526   5.934  13.930 -0.0433 -0.6506 -0.1178
10858TIP3    H154065   1.591   6.005  13.921 -0.8617 -0.0318 -1.2411
10858TIP3    H254066   1.506   5.932  14.024 -1.3937  1.8859 -0.3040
10859TIP3   OH254067   6.492   6.438   5.616 -0.1245  0.2313 -0.0144
10859TIP3    H154068   6.413   6.488   5.636  0.1279  0.4582  0.4177
10859TIP3    H254069   6.512   6.390   5.696  0.6831  0.8600  0.1712
10860TIP3   OH254070   5.589   1.545   4.256  0.6284  0.7074 -0.2965
10860TIP3    H154071   5.656   1.478   4.243 -0.1274 -0.3575  1.1102
10860TIP3    H254072   5.508   1.496   4.266 -0.0033  1.8595  0.2976
10861TIP3   OH254073   0.505   0.514   1.827 -0.0238 -0.3595 -0.3423
10861TIP3    H154074   0.518   0.486   1.918 -0.0279 -0.4953 -0.3831
10861TIP3    H254075   0.411   0.509   1.813 -0.0143 -0.4306 -0.3829
10862TIP3   OH254076   4.155   5.643   5.817  0.2417 -0.4059  0.3336
10862TIP3    H154077   4.088   5.693   5.864  0.5823 -0.6147  1.0399
10862TIP3    H254078   4.107   5.601   5.745 -0.2476  0.0393  0.3994
10863TIP3   OH254079   4.205   4.086   6.424  0.1806  0.4173 -0.0621
10863TIP3    H154080   4.204   4.163   6.480  1.2911  1.1154 -0.9891
10863TIP3    H254081   4.297   4.075   6.398 -0.0590 -0.8501 -0.4228
10864TIP3   OH254082   4.371   3.432  14.034  0.2592 -0.4539  0.3469
10864TIP3    H154083   4.437   3.372  14.000 -1.0642 -0.4717 -2.3369
10864TIP3    H254084   4.311   3.445  13.960 -1.1432  1.7907  1.8458
10865TIP3   OH254085   5.856   1.402  16.930 -0.1060  0.2437  0.0672
10865TIP3    H154086   5.897   1.485  16.904 -0.6434  0.9480  1.4252
10865TIP3    H254087   5.838   1.412  17.023 -2.4412 -0.4426 -0.2705
10866TIP3   OH254088   4.632   3.418  16.078  0.2861  0.5374 -0.5397
10866TIP3    H154089   4.620   3.366  15.998 -1.6632  1.8491 -1.1316
10866TIP3    H254090   4.699   3.482  16.055  0.3533  0.3557 -0.8484
10867TIP3   OH254091   2.200   5.130  12.306  0.3309  0.5372  0.3992
10867TIP3    H154092   2.153   5.097  12.229 -0.0971  1.3786  0.2911
10867TIP3    H254093   2.292   5.133  12.278  0.0028  2.1409 -0.5574
10868TIP3   OH254094   4.845   1.720   3.163 -0.2342 -0.0440  0.1584
10868TIP3    H154095   4.773   1.703   3.223 -0.0169  2.9827  1.3811
10868TIP3    H254096   4.924   1.698   3.212 -0.1856 -0.1382  0.0377
10869TIP3   OH254097   6.539   2.737   6.093  0.4746 -0.2791 -0.6083
10869TIP3    H154098   6.487   2.665   6.057 -0.3386  0.4135 -0.8430
10869TIP3    H254099   6.572   2.704   6.177  0.2645 -0.9908 -0.8056
10870TIP3   OH254100   6.723   4.808  16.921  0.1899  0.1507  0.0525
10870TIP3    H154101   6.728   4.747  16.994  1.3042  0.2241  0.0340
10870TIP3    H254102   6.770   4.885  16.950  1.4903 -0.1890 -1.1113
10871TIP3   OH254103   1.770   3.924   0.169 -0.5202  0.1743 -0.6004
10871TIP3    H154104   1.834   3.895   0.104  0.0863 -0.3057  0.1955
10871TIP3    H254105   1.751   4.015   0.146  1.5642  0.7969  0.0235
10872TIP3   OH254106   2.872   3.922  16.452  0.0507 -0.0101 -0.8069
10872TIP3    H154107   2.851   4.009  16.484 -1.8255 -0.2169 -1.4291
10872TIP3    H254108   2.840   3.922  16.361 -1.9777 -2.0473 -0.1353
10873TIP3   OH254109   6.048   4.883  15.427  0.5505  0.1956 -0.1639
10873TIP3    H154110   6.037   4.978  15.438  0.5598  0.0514  1.2108
10873TIP3    H254111   6.040   4.868  15.333 -0.6062  1.4174 -0.2628
10874TIP3   OH254112   4.123   5.614  10.463  0.1134  0.1285  0.4090
10874TIP3    H154113   4.159   5.696  10.497 -0.4558  1.4945 -2.2220
10874TIP3    H254114   4.028   5.625  10.468  0.0177  0.4478 -1.8178
10875TIP3   OH254115   2.804   0.456  13.665  0.2499 -0.0071 -0.7506
10875TIP3    H154116   2.809   0.471  13.571  0.5006 -0.8604 -0.8800
10875TIP3    H254117   2.877   0.505  13.701  0.1820  0.2837 -1.0044
10876TIP3   OH254118   1.341   6.019   0.839  0.3511  0.3421  0.2622
10876TIP3    H154119   1.367   6.066   0.918 -2.0337  0.4283  1.0541
10876TIP3    H254120   1.396   6.055   0.770  2.7057  0.0408  1.9192
10877TIP3   OH254121   1.132   2.856  11.180  0.0323  0.1185 -0.3038
10877TIP3    H154122   1.213   2.903  11.161  1.0275 -0.8972  1.2680
10877TIP3    H254123   1.143   2.771  11.138 -1.4013  0.9529 -2.4253
10878TIP3   OH254124   3.385   5.458  15.909 -0.1475 -0.3825 -0.5708
10878TIP3    H154125   3.402   5.505  15.991  1.3065 -0.6733 -0.6912
10878TIP3    H254126   3.313   5.506  15.868 -1.0900 -0.4109  1.0227
10879TIP3   OH254127   4.529   6.605  11.832 -0.4002  0.6667 -0.0042
10879TIP3    H154128   4.593   6.664  11.793  1.4623 -1.2400  0.0258
10879TIP3    H254129   4.580   6.527  11.855 -2.3865 -0.1440  1.8132
10880TIP3   OH254130   1.675   3.697  12.495 -0.1337 -0.5473 -0.1689
10880TIP3    H154131   1.649   3.605  12.504  0.0524 -0.7183 -1.3371
10880TIP3    H254132   1.716   3.702  12.409 -1.4357  0.9506 -0.7147
10881TIP3   OH254133   4.995   6.165  16.634 -0.3333 -0.0171 -0.4825
10881TIP3    H154134   5.052   6.227  16.680  0.6152 -0.7106 -0.7051
10881TIP3    H254135   5.030   6.163  16.545  0.1191 -1.4284 -0.2862
10882TIP3   OH254136   5.292   0.732   0.524 -0.0443  0.2463  0.0699
10882TIP3    H154137   5.350   0.733   0.448 -0.4404  1.9215 -0.2132
10882TIP3    H254138   5.302   0.644   0.560  0.2737 -0.5057 -1.8156
10883TIP3   OH254139   0.427   2.119   1.217  0.0936 -0.1380 -0.4012
10883TIP3    H154140   0.439   2.207   1.251 -1.7407 -0.1162  0.2313
10883TIP3    H254141   0.426   2.130   1.121 -0.4468  0.5626 -0.3154
10884TIP3   OH254142   5.333   5.905   0.323  0.4457 -0.7391 -0.2371
10884TIP3    H154143   5.394   5.946   0.261  1.5394  0.7241  1.7509
10884TIP3    H254144   5.246   5.932   0.293  0.9192 -0.7165 -1.6024
10885TIP3   OH254145   1.660   4.404   5.643  0.2790 -0.6030  0.7145
10885TIP3    H154146   1.680   4.324   5.693  1.3664 -0.7022  0.1337
10885TIP3    H254147   1.566   4.416   5.655  0.0312 -2.1925  0.5074
10886TIP3   OH254148   1.903   5.028   2.853  0.2294  0.0125 -0.6885
10886TIP3    H154149   1.861   4.943   2.866 -0.1410  0.0283 -1.7166
10886TIP3    H254150   1.838   5.079   2.804  0.5506  0.8030 -0.2947
10887TIP3   OH254151   2.319   2.094  15.999 -0.1770 -0.7868  0.1835
10887TIP3    H154152   2.329   2.098  16.094  0.3695 -1.2544  0.1459
10887TIP3    H254153   2.408   2.094  15.965 -0.3925  2.0462 -0.4630
10888TIP3   OH254154   6.705   0.176   0.662  0.3529 -0.6401 -0.1495
10888TIP3    H154155   6.725   0.156   0.753 -0.9776  1.3765  0.6334
10888TIP3    H254156   6.717   0.271   0.655 -4.2618  0.0381 -0.7407
10889TIP3   OH254157   3.663   5.871  12.965  0.1733  0.2815 -0.5434
10889TIP3    H154158   3.747   5.828  12.948  0.0835  0.0626 -0.4345
10889TIP3    H254159   3.667   5.899  13.056 -0.2940 -0.6870 -0.2214
10890TIP3   OH254160   0.580   0.993   1.713 -0.2108 -0.7482 -0.4643
10890TIP3    H154161   0.540   0.973   1.629 -0.3070 -0.5059 -0.4746
10890TIP3    H254162   0.614   1.082   1.704 -2.2040  0.1401  0.4898
10891TIP3   OH254163   2.318   6.493  13.123 -0.4425  0.2530  0.3577
10891TIP3    H154164   2.356   6.550  13.056 -0.1137  0.8602  1.0620
10891TIP3    H254165   2.256   6.549  13.170 -0.9870 -0.2874  0.2893
10892TIP3   OH254166   4.977   0.833   5.200 -0.0687 -0.7121  0.2284
10892TIP3    H154167   5.038   0.829   5.273 -0.1054 -1.4954  0.2192
10892TIP3    H254168   4.940   0.744   5.195  1.2462 -1.1688 -1.8743
10893TIP3   OH254169   5.754   1.142  16.881 -0.0601 -0.3581  0.1779
10893TIP3    H154170   5.775   1.100  16.965  2.5832 -1.8537 -1.1619
10893TIP3    H254171   5.800   1.227  16.885 -0.1544 -0.3156  0.3530
10894TIP3   OH254172   2.771   2.975   2.653 -0.0909 -0.2793 -0.7265
10894TIP3    H154173   2.815   2.949   2.734  0.2411  1.6847 -0.2454
10894TIP3    H254174   2.678   2.961   2.671  0.2044 -3.3252 -1.3291
10895TIP3   OH254175   4.971   0.059  11.722 -0.1482 -0.0355  0.1568
10895TIP3    H154176   5.057   0.057  11.680 -0.1235 -0.3812  0.2257
10895TIP3    H254177   4.925   0.131  11.678  0.2780  0.3460  0.3260
10896TIP3   OH254178   1.003   0.486   3.650 -0.0736  0.0946  0.3347
10896TIP3    H154179   0.933   0.529   3.599  1.3365  2.0476 -0.0014
10896TIP3    H254180   0.957   0.447   3.725 -1.6807  0.3481 -0.4878
10897TIP3   OH254181   2.507   6.795  10.826  0.3900  0.4780  0.2729
10897TIP3    H154182   2.492   6.885  10.798  1.3721 -0.4337 -3.4650
10897TIP3    H254183   2.422   6.766  10.859 -0.2922  2.2879  0.1953
10898TIP3   OH254184   0.399   4.090   2.905  0.3193  0.3996  0.3898
10898TIP3    H154185   0.357   4.176   2.911  1.3719  0.8724  1.3677
10898TIP3    H254186   0.453   4.095   2.826  0.4115  0.6620  0.4672
10899TIP3   OH254187   5.496   3.558  15.902  0.5116  0.0965 -0.2673
10899TIP3    H154188   5.584   3.550  15.864  0.5116  2.2315 -0.8177
10899TIP3    H254189   5.442   3.499  15.850  1.0959  0.8369 -1.7415
10900TIP3   OH254190   5.618   2.120   3.105  0.1524  0.5802  0.1604
10900TIP3    H154191   5.640   2.213   3.095 -0.8460  1.0878  2.3826
10900TIP3    H254192   5.682   2.088   3.168 -0.5153  0.1462  0.6134
10901TIP3   OH254193   2.434   1.334   6.349  0.1523  0.0069 -0.0406
10901TIP3    H154194   2.345   1.302   6.363  1.0364 -1.7659  1.7318
10901TIP3    H254195   2.465   1.286   6.272 -0.1737  0.1398 -0.2560
10902TIP3   OH254196   3.591   3.507   1.436 -0.1831  0.0107 -0.9335
10902TIP3    H154197   3.617   3.597   1.415 -0.0873 -0.0061 -0.8892
10902TIP3    H254198   3.545   3.514   1.519 -0.2969  0.0374 -0.9982
10903TIP3   OH254199   4.881   3.075   6.200 -0.1171  0.3665  0.1128
10903TIP3    H154200   4.827   3.146   6.234  0.2626  0.8826 -0.3376
10903TIP3    H254201   4.971   3.103   6.219  0.0861  0.5120 -1.0141
10904TIP3   OH254202   0.561   1.582   1.110 -0.2986  0.2800  0.2174
10904TIP3    H154203   0.495   1.650   1.104 -0.2305  0.1183 -2.6998
10904TIP3    H254204   0.644   1.629   1.115 -0.3866  0.4193  0.3734
10905TIP3   OH254205   3.446   1.532  10.648  0.0236  0.7509  0.5140
10905TIP3    H154206   3.411   1.547  10.735  0.7291 -1.4371  1.2135
10905TIP3    H254207   3.402   1.596  10.592  0.9845  3.4729  2.7779
10906TIP3   OH254208   1.836   2.923  13.996  0.4794 -0.2969 -0.0033
10906TIP3    H154209   1.790   3.001  14.027 -0.1191 -0.6204 -0.0674
10906TIP3    H254210   1.929   2.946  14.002  0.2856  0.8307 -1.0762
10907TIP3   OH254211   4.936   0.127   4.495 -0.3842  0.0205 -0.4338
10907TIP3    H154212   5.008   0.144   4.435 -0.6357 -1.4561 -1.1876
10907TIP3    H254213   4.965   0.050   4.546 -0.6927  0.4910  0.4695
10908TIP3   OH254214   4.150   4.489  12.576 -0.2635  0.4276 -0.2410
10908TIP3    H154215   4.221   4.425  12.560 -0.7014 -0.1566  0.1485
10908TIP3    H254216   4.071   4.435  12.585 -0.8578  1.1204 -1.2699
10909TIP3   OH254217   2.821   0.183  13.108 -0.4081 -0.2645 -1.0350
10909TIP3    H154218   2.746   0.145  13.062 -0.4939 -0.4003 -0.7878
10909TIP3    H254219   2.796   0.275  13.122 -1.0659 -0.5959  0.1212
10910TIP3   OH254220   6.288   3.458   0.742 -0.1058 -0.7212 -0.1359
10910TIP3    H154221   6.322   3.471   0.830 -0.2055 -1.7451  0.0580
10910TIP3    H254222   6.339   3.517   0.687  0.1327 -0.2723  0.5628
10911TIP3   OH254223   1.739   0.123  14.177 -0.2249  0.1231 -0.1268
10911TIP3    H154224   1.776   0.077  14.102 -0.5076 -2.3183  1.1733
10911TIP3    H254225   1.709   0.207  14.142 -1.0158 -1.2630 -2.8889
10912TIP3   OH254226   2.369   4.076   6.115  0.2726 -0.4076 -0.1462
10912TIP3    H154227   2.395   4.090   6.024  2.1744  1.9923  0.7111
10912TIP3    H254228   2.416   3.998   6.142  3.1140  1.2846 -0.0074
10913TIP3   OH254229   0.258   3.595  14.267 -0.4535  0.4878 -0.3489
10913TIP3    H154230   0.263   3.556  14.354 -1.1000 -0.0406 -0.5517
10913TIP3    H254231   0.193   3.544  14.220 -0.3265  0.9543 -1.0562
10914TIP3   OH254232   6.716   2.660  15.234  0.5026  0.3909 -0.0696
10914TIP3    H154233   6.656   2.592  15.205 -0.0393  0.3059  1.2181
10914TIP3    H254234   6.764   2.685  15.155 -2.6745  1.9533 -1.5902
10915TIP3   OH254235   4.301   2.801   3.732 -0.4511 -0.6104  0.1444
10915TIP3    H154236   4.388   2.827   3.702 -0.6249 -0.3395 -0.1248
10915TIP3    H254237   4.288   2.713   3.697  0.4223 -1.3405  1.6389
10916TIP3   OH254238   0.005   0.036   5.538  0.4568 -0.6787  0.1920
10916TIP3    H154239   0.094   0.071   5.545  0.0103  0.5849 -0.2902
10916TIP3    H254240  -0.018   0.012   5.628  0.4915  1.0266  0.6704
10917TIP3   OH254241   3.079   2.981  15.790 -0.6195 -0.4527  0.1708
10917TIP3    H154242   3.162   2.934  15.777  0.1204  1.2148 -1.2734
10917TIP3    H254243   3.105   3.070  15.813 -2.0121  0.2332 -0.8509
10918TIP3   OH254244   4.703   1.328  11.858 -0.2152  0.1885  0.0767
10918TIP3    H154245   4.672   1.366  11.775 -0.9732 -0.0951  0.2267
10918TIP3    H254246   4.706   1.402  11.918  0.2782  0.3845 -0.1877
10919TIP3   OH254247   1.587   2.209   3.857 -0.5038 -0.3360 -0.9350
10919TIP3    H154248   1.494   2.218   3.837 -0.5051  1.7901 -0.1129
10919TIP3    H254249   1.590   2.158   3.938 -1.0345  0.7914 -0.1939
10920TIP3   OH254250   4.264   0.320   1.726 -0.0967  0.0432 -0.4762
10920TIP3    H154251   4.237   0.373   1.800 -0.2464 -0.3822 -0.2243
10920TIP3    H254252   4.265   0.380   1.652  1.0486  0.7023  0.0623
10921TIP3   OH254253   2.876   3.878   6.590 -0.1224  0.2099 -0.1767
10921TIP3    H154254   2.955   3.912   6.632 -0.1788  1.1160 -0.7879
10921TIP3    H254255   2.817   3.859   6.663  1.1114 -1.7213  0.3804
10922TIP3   OH254256   1.535   3.031   1.946  0.5215  0.8042 -0.9815
10922TIP3    H154257   1.455   2.980   1.962  0.4691  0.8860 -0.9859
10922TIP3    H254258   1.573   3.044   2.032  1.9313 -1.5172 -1.2016
10923TIP3   OH254259   5.152   3.297   1.554  0.3779  0.2178 -0.1549
10923TIP3    H154260   5.063   3.277   1.582  0.9544 -0.6766  1.1165
10923TIP3    H254261   5.151   3.391   1.535 -1.2421 -0.1170 -1.7801
10924TIP3   OH254262   0.751   3.540  16.871  0.0289  0.0482 -0.0075
10924TIP3    H154263   0.793   3.455  16.884  1.8303  1.0135  0.6987
10924TIP3    H254264   0.704   3.532  16.789 -1.7982 -2.3983  1.2095
10925TIP3   OH254265   4.103   0.891   4.747 -0.1375 -0.0062  0.2199
10925TIP3    H154266   4.070   0.838   4.820  0.5122  0.4881  0.8803
10925TIP3    H254267   4.188   0.922   4.776  0.4388 -0.3807 -1.0450
10926TIP3   OH254268   4.156   6.664   3.579  0.1043 -0.2760 -0.4678
10926TIP3    H154269   4.176   6.596   3.643 -2.1747 -1.1976 -0.6957
10926TIP3    H254270   4.167   6.620   3.494 -2.4836 -0.7437 -0.6043
10927TIP3   OH254271   6.507   0.626  11.630 -0.6551 -0.1275 -0.7550
10927TIP3    H154272   6.424   0.669  11.649  0.1990  0.0331  3.0906
10927TIP3    H254273   6.485   0.534  11.618 -1.5745  0.1684 -1.3407
10928TIP3   OH254274   5.637   5.817  15.244 -0.0008  0.6065 -0.2208
10928TIP3    H154275   5.658   5.731  15.280 -0.9650  0.8463  0.9165
10928TIP3    H254276   5.709   5.873  15.274 -1.7399  1.2279  2.9370
10929TIP3   OH254277   0.640   2.715   5.982 -0.0220  0.2598  0.7185
10929TIP3    H154278   0.692   2.635   5.982 -2.0393 -1.0751  0.5895
10929TIP3    H254279   0.673   2.765   5.907  0.5306 -0.9157  0.1592
10930TIP3   OH254280   0.705   3.424  14.284 -0.3644 -0.1229 -0.0170
10930TIP3    H154281   0.775   3.459  14.338  0.3528 -2.2166  0.4567
10930TIP3    H254282   0.655   3.501  14.256  0.7066  1.1831  1.5920
10931TIP3   OH254283   2.423   0.340   5.638  0.1188  0.2232 -0.7690
10931TIP3    H154284   2.410   0.251   5.606  1.6383  0.2770 -1.5823
10931TIP3    H254285   2.490   0.331   5.706  0.7408  0.8262 -1.2973
10932TIP3   OH254286   3.141   3.637  16.850  0.2626 -0.6785 -0.1758
10932TIP3    H154287   3.138   3.723  16.807 -0.2545 -0.3980  0.4154
10932TIP3    H254288   3.054   3.627  16.890  0.3053 -1.5008 -0.2918
10933TIP3   OH254289   3.442   1.966   2.096  0.4616  0.0292 -0.0380
10933TIP3    H154290   3.408   2.046   2.054 -0.1898 -0.4936 -0.5124
10933TIP3    H254291   3.418   1.896   2.036  2.0774 -0.3973 -0.1955
10934TIP3   OH254292   0.455   6.601   2.489  0.2931 -0.1933  0.4609
10934TIP3    H154293   0.449   6.681   2.436 -0.7210 -1.1061 -0.8370
10934TIP3    H254294   0.378   6.604   2.546  1.4975  0.8962  2.0845
10935TIP3   OH254295   3.707   2.129  12.082 -0.1709 -0.1044 -0.1903
10935TIP3    H154296   3.710   2.139  12.177 -0.3861 -0.0116 -0.1957
10935TIP3    H254297   3.642   2.192  12.052  1.2617  1.2453 -0.5741
10936TIP3   OH254298   6.468   1.247  13.594  0.9492 -0.3682  0.0156
10936TIP3    H154299   6.380   1.276  13.566  0.3860  0.3135  2.3898
10936TIP3    H254300   6.469   1.153  13.575  0.5433  0.0242 -2.0979
10937TIP3   OH254301   4.957   1.596   5.829  0.3932 -0.4004  0.3191
10937TIP3    H154302   4.951   1.509   5.869  3.1797 -0.2593  1.0972
10937TIP3    H254303   5.050   1.616   5.828 -0.1888  2.4559 -0.1856
10938TIP3   OH254304   4.290   5.489  11.322 -0.4217  0.1442 -0.2878
10938TIP3    H154305   4.228   5.425  11.285 -2.0680  1.5047  0.0350
10938TIP3    H254306   4.356   5.436  11.367 -1.2210 -1.3551 -0.8474
10939TIP3   OH254307   4.449   5.389   2.182 -0.0114 -0.2720 -0.1817
10939TIP3    H154308   4.446   5.441   2.102  0.5041  1.6039  1.0076
10939TIP3    H254309   4.436   5.451   2.253 -1.7223 -2.0871  1.1781
10940TIP3   OH254310   6.575   3.598   5.983  0.0634 -0.3895  0.0552
10940TIP3    H154311   6.628   3.519   5.970 -0.0144 -0.1106 -2.0643
10940TIP3    H254312   6.486   3.565   5.995 -0.0821 -0.6001 -1.5237
10941TIP3   OH254313   6.254   4.893  16.652  0.2176 -0.2329  0.3308
10941TIP3    H154314   6.196   4.818  16.645  0.5565 -0.4123 -0.5658
10941TIP3    H254315   6.196   4.969  16.646  0.0972 -0.4073 -0.8604
10942TIP3   OH254316   1.925   4.390   1.964 -0.0105 -0.0144 -0.2579
10942TIP3    H154317   2.005   4.415   2.011 -0.2867  0.9948 -0.2983
10942TIP3    H254318   1.858   4.448   2.001 -0.7123 -0.8430 -0.2400
10943TIP3   OH254319   4.921   3.793   5.705  0.4775 -0.0735  0.4200
10943TIP3    H154320   4.980   3.835   5.643 -1.0015  0.0030 -0.9779
10943TIP3    H254321   4.932   3.700   5.689 -1.7017 -0.0145 -1.7499
10944TIP3   OH254322   1.745   2.643  12.130 -0.2437 -0.2480  0.5461
10944TIP3    H154323   1.784   2.557  12.113 -1.6253 -0.5207 -1.3948
10944TIP3    H254324   1.762   2.693  12.051 -2.7273  0.0248  0.1407
10945TIP3   OH254325   4.188   0.281  13.853 -0.2550 -0.0259  0.5083
10945TIP3    H154326   4.204   0.308  13.943  0.1426  0.9732  0.1389
10945TIP3    H254327   4.146   0.356  13.812 -0.5379 -0.5173 -0.1151
10946TIP3   OH254328   6.440   4.928   4.328 -0.5624  0.5436 -0.2429
10946TIP3    H154329   6.407   4.872   4.399  1.1841  0.0660  0.2235
10946TIP3    H254330   6.422   5.017   4.358 -1.2095  0.3066  0.0953
10947TIP3   OH254331   0.129   3.124  10.630  0.2819  0.4899 -0.0039
10947TIP3    H154332   0.111   3.082  10.714 -0.6027  1.0250  0.0824
10947TIP3    H254333   0.118   3.054  10.566  2.0480 -0.1822  0.4118
10948TIP3   OH254334   0.330   1.060   2.608 -0.1294 -0.1273  0.5796
10948TIP3    H154335   0.398   1.108   2.561 -0.0643  0.8812  1.7004
10948TIP3    H254336   0.373   1.030   2.688 -0.7131 -0.4157  0.7891
10949TIP3   OH254337   6.039   3.039   1.823  0.3655 -0.4390  0.0746
10949TIP3    H154338   5.958   3.078   1.856  0.6226 -0.2599  0.5015
10949TIP3    H254339   6.091   3.115   1.793  0.6071 -0.5036  0.3251
10950TIP3   OH254340   2.591   0.348   3.535  0.1747  0.6675 -0.3568
10950TIP3    H154341   2.569   0.295   3.458 -1.1112  0.6314  0.0353
10950TIP3    H254342   2.532   0.317   3.603  0.6634  1.3637  0.3893
10951TIP3   OH254343   4.357   1.174   0.529 -0.3545  0.1393  0.1889
10951TIP3    H154344   4.320   1.094   0.568 -0.8875  0.2983  0.0141
10951TIP3    H254345   4.281   1.232   0.517  0.3272  1.5923  2.4846
10952TIP3   OH254346   0.028   0.915   4.990  0.8952  0.1150  0.1429
10952TIP3    H154347   0.108   0.947   4.947  1.5182 -0.1086  1.1254
10952TIP3    H254348  -0.011   0.857   4.925  0.5370  1.6861 -1.0756
10953TIP3   OH254349   4.472   5.912  14.713 -0.3155 -0.5800 -0.2511
10953TIP3    H154350   4.513   5.843  14.763 -0.0001  1.9769  3.2336
10953TIP3    H254351   4.532   5.930  14.641  2.0466 -0.6048  1.6581
10954TIP3   OH254352   2.162   6.297  15.991  0.7864 -0.4313  0.6626
10954TIP3    H154353   2.074   6.264  16.007  0.9110 -0.3727  1.5200
10954TIP3    H254354   2.155   6.350  15.912  0.1666 -0.8684  0.4293
10955TIP3   OH254355   6.614   5.499  13.552  0.4172  0.5001 -0.4810
10955TIP3    H154356   6.603   5.478  13.459  0.3525 -0.4109 -0.2725
10955TIP3    H254357   6.702   5.535  13.559  0.8855 -0.5822 -0.7015
10956TIP3   OH254358   0.413   6.077   2.372  0.0762  0.0059  0.3961
10956TIP3    H154359   0.341   6.014   2.384 -0.3113  0.5203  0.8036
10956TIP3    H254360   0.434   6.071   2.279  1.3393 -2.1232  0.7963
10957TIP3   OH254361   5.763   5.610  13.382  1.1278  0.5074 -0.1600
10957TIP3    H154362   5.696   5.676  13.363  1.4066  1.0615  0.7500
10957TIP3    H254363   5.717   5.526  13.375  0.4275  0.8683  0.1063
10958TIP3   OH254364   6.625   2.613  16.397 -0.5073  0.0067 -0.4248
10958TIP3    H154365   6.532   2.611  16.375 -0.7314 -1.5674  0.5644
10958TIP3    H254366   6.658   2.527  16.370  0.4608  0.2284  0.0198
10959TIP3   OH254367   3.662   3.729  10.942 -0.6009  0.4459  0.0252
10959TIP3    H154368   3.703   3.802  10.897 -2.2573  0.4430 -1.5457
10959TIP3    H254369   3.711   3.652  10.913  0.7128  0.8340  1.1602
10960TIP3   OH254370   6.356   1.303   5.351 -0.7042  0.3599 -0.0075
10960TIP3    H154371   6.343   1.264   5.437  1.5565 -0.4203 -0.0071
10960TIP3    H254372   6.328   1.235   5.289  0.0049  0.0129  0.0569
10961TIP3   OH254373   3.944   5.541   3.456  0.5517  0.1897  0.0631
10961TIP3    H154374   4.027   5.586   3.473 -0.1182  2.2171 -1.8346
10961TIP3    H254375   3.946   5.522   3.362 -0.3499 -1.4029  0.3507
10962TIP3   OH254376   1.633   0.250   3.749 -0.2220 -0.2620 -0.4056
10962TIP3    H154377   1.581   0.266   3.670 -1.7552 -3.8555 -0.2111
10962TIP3    H254378   1.573   0.263   3.821  0.5933  0.8013  0.0995
10963TIP3   OH254379   4.979   4.049   0.502 -0.6096  0.3995 -0.0702
10963TIP3    H154380   4.887   4.062   0.479 -1.1719 -1.2789  1.1007
10963TIP3    H254381   5.024   4.127   0.470 -2.3862  1.0501 -0.9973
10964TIP3   OH254382   6.412   0.507  10.734  0.6470  0.4348  0.5122
10964TIP3    H154383   6.363   0.588  10.737  0.1681  0.1404  5.2097
10964TIP3    H254384   6.502   0.533  10.756  0.7164 -0.1441  0.9299
10965TIP3   OH254385   4.711   0.880  15.330  0.1092  0.1353  0.1584
10965TIP3    H154386   4.666   0.957  15.295 -0.2172 -0.2890 -0.3674
10965TIP3    H254387   4.646   0.809  15.325  0.6320 -0.3371 -0.0292
10966TIP3   OH254388   0.416   5.839  14.921  0.4562 -0.0077  0.1032
10966TIP3    H154389   0.354   5.865  14.852  0.1965  0.5546  0.5425
10966TIP3    H254390   0.443   5.750  14.897 -0.6315 -0.3141 -0.0082
10967TIP3   OH254391   4.793   3.467  14.506 -0.0513  0.0154  0.6836
10967TIP3    H154392   4.836   3.511  14.579  0.3761 -0.0674  0.4845
10967TIP3    H254393   4.849   3.392  14.486 -0.2979 -0.1073  0.4347
10968TIP3   OH254394   3.904   2.323   5.138  0.0399 -0.3910 -0.4852
10968TIP3    H154395   3.839   2.390   5.158  0.5275  0.1079 -0.5719
10968TIP3    H254396   3.919   2.279   5.221 -2.8207 -2.6707 -1.0901
10969TIP3   OH254397   6.620   5.663   0.104  0.2484  0.0826  0.0898
10969TIP3    H154398   6.669   5.620   0.034  1.0875 -3.3575  2.6421
10969TIP3    H254399   6.621   5.756   0.081  1.0587 -0.8516 -4.0576
10970TIP3   OH254400   2.012   5.656   0.688 -0.6699 -0.4979 -0.3500
10970TIP3    H154401   2.048   5.574   0.723 -0.0021 -0.7965 -1.6693
10970TIP3    H254402   1.974   5.631   0.604 -1.1390  0.4109 -0.4091
10971TIP3   OH254403   1.949   5.973   5.635  0.1400 -0.3498  0.8854
10971TIP3    H154404   1.920   6.006   5.720  2.0062  0.8168  1.0872
10971TIP3    H254405   1.892   5.898   5.618 -4.6584  3.2353  0.1229
10972TIP3   OH254406   2.554   0.526   4.112  0.0564 -0.2244  0.3871
10972TIP3    H154407   2.529   0.588   4.180  0.2614 -0.7889  0.9786
10972TIP3    H254408   2.623   0.571   4.063  0.9941 -0.4182  1.5075
10973TIP3   OH254409   2.699   4.359  12.734 -0.0691 -0.4856 -0.1591
10973TIP3    H154410   2.609   4.336  12.711 -0.5317 -0.0595  1.2075
10973TIP3    H254411   2.709   4.330  12.825  0.6972  0.8422  0.1847
10974TIP3   OH254412   3.347   6.067   2.591  0.0189  0.7132  0.0303
10974TIP3    H154413   3.386   6.000   2.536  0.5288  0.4545  0.6984
10974TIP3    H254414   3.372   6.042   2.680 -0.0898  1.5925  0.3081
10975TIP3   OH254415   0.184   1.508  14.383 -0.0277 -0.0234 -0.1704
10975TIP3    H154416   0.221   1.588  14.346 -0.1297  1.1610  2.2419
10975TIP3    H254417   0.152   1.533  14.470 -1.7684 -2.2376 -0.1095
10976TIP3   OH254418   2.841   1.892   2.581  0.1686  0.8398  0.4302
10976TIP3    H154419   2.872   1.979   2.603  1.4654  0.7601 -0.9810
10976TIP3    H254420   2.811   1.900   2.490  2.6673 -0.7684 -0.5630
10977TIP3   OH254421   2.761   5.084   0.338 -0.4007 -0.3831 -0.5090
10977TIP3    H154422   2.681   5.106   0.292  0.4635  2.3837 -0.7468
10977TIP3    H254423   2.748   5.119   0.427  0.5516  0.1129 -0.5625
10978TIP3   OH254424   3.270   3.239   5.305  0.2416 -0.4308 -0.2339
10978TIP3    H154425   3.270   3.316   5.249  1.0292 -1.2990 -1.4606
10978TIP3    H254426   3.178   3.215   5.313  0.0688  0.1088 -0.5773
10979TIP3   OH254427   2.088   0.004   2.813 -0.3088  0.3036  0.6452
10979TIP3    H154428   2.153   0.072   2.830  1.5770 -0.9056 -1.4196
10979TIP3    H254429   2.085  -0.048   2.893  1.4801  0.2582  0.7006
10980TIP3   OH254430   5.905   5.104   4.839  0.0764 -0.7365 -0.1027
10980TIP3    H154431   5.981   5.058   4.804  0.7947  0.7947 -0.5741
10980TIP3    H254432   5.927   5.120   4.931  1.0356  1.1310 -0.6343
10981TIP3   OH254433   6.319   0.941   4.597 -0.7865  0.0377 -0.2701
10981TIP3    H154434   6.404   0.912   4.565 -1.5067 -1.3789 -0.9649
10981TIP3    H254435   6.336   1.025   4.640  1.2545 -1.0362  1.1247
10982TIP3   OH254436   1.908   2.833  15.450  0.0112  0.2057 -0.0981
10982TIP3    H154437   1.939   2.799  15.534  0.5734 -1.5832 -0.9970
10982TIP3    H254438   1.947   2.774  15.385 -2.2079  0.2036 -1.4900
10983TIP3   OH254439   2.941   1.074  14.890 -0.3025 -0.0583  0.2614
10983TIP3    H154440   2.987   1.031  14.818 -1.2378 -0.8469  0.1195
10983TIP3    H254441   2.848   1.064  14.868 -0.5867  0.0371  1.3882
10984TIP3   OH254442   0.057   4.772  14.599 -0.1056 -0.5472  0.9070
10984TIP3    H154443   0.141   4.735  14.627 -0.6029 -1.4791  1.1892
10984TIP3    H254444   0.019   4.704  14.543 -0.1744  0.3411 -0.1371
10985TIP3   OH254445   3.352   0.746  15.992 -0.0243  0.8028  0.2655
10985TIP3    H154446   3.299   0.726  16.069 -1.5996  1.0194 -0.7432
10985TIP3    H254447   3.372   0.840  16.001 -1.2915  1.1319 -0.2265
10986TIP3   OH254448   0.518   5.937   1.822  0.0695 -0.0250 -0.4926
10986TIP3    H154449   0.565   6.020   1.825 -0.4695  0.2674  0.0436
10986TIP3    H254450   0.582   5.873   1.790  0.4415  0.6251 -1.0463
10987TIP3   OH254451   3.123   2.890   0.396 -0.2579 -0.0215 -0.0979
10987TIP3    H154452   3.095   2.916   0.308 -1.4613 -1.5428 -0.1760
10987TIP3    H254453   3.113   2.795   0.398  3.2060 -0.4509  0.4935
10988TIP3   OH254454   1.182   4.612   5.106 -0.3153  0.2062 -0.1685
10988TIP3    H154455   1.227   4.616   5.022 -1.7036 -0.0347 -0.9337
10988TIP3    H254456   1.252   4.620   5.171  1.0129 -1.7125 -1.3036
10989TIP3   OH254457   2.565   3.485  13.213  0.2807  0.2475 -0.0046
10989TIP3    H154458   2.625   3.446  13.150  0.0982  1.3505 -0.8806
10989TIP3    H254459   2.497   3.526  13.160 -0.7278 -0.1462  0.9509
10990TIP3   OH254460   4.318   0.267   5.501  0.2462  0.0109  0.0890
10990TIP3    H154461   4.346   0.245   5.413  2.7321  2.1417  0.2592
10990TIP3    H254462   4.366   0.206   5.558  0.4724  0.1774  0.0794
10991TIP3   OH254463   1.718   0.409  14.134  0.0553  0.3555 -0.3123
10991TIP3    H154464   1.804   0.436  14.166 -0.3764 -0.8082  1.8901
10991TIP3    H254465   1.687   0.484  14.083  1.6843  1.4118  0.2041
10992TIP3   OH254466   0.695   2.457  15.435 -0.2005 -0.2329 -0.2873
10992TIP3    H154467   0.694   2.362  15.442 -1.1577 -0.1213  1.4153
10992TIP3    H254468   0.654   2.487  15.516  2.4965  1.6950  0.4020
10993TIP3   OH254469   5.484   6.210  15.768 -0.0327  0.0069 -0.2510
10993TIP3    H154470   5.409   6.164  15.731 -0.4150 -0.5038  1.1611
10993TIP3    H254471   5.473   6.301  15.739 -2.3279  0.3861  1.6915
10994TIP3   OH254472   3.335   6.355   2.198 -0.4631  0.3399  0.1907
10994TIP3    H154473   3.373   6.271   2.172 -1.3887 -0.0176 -0.0226
10994TIP3    H254474   3.341   6.410   2.120  0.5739  0.6323  0.4691
10995TIP3   OH254475   6.261   0.001   2.740 -0.1148  0.1162 -0.0593
10995TIP3    H154476   6.314  -0.073   2.772 -0.0592  0.6812  1.1928
10995TIP3    H254477   6.280   0.005   2.646  1.6199 -0.0545  0.2574
10996TIP3   OH254478   4.471   3.471  17.105  0.0310  0.3338 -0.3792
10996TIP3    H154479   4.486   3.541  17.168 -0.4405 -0.7842  0.9878
10996TIP3    H254480   4.483   3.513  17.019 -0.0523  2.0270  0.4258
10997TIP3   OH254481   5.225   4.720   4.985  0.1287 -0.1461 -0.1507
10997TIP3    H154482   5.166   4.766   5.044 -0.7795 -1.5575  0.0814
10997TIP3    H254483   5.310   4.762   4.997 -0.4667  0.8225  0.7406
10998TIP3   OH254484   6.234   0.096  14.419  0.3026 -0.4924  0.0175
10998TIP3    H154485   6.160   0.054  14.376  0.4270 -0.1536 -0.5324
10998TIP3    H254486   6.271   0.028  14.475  0.6136 -1.1894 -1.0064
10999TIP3   OH254487   5.950   0.992   3.939 -0.1874 -0.0709  0.4604
10999TIP3    H154488   6.038   0.981   3.903  0.0227 -1.1130  1.2572
10999TIP3    H254489   5.892   0.952   3.874  0.0435 -0.4629  0.4930
11000TIP3   OH254490   1.666   2.978  15.299 -0.0161 -0.3547 -0.4370
11000TIP3    H154491   1.705   2.962  15.213  0.5778  0.7429 -0.3880
11000TIP3    H254492   1.573   2.958  15.288  0.4857 -2.6520 -0.6630
11001TIP3   OH254493   4.702   6.398  11.947  0.0309  0.5832  0.2841
11001TIP3    H154494   4.791   6.364  11.937  0.5170  2.1738 -1.2171
11001TIP3    H254495   4.697   6.423  12.039  0.5350 -1.1139  0.7912
11002TIP3   OH254496   6.568   5.522  11.529 -0.0957 -0.3526 -0.2450
11002TIP3    H154497   6.569   5.572  11.610 -0.1236  0.9810 -1.0618
11002TIP3    H254498   6.531   5.581  11.464  2.1123 -0.6012 -1.7679
11003TIP3   OH254499   0.939   5.800   2.546  0.3136  0.5273 -0.1307
11003TIP3    H154500   0.989   5.878   2.571 -0.4509  1.5664 -1.7519
11003TIP3    H254501   0.848   5.826   2.559  0.1030 -0.6278  0.7674
11004TIP3   OH254502   1.378   2.396   4.481  0.7427 -0.4895 -0.1779
11004TIP3    H154503   1.432   2.379   4.403  0.9089  0.1622 -0.2017
11004TIP3    H254504   1.420   2.345   4.550  1.3298 -0.0623 -0.2167
11005TIP3   OH254505   4.255   1.172   4.795  0.1406  0.5116  0.4101
11005TIP3    H154506   4.323   1.231   4.827  0.0352  0.3256  0.9707
11005TIP3    H254507   4.176   1.198   4.842  0.3524 -0.8427  1.5199
11006TIP3   OH254508   1.630   5.523  12.216 -0.4814  0.6818 -0.5180
11006TIP3    H154509   1.704   5.572  12.181 -0.3008  0.7801 -0.0025
11006TIP3    H254510   1.662   5.488  12.299  0.3963 -2.7369 -2.1982
11007TIP3   OH254511   1.858   5.545  14.575 -0.5683 -0.7143 -0.7711
11007TIP3    H154512   1.765   5.525  14.579 -0.6642 -0.4441 -1.4962
11007TIP3    H254513   1.874   5.601  14.651 -0.9496 -0.9519 -0.5165
11008TIP3   OH254514   0.292   1.738   0.705 -0.9874  0.2323 -0.0656
11008TIP3    H154515   0.203   1.750   0.671 -0.6329  1.6158 -0.5581
11008TIP3    H254516   0.294   1.790   0.786 -0.5923  0.2893 -0.1106
11009TIP3   OH254517   1.524   6.201  16.716  0.0551  0.2348  0.3295
11009TIP3    H154518   1.515   6.236  16.805 -0.8999  0.9798 -0.0480
11009TIP3    H254519   1.460   6.251  16.665  1.2724  0.4796 -0.9742
11010TIP3   OH254520   0.547   1.005  12.384  0.1036 -0.5065 -0.3192
11010TIP3    H154521   0.497   1.027  12.306 -1.6537  0.0352  0.9204
11010TIP3    H254522   0.596   1.084  12.405 -1.6768  0.3421  0.7685
11011TIP3   OH254523   2.153   3.742  11.262  0.1674 -0.0435  0.0315
11011TIP3    H154524   2.193   3.692  11.333  0.2584  1.1525  0.8355
11011TIP3    H254525   2.194   3.708  11.182  0.3172 -1.1528  0.5731
11012TIP3   OH254526   1.664   1.851  15.250 -0.0596  0.0310  0.1213
11012TIP3    H154527   1.758   1.868  15.260  0.1711 -1.0057 -0.1568
11012TIP3    H254528   1.638   1.906  15.176  0.3754  0.1591  0.0597
11013TIP3   OH254529   2.115   4.606   3.927  0.4730  0.2604 -0.0422
11013TIP3    H154530   2.041   4.660   3.956  2.3497  2.3946  0.9460
11013TIP3    H254531   2.109   4.608   3.832  0.0981  1.6284 -0.0047
11014TIP3   OH254532   4.536   6.218   3.832 -0.4470  0.1035 -0.0349
11014TIP3    H154533   4.600   6.151   3.855 -0.6283 -0.5537 -1.4027
11014TIP3    H254534   4.503   6.192   3.745 -2.2511  0.6554  0.4530
11015TIP3   OH254535   3.094   1.929   0.325 -0.5978 -0.4888  0.3140
11015TIP3    H154536   3.117   1.846   0.367 -0.7221 -0.8079 -0.2408
11015TIP3    H254537   3.097   1.993   0.395  1.6416 -0.5892  0.3409
11016TIP3   OH254538   1.645   4.422   3.082 -0.4694  0.0028  0.1210
11016TIP3    H154539   1.647   4.327   3.080  0.1880  0.0232 -0.3355
11016TIP3    H254540   1.552   4.444   3.091 -0.8397 -0.6499 -1.7195
11017TIP3   OH254541   4.677   2.853   1.138  0.1996  0.5323  0.7604
11017TIP3    H154542   4.705   2.830   1.050 -2.3570 -0.5247  0.1723
11017TIP3    H254543   4.693   2.774   1.190 -2.7674 -0.5484  0.1271
11018TIP3   OH254544   0.588   2.182   1.799  0.1820 -0.6214 -0.1284
11018TIP3    H154545   0.671   2.175   1.845  0.3629  0.8679 -0.2141
11018TIP3    H254546   0.609   2.164   1.707  0.4440 -0.0897 -0.1738
11019TIP3   OH254547   4.064   3.657   2.213 -0.3827  0.5402 -0.5662
11019TIP3    H154548   4.150   3.615   2.210 -1.3064 -1.2807 -2.1960
11019TIP3    H254549   4.066   3.720   2.141 -1.2783 -1.2944 -2.2512
11020TIP3   OH254550   1.938   6.468   1.395  0.1485  0.1473 -0.3027
11020TIP3    H154551   1.860   6.499   1.441  0.7631  0.0441  0.8395
11020TIP3    H254552   1.905   6.423   1.318 -0.8957  0.6115 -0.1285
11021TIP3   OH254553   2.288   1.492   1.306 -0.1617  0.3148  0.3877
11021TIP3    H154554   2.311   1.571   1.354  0.7285 -0.1460  0.7140
11021TIP3    H254555   2.278   1.424   1.373 -2.1450  0.4170  0.2366
11022TIP3   OH254556   0.896   5.016   4.900 -0.0691 -0.0894  0.5476
11022TIP3    H154557   0.941   5.090   4.859  0.1391 -1.5924 -2.0013
11022TIP3    H254558   0.844   4.977   4.830  1.7812 -3.8743  1.1395
11023TIP3   OH254559   4.303   1.081   2.703 -0.5212 -0.1596 -0.5865
11023TIP3    H154560   4.345   0.995   2.708 -3.5088 -1.6092  1.1841
11023TIP3    H254561   4.239   1.072   2.633 -0.0573  1.0011 -1.1640
11024TIP3   OH254562   1.424   6.813   2.060  0.1768 -0.5533  0.9676
11024TIP3    H154563   1.380   6.745   2.111  0.8989 -0.4335  1.7710
11024TIP3    H254564   1.355   6.875   2.038 -0.4166 -1.3522  0.5475
11025TIP3   OH254565   5.990   4.885   1.674 -0.4716  0.1703 -0.4588
11025TIP3    H154566   5.932   4.893   1.750  2.5822  0.1961  1.9736
11025TIP3    H254567   6.062   4.946   1.692  1.6875 -1.8260 -2.0704
11026TIP3   OH254568   3.524   4.293   0.997 -0.0272 -0.5397 -0.0307
11026TIP3    H154569   3.608   4.301   1.043  0.9229 -1.1643 -1.6335
11026TIP3    H254570   3.501   4.383   0.974  0.1497 -0.3572  0.4933
11027TIP3   OH254571   5.303   3.956  11.985 -0.3420 -0.3309  0.5137
11027TIP3    H154572   5.239   3.930  11.919  0.8056 -0.2025 -0.6718
11027TIP3    H254573   5.254   3.955  12.068 -2.5203  2.1067 -0.6607
11028TIP3   OH254574   3.496   3.479  10.880  0.8335 -0.3049 -0.1150
11028TIP3    H154575   3.524   3.519  10.798 -0.5563  0.4715 -0.2206
11028TIP3    H254576   3.524   3.387  10.872  4.1835  0.6284  0.2249
11029TIP3   OH254577   5.486   5.817   1.590  0.0601  0.5378 -0.3622
11029TIP3    H154578   5.509   5.726   1.573 -1.3097 -0.2818  1.9353
11029TIP3    H254579   5.474   5.821   1.685 -1.4752  2.7325 -0.6115
11030TIP3   OH254580   2.298   4.896   5.136 -0.0677 -0.1986  0.1002
11030TIP3    H154581   2.301   4.967   5.201  0.9601  0.5915 -0.7685
11030TIP3    H254582   2.385   4.857   5.141 -0.2254 -0.5951 -0.2924
11031TIP3   OH254583   4.932   4.496   3.375 -0.0815  0.3450 -0.2459
11031TIP3    H154584   4.925   4.421   3.316  1.0396  0.9553 -1.1705
11031TIP3    H254585   4.980   4.562   3.325  0.7795  0.9165  1.2912
11032TIP3   OH254586   3.798   5.691  12.794 -0.0371  0.1927 -0.3343
11032TIP3    H154587   3.847   5.650  12.722  0.0705 -0.5456  0.1553
11032TIP3    H254588   3.827   5.644  12.872  0.1873  1.3064  0.2528
11033TIP3   OH254589   6.696   2.311  11.924  1.0211 -0.1141 -0.7349
11033TIP3    H154590   6.696   2.260  12.005 -0.5633  1.9449  0.6322
11033TIP3    H254591   6.739   2.393  11.948 -1.3142  1.3514 -1.3665
11034TIP3   OH254592   4.172   0.957   2.254 -0.6844  0.0643 -0.1685
11034TIP3    H154593   4.132   1.042   2.270 -1.3333 -0.4424  0.8717
11034TIP3    H254594   4.123   0.921   2.180 -1.1835  0.0889  0.1483
11035TIP3   OH254595   4.821   6.682  15.682 -0.3493 -0.2474  0.2372
11035TIP3    H154596   4.772   6.763  15.668 -0.1829 -0.6099 -2.6998
11035TIP3    H254597   4.910   6.711  15.703 -0.7526  0.3428  1.1584
11036TIP3   OH254598   6.543   0.789  16.857 -0.2889 -0.2464  0.6313
11036TIP3    H154599   6.523   0.869  16.809  2.7486  0.8816  1.1824
11036TIP3    H254600   6.459   0.765  16.898 -1.3230  2.4648  0.2199
11037TIP3   OH254601   3.421   3.298  14.078 -0.1976 -0.4330 -0.1095
11037TIP3    H154602   3.422   3.318  14.171  0.9089  2.1383 -0.6285
11037TIP3    H254603   3.343   3.342  14.044  0.7625  0.7580 -0.8086
11038TIP3   OH254604   5.101   3.970   3.367 -0.1849 -0.7234 -0.5400
11038TIP3    H154605   5.009   3.994   3.380 -0.6591 -1.6856 -2.0470
11038TIP3    H254606   5.101   3.913   3.291  1.6101 -1.1636 -0.2429
11039TIP3   OH254607   2.693   2.761   0.563  0.0991 -0.3502 -0.2254
11039TIP3    H154608   2.762   2.763   0.630  0.1454  0.5587 -0.2936
11039TIP3    H254609   2.694   2.849   0.526 -1.0613 -0.3530 -0.2621
11040TIP3   OH254610   2.145   0.042  17.022  0.0618  0.2598 -0.0743
11040TIP3    H154611   2.117   0.085  16.942 -1.1517 -1.7658 -0.7670
11040TIP3    H254612   2.068   0.043  17.078 -0.2201 -1.7075 -0.4120
11041TIP3   OH254613   1.295   0.465   4.718 -0.3192 -0.0404 -0.3246
11041TIP3    H154614   1.379   0.436   4.682 -0.5234  0.2283 -1.0286
11041TIP3    H254615   1.315   0.492   4.807  0.3740  0.1620 -0.5405
11042TIP3   OH254616   5.300   0.693  11.987 -0.0998 -0.2961  0.5375
11042TIP3    H154617   5.334   0.604  11.991  0.2513 -0.1680  0.4214
11042TIP3    H254618   5.207   0.683  11.967  0.0440 -0.6224  0.0292
11043TIP3   OH254619   4.581   1.724   1.425  0.8687  0.2855  0.2929
11043TIP3    H154620   4.664   1.762   1.396  0.7546  1.0100  0.9009
11043TIP3    H254621   4.527   1.799   1.448  0.0443 -0.1894 -0.0951
11044TIP3   OH254622   0.509   5.559   2.244  0.4093  0.0716  0.1586
11044TIP3    H154623   0.591   5.546   2.290  0.0376  1.1321  1.1452
11044TIP3    H254624   0.443   5.513   2.296  0.1301  0.5268  0.2150
11045TIP3   OH254625   2.668   0.759   3.270 -0.0656 -0.7339  0.0902
11045TIP3    H154626   2.680   0.789   3.361 -0.9464 -1.5866  0.4958
11045TIP3    H254627   2.585   0.713   3.271  2.2141 -5.1628 -0.0007
11046TIP3   OH254628   2.299   6.521  15.035 -0.7077  0.5396 -0.0203
11046TIP3    H154629   2.257   6.578  14.971 -1.1979 -0.0705 -0.2545
11046TIP3    H254630   2.360   6.577  15.082 -0.9647  1.1812 -0.4525
11047TIP3   OH254631   3.627   2.610  13.387 -0.3365 -0.6944  0.8709
11047TIP3    H154632   3.599   2.547  13.454  1.2918 -1.5184  0.7891
11047TIP3    H254633   3.720   2.624  13.405 -0.4832  1.0157  0.3346
11048TIP3   OH254634   3.286   6.508   2.408 -0.4101 -0.6690 -0.3644
11048TIP3    H154635   3.222   6.469   2.468  0.7447 -0.7904  0.8216
11048TIP3    H254636   3.301   6.441   2.342 -1.4211 -0.6802 -0.5943
11049TIP3   OH254637   2.809   1.912   0.272  0.1124 -0.2645 -0.0585
11049TIP3    H154638   2.893   1.881   0.305 -1.1024 -1.2375  2.2099
11049TIP3    H254639   2.778   1.974   0.337 -0.2645  1.2047 -1.6093
11050TIP3   OH254640   4.022   0.430  11.306  0.1657 -0.2196 -0.2765
11050TIP3    H154641   4.115   0.452  11.314  0.1307 -0.0652 -0.2912
11050TIP3    H254642   3.988   0.492  11.241  0.0293 -0.2090 -0.1947
11051TIP3   OH254643   3.126   2.948   1.325 -0.2544 -0.2975  0.4013
11051TIP3    H154644   3.211   2.907   1.343 -1.1003 -1.1785  2.5016
11051TIP3    H254645   3.090   2.897   1.252  1.9273  1.4635 -2.0215
11052TIP3   OH254646   3.856   4.112   0.085  0.6014 -0.5470 -0.2168
11052TIP3    H154647   3.773   4.148   0.053 -1.0616 -3.6122  0.3931
11052TIP3    H254648   3.876   4.164   0.163  0.6830  1.9816 -1.8861
11053TIP3   OH254649   6.579   4.687   5.389  0.1120  0.4687  0.1305
11053TIP3    H154650   6.635   4.719   5.318  0.0271 -0.9796 -0.6106
11053TIP3    H254651   6.555   4.598   5.363  1.3807 -0.6954  2.7805
11054TIP3   OH254652   2.413   1.002  13.226 -0.0999 -0.2541 -0.1778
11054TIP3    H154653   2.445   1.016  13.137 -0.8493 -0.7694 -0.5366
11054TIP3    H254654   2.486   0.959  13.271  1.1031  2.0321  0.0900
11055TIP3   OH254655   0.665   2.724  13.275  0.2915  0.7858 -0.4718
11055TIP3    H154656   0.639   2.813  13.298 -0.3524  0.9825 -1.9074
11055TIP3    H254657   0.584   2.681  13.248  0.3030 -0.7635  1.7828
11056TIP3   OH254658   2.969   2.225   6.634  0.5130  0.1344 -0.4988
11056TIP3    H154659   2.910   2.171   6.581 -0.0580  0.5242 -0.2721
11056TIP3    H254660   2.973   2.309   6.587  0.6114  0.2213 -0.3348
11057TIP3   OH254661   2.934   0.229  13.495 -1.1333 -0.7658 -0.5488
11057TIP3    H154662   2.861   0.186  13.451 -2.0899 -1.4312  1.6280
11057TIP3    H254663   2.931   0.196  13.585  1.7106 -0.6311 -0.3563
11058TIP3   OH254664   1.982   3.575   6.474  0.3071 -0.0139  0.7953
11058TIP3    H154665   1.902   3.567   6.423  1.6755 -2.7312 -1.0196
11058TIP3    H254666   2.034   3.499   6.450  3.8047  2.0850  1.3148
11059TIP3   OH254667   0.246   3.066   2.738  0.2004  0.1586 -0.4777
11059TIP3    H154668   0.256   2.978   2.775  0.7970 -0.0225 -1.0589
11059TIP3    H254669   0.231   3.122   2.814  2.4180 -0.0600  0.1585
11060TIP3   OH254670   5.542   3.513  12.676  0.0849  0.5526  0.0592
11060TIP3    H154671   5.477   3.450  12.644  1.5904 -0.4635 -1.0898
11060TIP3    H254672   5.496   3.597  12.678 -0.7668  0.1855 -2.4215
11061TIP3   OH254673   3.673   2.035   5.144  0.5014 -0.0949 -0.0977
11061TIP3    H154674   3.657   1.944   5.120  0.1295 -0.1516  0.3593
11061TIP3    H254675   3.597   2.060   5.196 -0.6603  1.2896 -2.3924
11062TIP3   OH254676   4.121   6.228   5.942  0.2448 -0.3595  0.2671
11062TIP3    H154677   4.154   6.217   5.853  0.3326 -0.5648  0.3246
11062TIP3    H254678   4.135   6.320   5.962 -1.1632  0.0378 -0.4899
11063TIP3   OH254679   1.833   0.114  13.468  0.0535  0.3134  0.3472
11063TIP3    H154680   1.747   0.148  13.444 -0.6186 -0.8083  1.1581
11063TIP3    H254681   1.864   0.174  13.536  0.3541  1.2940 -0.6297
11064TIP3   OH254682   1.750   1.014   1.912  0.0567 -0.0785 -0.3886
11064TIP3    H154683   1.745   1.030   2.006 -0.0867  0.3896 -0.4744
11064TIP3    H254684   1.672   1.056   1.876  0.1750 -0.1499 -0.7318
11065TIP3   OH254685   2.678   1.015  16.352  0.0080  0.5579 -0.2469
11065TIP3    H154686   2.694   1.085  16.288  1.0420 -0.3068 -0.9399
11065TIP3    H254687   2.631   0.948  16.303 -2.0224  1.2528  0.7171
11066TIP3   OH254688   4.208   1.003   5.493 -0.1454 -0.1844 -0.8704
11066TIP3    H154689   4.255   0.999   5.410  1.0351  1.8046 -0.3193
11066TIP3    H254690   4.272   1.039   5.555 -1.2204 -1.0008  0.7632
11067TIP3   OH254691   6.531   0.077  13.761 -0.0340  0.3154 -0.3979
11067TIP3    H154692   6.599   0.143  13.752  1.1142 -0.6969  0.6093
11067TIP3    H254693   6.549   0.036  13.846 -2.6135  0.8213  0.4333
11068TIP3   OH254694   3.481   6.704   1.586 -0.9952 -0.1129  0.2243
11068TIP3    H154695   3.387   6.707   1.604 -1.1369  0.2980 -0.5647
11068TIP3    H254696   3.506   6.614   1.605 -1.7877 -0.5502 -0.7469
11069TIP3   OH254697   6.801   5.685   4.177 -0.2053 -0.4696 -0.2643
11069TIP3    H154698   6.727   5.679   4.117 -1.8400  3.2404  1.2628
11069TIP3    H254699   6.764   5.661   4.263  0.7850 -0.3329  0.2069
11070TIP3   OH254700   6.555   6.370  13.432 -0.1407  0.5055  0.2419
11070TIP3    H154701   6.484   6.409  13.484 -1.3257  1.6250 -2.1451
11070TIP3    H254702   6.519   6.362  13.344  1.8338 -1.3625 -0.4412
11071TIP3   OH254703   4.497   5.207  11.981  0.1085  0.1737 -0.6796
11071TIP3    H154704   4.458   5.227  11.896  0.0524  1.7176 -0.3185
11071TIP3    H254705   4.460   5.274  12.040  0.5260 -0.5727  0.4428
11072TIP3   OH254706   2.339   3.962  12.763  0.2261 -0.3309 -0.4311
11072TIP3    H154707   2.296   4.037  12.805  2.5323 -1.0035  3.3879
11072TIP3    H254708   2.361   3.993  12.675 -3.0024  1.8582 -0.5344
11073TIP3   OH254709   5.014   5.804  14.183 -0.1895 -0.3208  0.1157
11073TIP3    H154710   5.044   5.751  14.109 -0.8834 -0.4877 -0.0514
11073TIP3    H254711   4.992   5.739  14.251  0.1515 -0.1833  0.3582
11074TIP3   OH254712   6.069   3.988  13.162  0.1266  0.1904 -0.4298
11074TIP3    H154713   6.027   3.971  13.078 -1.1940  1.9450 -0.1655
11074TIP3    H254714   6.087   4.082  13.161  0.9829  0.0583  0.8579
11075TIP3   OH254715   1.098   4.769  12.675 -0.1473  0.3571 -0.5370
11075TIP3    H154716   1.040   4.776  12.598  0.2475 -0.0872 -0.8736
11075TIP3    H254717   1.156   4.696  12.655  2.5329  2.6623 -1.5435
11076TIP3   OH254718   0.482   3.377   1.055  0.1875  0.3516  0.0072
11076TIP3    H154719   0.547   3.328   1.005 -1.1967 -1.3678 -0.1631
11076TIP3    H254720   0.489   3.343   1.144  0.4596  1.1385  0.2912
11077TIP3   OH254721   1.399   1.249   1.513  0.1081  0.4372  0.3921
11077TIP3    H154722   1.374   1.157   1.506  1.2039  0.2753 -2.1202
11077TIP3    H254723   1.345   1.294   1.448 -0.1205  1.5084  1.3044
11078TIP3   OH254724   2.401   6.180   3.464 -0.5247  0.0479  0.1697
11078TIP3    H154725   2.495   6.185   3.479 -0.9413  1.1975  2.7342
11078TIP3    H254726   2.378   6.089   3.483  0.3146 -0.6957 -2.2389
11079TIP3   OH254727   6.725   0.418  12.601  0.2603 -0.1387 -0.7638
11079TIP3    H154728   6.763   0.374  12.678 -1.6804 -0.2552  0.1617
11079TIP3    H254729   6.800   0.434  12.544  1.7379 -0.1978  1.0809
11080TIP3   OH254730   4.510   6.751   5.234 -0.1339  0.0027 -0.2991
11080TIP3    H154731   4.489   6.685   5.300  1.9599  0.3202  0.7206
11080TIP3    H254732   4.440   6.817   5.243 -2.4665 -2.2085 -1.6010
11081TIP3   OH254733   0.419   0.663   2.871  0.3003  0.3933  0.0940
11081TIP3    H154734   0.374   0.682   2.789  1.0036  1.0081 -0.1608
11081TIP3    H254735   0.411   0.568   2.881 -1.9050  0.6066  0.5801
11082TIP3   OH254736   3.968   3.571   3.187 -0.2132 -0.1533  0.1068
11082TIP3    H154737   4.063   3.585   3.194 -0.4409  1.0666  0.9245
11082TIP3    H254738   3.944   3.605   3.101  0.0386 -0.2097  0.0137
11083TIP3   OH254739   4.981   1.088   4.996  0.0915 -0.2751 -0.6112
11083TIP3    H154740   4.993   1.133   4.912  0.3513 -0.4644 -0.6768
11083TIP3    H254741   5.065   1.046   5.013  1.3334  2.9492  1.6524
11084TIP3   OH254742   2.567   0.623   0.122  0.0659  0.3955 -0.9837
11084TIP3    H154743   2.597   0.536   0.095 -1.0237 -0.3549  0.1516
11084TIP3    H254744   2.582   0.624   0.217 -1.2923  0.8929 -0.7715
11085TIP3   OH254745   5.308   2.479  15.802  0.3788  0.1238 -0.6499
11085TIP3    H154746   5.288   2.390  15.773 -0.9335  0.4033 -0.6047
11085TIP3    H254747   5.404   2.479  15.812  0.2792 -1.6941  0.7279
11086TIP3   OH254748   1.261   3.784   0.305  0.4313 -0.1409  0.0549
11086TIP3    H154749   1.293   3.696   0.283  3.0313  0.7637  0.1225
11086TIP3    H254750   1.318   3.843   0.257 -1.3849  1.5241 -0.0765
11087TIP3   OH254751   6.354   6.659  16.996  0.0166  0.1738  0.2630
11087TIP3    H154752   6.360   6.665  16.901  0.1278 -0.3227  0.2383
11087TIP3    H254753   6.412   6.586  17.019  0.0948  0.3767  0.7234
11088TIP3   OH254754   1.861   6.384  16.144  0.7364  0.4125  0.7730
11088TIP3    H154755   1.905   6.412  16.224  1.9557  0.8123 -0.0200
11088TIP3    H254756   1.780   6.435  16.142  1.5211  1.6732  0.8805
11089TIP3   OH254757   1.415   4.149   2.264 -0.2760  0.6064  0.4559
11089TIP3    H154758   1.493   4.171   2.213 -0.0375  0.3511  0.7066
11089TIP3    H254759   1.422   4.202   2.343  0.1806 -0.1749  0.9538
11090TIP3   OH254760   6.502   5.747  10.823  0.2743  0.2002 -0.2611
11090TIP3    H154761   6.485   5.771  10.732  1.8387  0.4516 -0.4996
11090TIP3    H254762   6.428   5.692  10.848  1.3399 -2.3859 -2.6240
11091TIP3   OH254763   2.206   3.535   3.557  0.1715  0.1212  0.4657
11091TIP3    H154764   2.154   3.613   3.573 -0.3254  0.4993 -2.7702
11091TIP3    H254765   2.297   3.565   3.562 -0.0208  1.0682 -1.4095
11092TIP3   OH254766   6.725   6.313   0.905  0.0288 -0.5951  0.4674
11092TIP3    H154767   6.653   6.366   0.941  1.7328  0.6952  2.0342
11092TIP3    H254768   6.727   6.235   0.960  0.1080 -0.4391  0.6830
11093TIP3   OH254769   5.197   5.146   4.293  0.1807 -0.0025 -0.4586
11093TIP3    H154770   5.121   5.171   4.241 -0.3825 -2.5703 -0.9507
11093TIP3    H254771   5.240   5.078   4.241  1.9816  0.3754  0.5057
11094TIP3   OH254772   6.477   2.376   2.487  0.3975 -0.3586  0.2176
11094TIP3    H154773   6.467   2.281   2.491  0.9844 -0.3873  1.0653
11094TIP3    H254774   6.464   2.405   2.577  2.1769  0.1786  0.3093
11095TIP3   OH254775   4.350   1.381   1.744 -0.1830 -0.1754 -0.3020
11095TIP3    H154776   4.378   1.290   1.755 -0.3334 -0.0900  0.8179
11095TIP3    H254777   4.429   1.427   1.714  0.7916 -0.0258  2.3990
11096TIP3   OH254778   5.812   5.591  10.835  0.1757 -0.1650  0.1788
11096TIP3    H154779   5.806   5.495  10.832 -0.8887 -0.0762 -1.1126
11096TIP3    H254780   5.906   5.609  10.839  0.3789 -1.2632  0.6991
11097TIP3   OH254781   1.831   6.000  16.245 -0.0191 -0.1073 -0.0785
11097TIP3    H154782   1.807   6.084  16.205  2.9246  0.4729 -0.7856
11097TIP3    H254783   1.755   5.944  16.232 -1.8806  2.2983 -0.0021
11098TIP3   OH254784   2.790   3.141   3.455 -0.5107 -0.6953 -0.8135
11098TIP3    H154785   2.745   3.079   3.398 -1.0815  0.0941 -1.2400
11098TIP3    H254786   2.824   3.088   3.527 -0.4334 -1.5874 -1.5050
11099TIP3   OH254787   1.333   5.756  13.815  0.2658 -0.6498 -0.1420
11099TIP3    H154788   1.393   5.825  13.844 -1.7847  0.7124  0.9922
11099TIP3    H254789   1.296   5.789  13.733  0.6360 -1.2338 -0.5480
11100TIP3   OH254790   2.614   2.528   3.627 -0.2506  0.2443  0.3850
11100TIP3    H154791   2.622   2.484   3.711 -0.5663  1.4627  1.0667
11100TIP3    H254792   2.675   2.482   3.569 -1.0209 -1.4526  0.9090
11101TIP3   OH254793   5.810   3.966   0.893  0.1153  0.6806 -0.2198
11101TIP3    H154794   5.774   4.005   0.972 -2.2016 -0.4333 -0.6605
11101TIP3    H254795   5.767   4.013   0.821 -0.1999 -0.4240 -0.7708
11102TIP3   OH254796   5.990   3.225  11.180  1.1582 -0.3985  0.1050
11102TIP3    H154797   5.900   3.195  11.196  0.2470  1.5528 -1.2192
11102TIP3    H254798   6.029   3.156  11.126  0.3677 -1.0913  0.4045
11103TIP3   OH254799   1.567   6.502  15.803 -0.1198 -0.0740  0.2746
11103TIP3    H154800   1.652   6.463  15.824 -0.9284 -1.1218  1.7099
11103TIP3    H254801   1.515   6.429  15.768 -1.1334  0.0417  1.5017
11104TIP3   OH254802   3.315   6.746   3.881  0.1545  0.1032 -0.8251
11104TIP3    H154803   3.290   6.775   3.968 -1.2564 -0.9823 -0.8519
11104TIP3    H254804   3.356   6.660   3.896 -2.5767 -1.3505 -1.4784
11105TIP3   OH254805   1.620   5.136   4.759 -1.1917  0.3803 -0.0388
11105TIP3    H154806   1.527   5.152   4.775 -1.5119  0.3032 -1.7740
11105TIP3    H254807   1.638   5.180   4.676 -0.2030 -1.4605 -0.8240
11106TIP3   OH254808   2.165   4.195   6.234  0.0157  0.4338 -0.3234
11106TIP3    H154809   2.097   4.151   6.284 -0.9536  1.5695 -0.6380
11106TIP3    H254810   2.235   4.130   6.226 -0.8197 -0.5598  0.4237
11107TIP3   OH254811   2.014   1.544  16.939  0.1790 -0.4672 -0.2073
11107TIP3    H154812   2.004   1.609  16.870  4.3043  0.3353 -0.2007
11107TIP3    H254813   2.008   1.595  17.021 -0.5767 -0.7661 -0.0691
11108TIP3   OH254814   0.653   5.808  14.476 -0.2180  0.3245 -0.3327
11108TIP3    H154815   0.636   5.868  14.403  0.2609 -0.2582 -0.9295
11108TIP3    H254816   0.620   5.854  14.553 -0.4761  1.0642 -0.8781
11109TIP3   OH254817   3.787   5.162  16.241 -0.2167 -0.5552 -0.1918
11109TIP3    H154818   3.791   5.236  16.180  1.2837 -0.7884 -0.3968
11109TIP3    H254819   3.832   5.090  16.195  1.5129 -0.5552  1.4207
11110TIP3   OH254820   2.308   4.600   1.769  0.8018  0.7111 -0.1564
11110TIP3    H154821   2.327   4.517   1.813 -0.3360  0.1437 -0.7249
11110TIP3    H254822   2.297   4.663   1.840  0.3725  0.0966  0.3247
11111TIP3   OH254823   3.798   3.927  16.960 -0.5230  0.1950 -0.5157
11111TIP3    H154824   3.810   3.907  16.867  0.0868  2.2618 -0.9084
11111TIP3    H254825   3.733   3.997  16.962 -1.1069 -0.3688  0.6726
11112TIP3   OH254826   0.006   2.469  15.694  0.3480  0.4841  0.4118
11112TIP3    H154827   0.003   2.375  15.712 -0.7064  0.2954 -0.6666
11112TIP3    H254828  -0.066   2.505  15.745 -0.3793  0.4491 -0.5802
11113TIP3   OH254829   1.342   6.344  15.876  0.0618 -0.6011  0.3017
11113TIP3    H154830   1.339   6.251  15.852  1.8598  0.0167 -2.4805
11113TIP3    H254831   1.258   6.379  15.847 -0.0153 -1.0292  0.0018
11114TIP3   OH254832   0.844   5.391   5.334 -0.7568 -0.5960 -0.5189
11114TIP3    H154833   0.872   5.460   5.274 -0.9161  0.5674  0.7217
11114TIP3    H254834   0.905   5.319   5.319  1.9152  1.2715  0.9543
11115TIP3   OH254835   6.535   2.494  15.095 -0.3148  0.0718  0.0032
11115TIP3    H154836   6.454   2.467  15.139 -0.8833  0.2945 -0.9010
11115TIP3    H254837   6.512   2.575  15.050  0.1134 -0.4683 -1.1839
11116TIP3   OH254838   6.719   6.511   5.035  0.5695  0.3475 -0.4185
11116TIP3    H154839   6.682   6.429   5.003  0.1555 -0.0178  0.9666
11116TIP3    H254840   6.686   6.578   4.975 -1.9290 -0.0323  0.4921
11117TIP3   OH254841   3.743   0.529  13.841 -0.5516 -0.3568  0.1359
11117TIP3    H154842   3.823   0.493  13.803 -0.1066  0.8704 -0.1038
11117TIP3    H254843   3.764   0.620  13.861 -1.2023 -0.5932  2.0524
11118TIP3   OH254844   2.951   3.281  12.346  0.9617  0.2721 -0.0354
11118TIP3    H154845   2.887   3.223  12.305 -0.0351 -0.5528  2.5744
11118TIP3    H254846   2.923   3.369  12.322  0.9012 -0.1998 -1.7717
11119TIP3   OH254847   5.905   3.425   1.077  0.0665 -0.1709  0.8917
11119TIP3    H154848   5.838   3.494   1.075  1.3423  1.2266  2.9455
11119TIP3    H254849   5.856   3.343   1.078 -1.6242  0.8162  2.0172
11120TIP3   OH254850   0.129   2.309  11.750  0.2110 -0.2181 -0.4840
11120TIP3    H154851   0.082   2.392  11.742 -1.1790 -1.0390 -1.1182
11120TIP3    H254852   0.117   2.283  11.841 -0.0258 -0.1066 -0.4827
11121TIP3   OH254853   1.813   1.531   4.605 -0.8785  0.4052 -0.0596
11121TIP3    H154854   1.838   1.608   4.554 -0.9869 -0.0775 -0.8577
11121TIP3    H254855   1.881   1.466   4.587 -2.6200 -0.8949 -2.2096
11122TIP3   OH254856   5.061   5.510   3.653 -0.1229 -0.0909  0.4407
11122TIP3    H154857   5.128   5.487   3.718 -0.1882 -0.3802  0.4055
11122TIP3    H254858   5.075   5.604   3.636  1.0552 -0.4177 -0.4715
11123TIP3   OH254859   3.883   4.812   5.815  0.0926  0.2194  0.2984
11123TIP3    H154860   3.913   4.900   5.794 -0.5899  0.9694  2.3536
11123TIP3    H254861   3.940   4.785   5.888  0.9833 -1.4531 -0.9776
11124TIP3   OH254862   4.869   0.543  14.079  0.7396  0.1357 -0.5688
11124TIP3    H154863   4.923   0.546  14.158  1.1334 -0.5433 -0.8102
11124TIP3    H254864   4.919   0.488  14.018 -0.5626 -1.1156 -0.5302
11125TIP3   OH254865   2.662   0.835   3.537  0.7839  0.3183 -0.5315
11125TIP3    H154866   2.655   0.739   3.540  0.5678  0.3466 -0.1805
11125TIP3    H254867   2.694   0.860   3.623 -0.7915  0.7065 -0.0524
11126TIP3   OH254868   6.049   6.631  17.087  0.1856 -0.4931 -0.2430
11126TIP3    H154869   6.143   6.644  17.080  0.2520 -0.6252  0.4051
11126TIP3    H254870   6.039   6.553  17.141 -0.3175  0.3920  0.9751
11127TIP3   OH254871   1.640   2.777   2.645  0.1130  0.2782  0.0827
11127TIP3    H154872   1.611   2.767   2.555 -0.8513 -1.4009  0.5500
11127TIP3    H254873   1.559   2.781   2.696  0.6575 -0.6839  1.0495
11128TIP3   OH254874   6.660   2.601   0.442 -0.1402 -0.4444 -1.0972
11128TIP3    H154875   6.723   2.534   0.467 -0.9523 -0.1983  1.7667
11128TIP3    H254876   6.575   2.557   0.444 -0.3652 -0.0783 -2.1874
11129TIP3   OH254877   3.197   2.627  13.680 -0.5727 -0.2373  0.2870
11129TIP3    H154878   3.227   2.544  13.643  1.9330  1.2095 -1.1161
11129TIP3    H254879   3.221   2.623  13.772 -0.3223 -1.0227  0.1903
11130TIP3   OH254880   1.673   1.455   4.184 -0.2443  0.8125 -0.2713
11130TIP3    H154881   1.663   1.550   4.182 -0.2067  0.8457  0.6159
11130TIP3    H254882   1.698   1.431   4.095 -2.8976  1.3407 -1.2085
11131TIP3   OH254883   6.730   1.259  12.784 -0.3808 -0.1616 -0.1285
11131TIP3    H154884   6.772   1.248  12.870 -1.4306  0.7782  0.5317
11131TIP3    H254885   6.740   1.352  12.765  0.0320 -0.4079 -1.1385
11132TIP3   OH254886   3.001   5.217   0.739  0.0509 -0.0085  0.2781
11132TIP3    H154887   2.957   5.265   0.809  0.5748 -0.8500  1.1874
11132TIP3    H254888   3.093   5.217   0.763  0.2372 -0.3117 -0.4152
11133TIP3   OH254889   1.976   5.692  10.641  0.4458  0.1807  0.2205
11133TIP3    H154890   2.037   5.631  10.682 -0.5791  0.1320  1.7161
11133TIP3    H254891   1.889   5.656  10.659 -0.0769  0.8043 -0.9742
11134TIP3   OH254892   2.695   3.080   5.736 -0.0179 -0.1235  0.2251
11134TIP3    H154893   2.637   3.004   5.743 -0.2829  0.0390 -0.1651
11134TIP3    H254894   2.739   3.085   5.821  0.2564 -0.9149  0.1356
11135TIP3   OH254895   1.250   2.735  11.398  0.2654 -0.1810 -0.2811
11135TIP3    H154896   1.207   2.753  11.315 -2.5130 -1.0940  0.8879
11135TIP3    H254897   1.305   2.658  11.382  0.0829 -0.0838 -1.3676
11136TIP3   OH254898   3.907   1.665   5.656 -0.0752  0.3235  0.3850
11136TIP3    H154899   3.869   1.579   5.673 -1.8927  0.6479 -1.8485
11136TIP3    H254900   3.987   1.646   5.607 -0.4863 -0.0977 -0.1307
11137TIP3   OH254901   6.418   2.618  12.255 -0.0551 -0.0776 -0.3196
11137TIP3    H154902   6.391   2.634  12.345 -0.5641  1.1867 -0.6854
11137TIP3    H254903   6.502   2.663  12.247 -0.6058  0.8851 -0.8219
11138TIP3   OH254904   2.727   3.964  13.850  0.3339 -0.5736 -0.0234
11138TIP3    H154905   2.777   3.885  13.831 -0.8034 -1.1097 -0.8194
11138TIP3    H254906   2.713   3.961  13.945  4.4887  1.2088  0.7573
11139TIP3   OH254907   4.478   0.334  11.446  0.9050  0.6269 -0.6009
11139TIP3    H154908   4.395   0.286  11.442  0.6228  0.9729  1.1690
11139TIP3    H254909   4.532   0.293  11.378  0.2036 -1.3481  0.0064
11140TIP3   OH254910   6.807   5.550   3.060 -0.4916 -0.0585 -0.5512
11140TIP3    H154911   6.785   5.458   3.047 -1.0983 -0.0435  0.2794
11140TIP3    H254912   6.777   5.569   3.149  0.0216  0.8265 -0.5627
11141TIP3   OH254913   6.649   0.322  13.708  0.6457 -0.3318  0.0578
11141TIP3    H154914   6.711   0.342  13.638 -1.7280 -2.9635 -2.9201
11141TIP3    H254915   6.588   0.396  13.708  0.8846 -0.1306 -0.3756
11142TIP3   OH254916   1.709   3.852   3.275 -0.1343 -0.0122 -0.0101
11142TIP3    H154917   1.733   3.820   3.362 -0.4030 -1.9238 -0.6119
11142TIP3    H254918   1.671   3.775   3.231 -1.2936  1.2829 -1.3233
11143TIP3   OH254919   0.357   0.695  16.777 -0.3490  0.0927  0.3918
11143TIP3    H154920   0.326   0.606  16.794  0.5004 -0.5676 -1.3697
11143TIP3    H254921   0.278   0.747  16.769 -0.9211 -0.9379 -0.7635
11144TIP3   OH254922   2.517   2.164   4.394 -0.3348 -0.2435  0.1107
11144TIP3    H154923   2.592   2.169   4.453 -0.2730  0.4492 -0.0195
11144TIP3    H254924   2.554   2.134   4.311 -0.6192 -2.4999  0.7472
11145TIP3   OH254925   6.448   1.794   1.912  0.2601 -0.3077 -0.0439
11145TIP3    H154926   6.431   1.778   1.819 -0.8720  0.2363  0.0646
11145TIP3    H254927   6.399   1.873   1.933  1.0697 -0.0290  0.8567
11146TIP3   OH254928   5.499   5.764  16.352 -0.2119  0.1644 -0.5589
11146TIP3    H154929   5.537   5.792  16.435 -1.1580 -1.6934  0.5278
11146TIP3    H254930   5.448   5.686  16.374  0.2794 -0.9007 -3.0525
11147TIP3   OH254931   0.908   3.760  12.278  0.6490 -0.3807 -0.1165
11147TIP3    H154932   0.827   3.782  12.325  0.0049 -1.4329 -0.7137
11147TIP3    H254933   0.939   3.680  12.321  1.3506 -0.0110  0.0731
11148TIP3   OH254934   3.610   4.764   5.802  0.5265  0.3035 -0.0377
11148TIP3    H154935   3.574   4.718   5.726  0.9285 -0.4392  0.2240
11148TIP3    H254936   3.704   4.748   5.798  0.3678 -1.1468  1.5489
11149TIP3   OH254937   2.734   6.132  14.824 -0.1285 -0.0311  0.2770
11149TIP3    H154938   2.667   6.122  14.891  1.0323 -2.0375  1.2093
11149TIP3    H254939   2.784   6.209  14.851 -0.4900 -0.0396  0.9837
11150TIP3   OH254940   0.742   4.666  15.937  0.5234 -0.5818 -0.1098
11150TIP3    H154941   0.708   4.625  15.858 -0.1306  0.2021 -0.2298
11150TIP3    H254942   0.800   4.599  15.975 -1.5550 -2.1458  0.4098
11151TIP3   OH254943   1.202   1.672  14.158  0.6232  0.6808  0.4011
11151TIP3    H154944   1.143   1.603  14.189  1.3542 -0.0188  0.2347
11151TIP3    H254945   1.161   1.704  14.078  0.7714 -0.1957 -0.0268
11152TIP3   OH254946   4.735   1.921  13.561  1.0877  0.6086 -0.1046
11152TIP3    H154947   4.749   1.846  13.618  0.8925  0.1668 -0.6246
11152TIP3    H254948   4.822   1.945  13.530  1.2462  1.1468  0.7409
11153TIP3   OH254949   0.384   0.188   4.435 -0.0266 -0.6535 -0.1344
11153TIP3    H154950   0.363   0.229   4.351  1.2566 -0.0032 -0.1424
11153TIP3    H254951   0.318   0.223   4.496 -0.0941 -0.0383 -0.5611
11154TIP3   OH254952   4.040   0.358   5.147 -0.1164 -0.3825 -0.1606
11154TIP3    H154953   3.978   0.348   5.220  0.3183  1.4432  0.4906
11154TIP3    H254954   3.990   0.337   5.069 -0.5950 -2.3826  0.6594
11155TIP3   OH254955   3.992   5.166   3.047 -0.3076  0.0327 -0.3007
11155TIP3    H154956   4.038   5.087   3.019  0.5789  0.1254  0.8556
11155TIP3    H254957   4.061   5.233   3.052 -1.1791  1.1310 -2.1204
11156TIP3   OH254958   4.200   3.341  17.119  0.7430 -0.3454  0.3204
11156TIP3    H154959   4.286   3.381  17.128 -0.1018  2.1257 -1.8659
11156TIP3    H254960   4.147   3.383  17.186  0.0036  1.8821 -1.6005
11157TIP3   OH254961   4.069   3.766  16.571  0.7619  0.9187 -0.1715
11157TIP3    H154962   4.125   3.790  16.645  1.5093  2.3933 -1.2036
11157TIP3    H254963   4.068   3.843  16.515  0.5201 -0.3105 -1.9107
11158TIP3   OH254964   3.426   5.474   1.831 -0.0242  0.0170 -0.2867
11158TIP3    H154965   3.381   5.390   1.841  0.5473 -0.3547 -0.8202
11158TIP3    H254966   3.445   5.501   1.921 -0.3012 -0.3792 -0.1059
11159TIP3   OH254967   2.311   5.302  15.749  0.2408 -0.6423 -0.5184
11159TIP3    H154968   2.291   5.392  15.726  1.9845 -0.2256 -0.4987
11159TIP3    H254969   2.237   5.274  15.803  0.0303  1.0116  0.0879
11160TIP3   OH254970   3.696   5.308   1.943  0.1281  0.5220  0.1601
11160TIP3    H154971   3.725   5.321   2.034 -0.1531 -1.1803  0.5030
11160TIP3    H254972   3.649   5.389   1.922 -0.9962  0.3913  2.0164
11161TIP3   OH254973   5.235   4.962  12.757 -0.7188 -0.2887  0.2479
11161TIP3    H154974   5.254   5.037  12.814 -0.1025 -1.0597  1.0609
11161TIP3    H254975   5.320   4.935  12.723 -1.2666  1.4751 -2.7454
11162TIP3   OH254976   6.804   5.730   4.622 -0.6504  0.0759 -0.2826
11162TIP3    H154977   6.803   5.641   4.655 -0.5265  0.3260  0.4056
11162TIP3    H254978   6.891   5.741   4.584 -1.1211 -0.5258 -1.5884
11163TIP3   OH254979   5.301   2.388  12.424 -0.3555 -0.2185 -0.7785
11163TIP3    H154980   5.219   2.344  12.447 -0.0225 -0.1155  0.6401
11163TIP3    H254981   5.284   2.427  12.339 -1.9995  0.3145 -0.2187
11164TIP3   OH254982   0.096   4.182  12.047 -0.0934  0.2697 -0.0657
11164TIP3    H154983   0.141   4.099  12.037 -2.1310 -0.7778 -1.0011
11164TIP3    H254984   0.075   4.209  11.957 -1.7835  0.4209  0.3420
11165TIP3   OH254985   6.038   6.126  11.424  0.0544  0.0762  0.3951
11165TIP3    H154986   5.948   6.150  11.447 -0.0297  1.0179 -0.9010
11165TIP3    H254987   6.071   6.200  11.373  1.0732 -0.9111 -0.4115
11166TIP3   OH254988   0.368   5.620  11.377 -0.3757  0.0894  0.3380
11166TIP3    H154989   0.401   5.661  11.297 -0.5298  0.1514  0.3051
11166TIP3    H254990   0.337   5.694  11.430 -1.0841 -0.0122  0.0816
11167TIP3   OH254991   3.156   5.125   5.838  0.1182  0.0027 -0.1577
11167TIP3    H154992   3.156   5.030   5.826  0.2868 -0.0570  0.3030
11167TIP3    H254993   3.065   5.152   5.827 -0.7459 -0.7865  4.2023
11168TIP3   OH254994   0.798   6.720   4.363  0.5821 -0.1466  0.2481
11168TIP3    H154995   0.732   6.770   4.411 -1.6905  0.5262 -3.3774
11168TIP3    H254996   0.765   6.630   4.363  0.0510  0.0369 -0.8461
11169TIP3   OH254997   5.175   2.900  15.688 -0.1004  0.5472  0.1740
11169TIP3    H154998   5.245   2.903  15.622  0.2508  0.5412  0.5404
11169TIP3    H254999   5.165   2.807  15.707  1.2496  0.6768  1.6425
11170TIP3   OH255000   4.072   0.856  12.271  0.2066  0.2455 -0.1963
11170TIP3    H155001   4.037   0.945  12.264 -1.3620 -0.4529 -1.6367
11170TIP3    H255002   4.131   0.859  12.346  1.6398  2.9811 -1.3731
11171TIP3   OH255003   3.067   0.672  12.389  0.1877 -0.1005  0.4764
11171TIP3    H155004   3.080   0.682  12.294  0.3600  1.9044  0.6851
11171TIP3    H255005   3.146   0.710  12.428 -0.9344  1.2547  1.4729
11172TIP3   OH255006   4.700   0.795   0.641  0.3146  0.1477 -0.3671
11172TIP3    H155007   4.682   0.883   0.675 -1.6968 -0.4634  0.2515
11172TIP3    H255008   4.626   0.742   0.672  0.7959 -1.4606 -1.8687
11173TIP3   OH255009   5.149   6.372  13.109 -0.0738  0.1444  0.4685
11173TIP3    H155010   5.173   6.280  13.120  0.7101  0.4831  1.7782
11173TIP3    H255011   5.101   6.375  13.026 -1.7735 -1.7553  1.3274
11174TIP3   OH255012   3.560   4.370  11.771 -0.1794  0.5027 -0.4385
11174TIP3    H155013   3.608   4.369  11.854 -1.4461 -1.7703  0.2987
11174TIP3    H255014   3.629   4.371  11.704  0.8694 -0.0803  0.6085
11175TIP3   OH255015   3.202   4.464   1.584  0.0012  0.1981  0.4331
11175TIP3    H155016   3.110   4.486   1.568 -0.4684 -1.9660 -0.0122
11175TIP3    H255017   3.205   4.368   1.578  2.3212  0.2587  0.2618
11176TIP3   OH255018   2.301   6.740   3.379 -0.4319 -0.1997 -0.2867
11176TIP3    H155019   2.296   6.644   3.382 -1.0828 -0.1905 -0.9071
11176TIP3    H255020   2.270   6.763   3.291  0.1116  0.5614 -0.2880
11177TIP3   OH255021   2.284   4.063  12.155 -0.4861 -0.6128  0.1815
11177TIP3    H155022   2.283   4.158  12.168 -0.4404 -0.7820  1.4065
11177TIP3    H255023   2.349   4.050  12.085  0.2730  0.1597  0.7314
11178TIP3   OH255024   4.999   3.962  13.804  0.3709  0.4762 -0.6915
11178TIP3    H155025   4.948   3.912  13.740  0.4861  0.2729 -0.6234
11178TIP3    H255026   5.089   3.929  13.794  0.6118  1.2696 -1.2576
11179TIP3   OH255027   2.507   2.807  13.908 -0.0906  0.3237 -0.1697
11179TIP3    H155028   2.561   2.782  13.983 -1.4154 -0.6812  0.4708
11179TIP3    H255029   2.568   2.846  13.846  0.7966  2.4958  2.0379
11180TIP3   OH255030   5.990   2.715  10.905 -0.0268 -0.4543 -0.5240
11180TIP3    H155031   5.979   2.810  10.909  3.5686  0.0087  0.4955
11180TIP3    H255032   6.070   2.703  10.854  1.1907 -2.7536  1.8389
11181TIP3   OH255033   1.668   2.944   3.059  0.1286 -0.0250 -0.2238
11181TIP3    H155034   1.712   2.914   2.979 -0.3403 -1.8326  0.1788
11181TIP3    H255035   1.584   2.978   3.028 -0.4233 -1.5297 -0.4285
11182TIP3   OH255036   2.521   1.241   5.555 -0.1911 -0.0490 -0.4206
11182TIP3    H155037   2.475   1.234   5.472  0.3417 -0.9104 -0.6514
11182TIP3    H255038   2.578   1.164   5.558 -2.1593 -1.5078  1.9744
11183TIP3   OH255039   1.780   3.604  15.053  0.1372  0.1418  0.1059
11183TIP3    H155040   1.718   3.538  15.022 -1.1558  1.3766  0.0480
11183TIP3    H255041   1.747   3.630  15.138  0.6332  0.7320  0.1207
11184TIP3   OH255042   4.556   4.034  14.906 -0.3192  0.2322  0.3709
11184TIP3    H155043   4.569   4.063  14.816  0.4557 -0.0699  0.3789
11184TIP3    H255044   4.502   4.102  14.946 -1.8874 -0.3572 -0.7260
11185TIP3   OH255045   5.450   4.702   6.394 -0.0829  0.1089 -0.6984
11185TIP3    H155046   5.466   4.609   6.404 -0.7165 -0.0603 -1.2527
11185TIP3    H255047   5.533   4.744   6.417  0.1446 -0.5763 -0.2734
11186TIP3   OH255048   4.184   5.146  16.186 -0.2316 -0.2961 -0.6529
11186TIP3    H155049   4.254   5.175  16.127 -0.0398  0.8305  0.1204
11186TIP3    H255050   4.124   5.099  16.129 -0.0334  0.7507 -1.7566
11187TIP3   OH255051   6.115   3.099  11.423  0.2420 -0.5908  0.0878
11187TIP3    H155052   6.047   3.146  11.374  0.8354 -1.6350 -1.8003
11187TIP3    H255053   6.067   3.043  11.484 -0.5347  0.3435  0.3488
11188TIP3   OH255054   3.391   3.345   0.941 -1.2812  0.2989  0.2241
11188TIP3    H155055   3.383   3.350   0.846 -0.7658 -0.7039  0.1258
11188TIP3    H255056   3.320   3.288   0.969  0.5590 -2.1447  0.1001
11189TIP3   OH255057   4.430   5.420   3.858 -0.0169 -0.1469 -0.6601
11189TIP3    H155058   4.471   5.353   3.911 -0.6475 -0.4730 -0.5782
11189TIP3    H255059   4.474   5.414   3.773  0.5414 -0.0606 -0.3767
11190TIP3   OH255060   6.552   5.386   2.857  0.1977  0.4331 -0.4848
11190TIP3    H155061   6.466   5.413   2.887 -0.0818 -0.1016 -0.7980
11190TIP3    H255062   6.568   5.303   2.901 -0.2600 -0.4101 -1.8678
11191TIP3   OH255063   4.774   4.834  14.204  0.3031 -0.1242  0.0840
11191TIP3    H155064   4.832   4.764  14.235  0.3759 -0.5946 -1.0767
11191TIP3    H255065   4.778   4.828  14.109  1.2455  2.2509 -0.0562
11192TIP3   OH255066   3.812   1.545  14.170  0.7364 -0.3991  0.0576
11192TIP3    H155067   3.724   1.557  14.207  1.2095  0.9935  0.7650
11192TIP3    H255068   3.835   1.455  14.194  0.9038  0.3717  2.9337
11193TIP3   OH255069   0.925   1.244  11.899 -0.4341  0.4606  0.1977
11193TIP3    H155070   0.990   1.178  11.880 -1.2999  0.0422 -1.3484
11193TIP3    H255071   0.873   1.252  11.819 -2.1804  0.8969  1.3340
11194TIP3   OH255072   0.720   4.541   5.750  0.0913 -0.4304 -0.0988
11194TIP3    H155073   0.665   4.524   5.826  1.3681  0.4646  1.0561
11194TIP3    H255074   0.732   4.636   5.749  2.4072 -0.6938  0.2696
11195TIP3   OH255075   2.550   6.166   2.411 -0.3849 -0.2966 -0.2680
11195TIP3    H155076   2.570   6.226   2.340  0.9980  1.4044  1.4996
11195TIP3    H255077   2.483   6.212   2.463 -0.6895 -1.1040  0.0673
11196TIP3   OH255078   1.654   1.116   4.782 -0.1428 -0.1486  0.1369
11196TIP3    H155079   1.747   1.131   4.799  0.6474 -1.8975 -2.3601
11196TIP3    H255080   1.614   1.202   4.792  1.9008  0.8186  0.2941
11197TIP3   OH255081   4.396   4.459  11.642  0.0057  0.6268 -0.4747
11197TIP3    H155082   4.442   4.535  11.678 -2.0224  1.1536  1.0735
11197TIP3    H255083   4.304   4.476  11.659 -0.4628 -2.4369  0.4220
11198TIP3   OH255084   4.933   1.921  16.193 -0.6623 -0.0118  0.0563
11198TIP3    H155085   5.012   1.899  16.144 -0.0627  1.7986  0.1791
11198TIP3    H255086   4.913   1.842  16.244  1.4887 -0.2230  0.5977
11199TIP3   OH255087   6.594   0.149   1.824  0.6777  0.0460 -0.3198
11199TIP3    H155088   6.580   0.135   1.917 -1.1819  0.6761 -0.4853
11199TIP3    H255089   6.654   0.079   1.798  0.4178 -0.7308  1.1358
11200TIP3   OH255090   3.974   1.967  13.578  0.3802 -0.1430 -0.0830
11200TIP3    H155091   3.988   1.874  13.598 -1.9039 -0.7705 -1.1912
11200TIP3    H255092   3.906   1.994  13.638  0.0189  0.4288 -0.7497
11201TIP3   OH255093   5.799   6.450   3.662 -0.3853 -0.0155  0.2456
11201TIP3    H155094   5.822   6.474   3.572 -1.3862 -0.3758 -0.1134
11201TIP3    H255095   5.706   6.426   3.658 -0.2865 -0.6103  1.2648
11202TIP3   OH255096   4.270   2.450  15.727 -0.3193  0.0549 -0.6230
11202TIP3    H155097   4.219   2.411  15.798  1.6273 -0.1991  0.6768
11202TIP3    H255098   4.323   2.518  15.770  2.0126 -1.1327 -1.5416
11203TIP3   OH255099   5.990   0.938   0.681  0.5486 -0.4347  0.2744
11203TIP3    H155100   5.944   0.855   0.686  0.4617 -0.4260 -0.3208
11203TIP3    H255101   5.932   0.995   0.630  0.5699  0.0136  0.7480
11204TIP3   OH255102   4.677   6.758   1.464 -0.5841 -0.6911  0.3322
11204TIP3    H155103   4.658   6.728   1.553  1.2397  1.3743  1.4844
11204TIP3    H255104   4.595   6.798   1.434 -1.1376 -1.1712  1.1841
11205TIP3   OH255105   0.247   5.159   4.377 -0.1490  0.4870  0.4467
11205TIP3    H155106   0.264   5.082   4.431 -0.2876 -0.3393 -0.6788
11205TIP3    H255107   0.307   5.226   4.412 -1.5304  0.5462  2.8080
11206TIP3   OH255108   1.677   3.437  13.478 -0.0077 -0.7257 -0.2569
11206TIP3    H155109   1.625   3.501  13.525  1.0277 -0.5702  0.7037
11206TIP3    H255110   1.760   3.482  13.461 -0.0146 -1.1168 -1.3722
11207TIP3   OH255111   5.545   1.257  11.373 -0.2872 -0.1661 -0.0078
11207TIP3    H155112   5.596   1.333  11.346  1.1619 -1.0223  0.2779
11207TIP3    H255113   5.585   1.184  11.327 -3.0425 -0.4969 -2.0093
11208TIP3   OH255114   3.269   2.844  15.428  0.5672 -0.1996 -0.5628
11208TIP3    H155115   3.251   2.776  15.492  3.1081 -0.1179  0.2665
11208TIP3    H255116   3.250   2.803  15.343 -1.8812 -0.5928  0.1405
11209TIP3   OH255117   2.961   6.768  11.980 -0.3088 -0.0028 -0.5630
11209TIP3    H155118   3.024   6.696  11.978 -0.5550 -0.3544  2.2136
11209TIP3    H255119   2.896   6.745  11.913  0.8541 -1.1561 -1.3310
11210TIP3   OH255120   2.847   4.196  12.529  0.1763  0.0095 -0.3783
11210TIP3    H155121   2.860   4.280  12.573  1.2181  0.0574 -0.7498
11210TIP3    H255122   2.767   4.207  12.479  0.6078  0.9875 -0.8809
11211TIP3   OH255123   1.355   0.737  13.412  0.0926 -0.5662 -0.1992
11211TIP3    H155124   1.310   0.685  13.479 -0.9756 -1.2122 -1.3816
11211TIP3    H255125   1.397   0.671  13.356 -0.3161 -0.1114 -1.0496
11212TIP3   OH255126   2.326   6.024   5.220  0.2441  0.2798  0.1246
11212TIP3    H155127   2.260   6.091   5.241 -1.4931 -0.8889 -1.4688
11212TIP3    H255128   2.362   6.051   5.136 -1.3057 -1.3766 -1.1025
11213TIP3   OH255129   4.339   2.159   1.714  0.3577  0.2610  0.3878
11213TIP3    H155130   4.253   2.161   1.755  0.2649 -2.6964  0.4605
11213TIP3    H255131   4.400   2.185   1.784 -0.3264  0.7854  0.7897
11214TIP3   OH255132   5.610   1.981   5.555  0.1587 -0.0469  0.1895
11214TIP3    H155133   5.688   2.020   5.595 -0.4520 -0.3466  1.6934
11214TIP3    H255134   5.541   1.992   5.620 -0.7638 -0.8975 -0.6243
11215TIP3   OH255135   3.651   2.105  14.360  0.0691 -0.1711 -0.2925
11215TIP3    H155136   3.664   2.129  14.452  0.9564 -1.1580 -0.1471
11215TIP3    H255137   3.740   2.102  14.323 -0.1092 -1.9756 -0.6118
11216TIP3   OH255138   3.769   1.110  11.949 -0.0714 -0.5511 -0.4863
11216TIP3    H155139   3.679   1.091  11.923 -0.5344 -0.1881  0.8011
11216TIP3    H255140   3.814   1.132  11.867 -1.2573 -0.3455 -1.0897
11217TIP3   OH255141   6.583   0.496  13.106  0.0899 -0.3146 -0.1731
11217TIP3    H155142   6.567   0.456  13.191 -0.9798  2.2023  0.8822
11217TIP3    H255143   6.542   0.437  13.043 -0.3513 -1.4930  1.1964
11218TIP3   OH255144   4.195   3.830   6.283  0.6315 -0.4536  0.8095
11218TIP3    H155145   4.238   3.868   6.206 -0.2286  1.1494  1.0783
11218TIP3    H255146   4.203   3.897   6.351  0.5432 -1.4575  1.8319
11219TIP3   OH255147   0.012   1.867  12.116 -0.2586  0.1165  0.3675
11219TIP3    H155148   0.018   1.778  12.151 -0.5163  0.9376  2.5934
11219TIP3    H255149  -0.063   1.864  12.056 -2.0147 -0.5701  2.4920
11220TIP3   OH255150   1.590   2.250  13.898 -0.0031 -0.3816 -0.0389
11220TIP3    H155151   1.641   2.180  13.941 -1.0387 -0.9119  0.3417
11220TIP3    H255152   1.642   2.329  13.913  1.4087 -1.1311 -0.8588
11221TIP3   OH255153   6.656   2.012   4.841 -0.2828 -0.0693  0.3684
11221TIP3    H155154   6.620   2.090   4.883 -0.0727  0.0362  0.3546
11221TIP3    H255155   6.732   1.989   4.894  0.6014  0.6738 -0.5314
11222TIP3   OH255156   2.340   6.462   3.364  0.0117 -0.0859 -0.4062
11222TIP3    H155157   2.326   6.406   3.288 -1.4335  0.0508 -0.2571
11222TIP3    H255158   2.308   6.411   3.438  0.5678  0.1378 -0.0101
11223TIP3   OH255159   6.293   3.252  14.283 -0.2286 -0.0257 -0.0181
11223TIP3    H155160   6.236   3.268  14.358 -0.4550 -1.2794  0.0764
11223TIP3    H255161   6.279   3.161  14.259  2.1321 -0.5376  0.3552
11224TIP3   OH255162   0.311   5.518  16.203  0.6277 -0.0434 -0.1624
11224TIP3    H155163   0.374   5.449  16.180  1.1090  0.1954  0.4255
11224TIP3    H255164   0.315   5.523  16.298 -1.3764 -1.0466 -0.0130
11225TIP3   OH255165   5.467   0.597  16.700  0.4129 -0.2578 -0.3280
11225TIP3    H155166   5.548   0.587  16.650 -0.2704 -0.0171 -1.5141
11225TIP3    H255167   5.495   0.633  16.784  1.3707  1.5626 -1.3827
11226TIP3   OH255168   3.847   4.316  12.305  0.2365  0.1661 -0.2876
11226TIP3    H155169   3.776   4.253  12.318  1.7217 -1.7177 -1.0936
11226TIP3    H255170   3.835   4.381  12.375 -2.3088 -0.0626 -0.4594
11227TIP3   OH255171   0.657   2.830   2.380 -0.2061 -0.5489 -0.6157
11227TIP3    H155172   0.713   2.906   2.396 -1.1998 -0.1648  1.1860
11227TIP3    H255173   0.712   2.771   2.329  0.8013  1.0919 -1.4851
11228TIP3   OH255174   0.582   6.139   5.359 -0.3223 -0.3763  0.2062
11228TIP3    H155175   0.663   6.133   5.410  0.0692  0.7234 -0.2778
11228TIP3    H255176   0.543   6.222   5.385 -0.5862 -0.2416 -0.5873
11229TIP3   OH255177   2.355   4.935  16.951  0.2322 -0.2922 -0.5842
11229TIP3    H155178   2.398   4.851  16.963 -0.5052 -0.5429  0.3074
11229TIP3    H255179   2.267   4.923  16.987  0.3149  1.0363  0.0815
11230TIP3   OH255180   6.289   4.224  11.214  0.1710  0.1573  0.1249
11230TIP3    H155181   6.356   4.167  11.252 -1.4157 -0.1143  2.5885
11230TIP3    H255182   6.207   4.177  11.226 -0.5038  0.3441 -3.1394
11231TIP3   OH255183   0.149   2.110  11.987 -0.1955  0.3102  0.1981
11231TIP3    H155184   0.167   2.035  12.042 -0.4824 -0.3209 -0.5561
11231TIP3    H255185   0.158   2.186  12.045 -0.7585 -0.3586  1.1573
11232TIP3   OH255186   3.779   1.778  12.760  0.5833  0.5644 -0.1529
11232TIP3    H155187   3.866   1.744  12.778  0.1114 -0.2859  0.5571
11232TIP3    H255188   3.719   1.713  12.797 -0.3631  0.7998 -1.2371
11233TIP3   OH255189   0.468   1.399   3.035 -0.3919 -0.0302 -0.1975
11233TIP3    H155190   0.457   1.483   2.991 -0.0910  0.0402 -0.1388
11233TIP3    H255191   0.389   1.350   3.012  0.6503 -0.7142 -2.4075
11234TIP3   OH255192   4.258   5.877  15.017 -0.1641  0.5017 -0.2144
11234TIP3    H155193   4.209   5.872  15.099  0.6798  0.9701  0.3246
11234TIP3    H255194   4.191   5.889  14.949 -0.8039  0.9670  0.4920
11235TIP3   OH255195   3.350   4.598   0.253  0.3488  0.0701 -0.7214
11235TIP3    H155196   3.285   4.667   0.265 -0.8109 -1.1891  0.4051
11235TIP3    H255197   3.385   4.613   0.166 -2.2758  0.0762 -1.8099
11236TIP3   OH255198   0.259   1.132   0.647 -0.0237  0.1251  0.1234
11236TIP3    H155199   0.221   1.210   0.604 -2.6046 -1.7731 -1.2139
11236TIP3    H255200   0.211   1.125   0.729  0.6102  0.2626  0.5045
11237TIP3   OH255201   0.520   1.474   3.492  0.0928 -0.4962  0.4243
11237TIP3    H155202   0.537   1.533   3.566 -0.4950 -1.2748  1.1923
11237TIP3    H255203   0.508   1.532   3.417  1.2208  0.2735  0.8429
11238TIP3   OH255204   4.419   3.424   6.577  0.3466 -0.2034 -0.5775
11238TIP3    H155205   4.502   3.421   6.529  0.9106  0.3311  0.3489
11238TIP3    H255206   4.376   3.342   6.555  0.4736  0.1522 -2.2091
11239TIP3   OH255207   0.012   2.315  10.691 -0.0745  0.4030  0.0300
11239TIP3    H155208   0.026   2.409  10.699 -1.4917  0.5092  1.4978
11239TIP3    H255209  -0.030   2.290  10.774 -1.2473 -1.2011 -1.0205
11240TIP3   OH255210   0.422   2.208  12.318 -0.1836  0.8726  0.3002
11240TIP3    H155211   0.508   2.192  12.278  0.0792  0.1054  1.1599
11240TIP3    H255212   0.428   2.168  12.405 -1.3007  1.1062  0.4923
11241TIP3   OH255213   4.035   1.655  16.660 -0.5066 -0.0081 -0.3420
11241TIP3    H155214   4.008   1.654  16.568 -0.3111  0.8849 -0.4210
11241TIP3    H255215   4.061   1.565  16.679 -1.0221 -0.2996 -1.0204
11242TIP3   OH255216   5.483   0.192  11.654  0.1808 -0.2332 -1.0666
11242TIP3    H155217   5.565   0.155  11.621 -0.0901 -0.2564 -1.7152
11242TIP3    H255218   5.495   0.287  11.649  1.0675 -0.1965  1.0627
11243TIP3   OH255219   0.190   3.642   2.380  0.1919 -0.0664 -0.4153
11243TIP3    H155220   0.228   3.728   2.361 -1.0812  0.6053  0.0788
11243TIP3    H255221   0.188   3.598   2.294 -0.9378  1.1146 -1.0054
11244TIP3   OH255222   4.143   0.394  16.362 -0.5620  0.2643  0.1717
11244TIP3    H155223   4.105   0.352  16.285 -0.5416  0.9549 -0.2224
11244TIP3    H255224   4.173   0.479  16.330  0.6385  0.0286  0.6478
11245TIP3   OH255225   1.876   2.826  14.616 -0.7102 -0.5399 -0.4239
11245TIP3    H155226   1.956   2.867  14.647 -1.6228  0.9808 -0.0382
11245TIP3    H255227   1.813   2.838  14.688 -1.7032 -0.4594 -1.2986
11246TIP3   OH255228   3.799   4.102   2.923 -0.2406  0.5273 -0.2681
11246TIP3    H155229   3.744   4.041   2.873 -0.7550  1.1318 -0.4487
11246TIP3    H255230   3.812   4.176   2.865  3.2356 -0.8486 -1.3384
11247TIP3   OH255231   2.139   4.720   2.266 -0.0216 -0.3125  0.2583
11247TIP3    H155232   2.077   4.648   2.275 -0.2717 -0.4466 -2.2969
11247TIP3    H255233   2.084   4.799   2.270 -0.1128 -0.3675  0.1270
11248TIP3   OH255234   3.985   5.447   6.603 -0.3470  0.1637  0.1478
11248TIP3    H155235   3.902   5.443   6.557  0.3940 -1.3359 -1.0964
11248TIP3    H255236   4.011   5.540   6.599 -1.8361  0.5950  0.3613
11249TIP3   OH255237   4.249   2.641   5.390 -0.3471 -0.1281 -0.3772
11249TIP3    H155238   4.326   2.697   5.382  0.2831 -1.1624 -1.8552
11249TIP3    H255239   4.176   2.694   5.359 -0.3192  0.9860  1.3812
11250TIP3   OH255240   5.987   6.747  12.252  0.3362  0.4514 -0.0168
11250TIP3    H155241   6.001   6.841  12.242  0.3293  0.3716 -0.7399
11250TIP3    H255242   5.909   6.728  12.200  0.4216  0.0164  0.0100
11251TIP3   OH255243   0.762   6.070   0.464 -0.2606  0.0076  0.7139
11251TIP3    H155244   0.747   5.981   0.496  0.7929 -0.7389 -0.8315
11251TIP3    H255245   0.848   6.066   0.421 -0.6612  1.5196 -0.2604
11252TIP3   OH255246   3.451   4.250   3.571  0.4833 -0.0505 -0.3985
11252TIP3    H155247   3.413   4.240   3.658 -1.2986  1.0623 -1.0190
11252TIP3    H255248   3.474   4.161   3.545 -0.1176 -0.5398  0.6987
11253TIP3   OH255249   3.872   1.345  10.766 -0.1459 -0.3912  0.0130
11253TIP3    H155250   3.787   1.375  10.732  0.4135  0.6998 -0.4465
11253TIP3    H255251   3.891   1.266  10.715 -0.6316 -0.3265 -0.2719
11254TIP3   OH255252   5.846   2.307  16.460 -0.2547 -0.1610 -0.1560
11254TIP3    H155253   5.872   2.398  16.477  2.7337 -1.0663  0.3974
11254TIP3    H255254   5.809   2.277  16.543  0.5018 -0.0006  0.2480
11255TIP3   OH255255   1.738   5.978   3.671  0.6218  0.0430 -0.2532
11255TIP3    H155256   1.778   6.058   3.637 -0.4501 -0.2908 -2.4181
11255TIP3    H255257   1.794   5.952   3.744  1.5093  2.2501 -0.1145
11256TIP3   OH255258   2.446   2.341  15.482 -0.1099 -0.0020 -0.6630
11256TIP3    H155259   2.535   2.314  15.460 -0.4102 -1.4048 -0.1926
11256TIP3    H255260   2.409   2.266  15.529 -0.5505  1.7126  1.8170
11257TIP3   OH255261   3.101   5.494   1.353 -0.2329  0.1582  0.2400
11257TIP3    H155262   3.138   5.412   1.320  1.5026  0.9326  0.2241
11257TIP3    H255263   3.015   5.500   1.312  0.6873 -0.3631 -1.8193
11258TIP3   OH255264   2.253   4.817   1.457 -0.3145 -0.1301  0.0707
11258TIP3    H155265   2.182   4.764   1.493 -0.5371  0.4851  0.5612
11258TIP3    H255266   2.321   4.755   1.434 -0.3332 -0.5685  1.1832
11259TIP3   OH255267   1.217   3.941   5.382 -0.2213 -0.3871  0.6318
11259TIP3    H155268   1.147   3.893   5.426  0.2335  0.7089  2.6389
11259TIP3    H255269   1.175   4.020   5.349  0.0930  0.4917  2.2306
11260TIP3   OH255270   2.991   3.009  17.022 -0.0567  0.0460  0.2301
11260TIP3    H155271   3.053   2.997  17.094  0.2601 -1.9998 -0.3482
11260TIP3    H255272   3.023   3.085  16.975  1.0382  0.0190  0.9296
11261TIP3   OH255273   0.091   2.964  15.787  0.0769  0.6742 -0.0633
11261TIP3    H155274   0.082   2.906  15.862  1.2752 -1.5472 -1.5857
11261TIP3    H255275   0.159   3.026  15.812  0.9322 -0.4629  0.4529
11262TIP3   OH255276   6.730   3.427   4.133  0.2466  0.2527  0.1898
11262TIP3    H155277   6.705   3.440   4.041  0.9524 -0.8042 -0.1579
11262TIP3    H255278   6.656   3.382   4.172  0.0527  0.4715  0.0749
11263TIP3   OH255279   3.783   3.348  16.410  0.6425  0.0305  0.2518
11263TIP3    H155280   3.842   3.397  16.468 -0.5250  1.5164  0.2217
11263TIP3    H255281   3.748   3.278  16.465 -0.3116  1.3190  1.3522
11264TIP3   OH255282   4.877   1.792  11.403 -0.2859 -0.4912 -0.0909
11264TIP3    H155283   4.962   1.826  11.430 -0.3249 -1.9500  2.0250
11264TIP3    H255284   4.823   1.798  11.482 -2.0495  0.1044 -1.3196
11265TIP3   OH255285   2.631   4.603   6.571  0.5943 -0.1972 -0.0594
11265TIP3    H155286   2.596   4.568   6.653  0.4014  1.1598  0.4336
11265TIP3    H255287   2.705   4.545   6.551 -1.2469 -2.4805 -0.5881
11266TIP3   OH255288   2.192   1.366   6.144 -0.3737 -0.0959 -0.1880
11266TIP3    H155289   2.192   1.454   6.183  0.8158  0.1213 -0.6538
11266TIP3    H255290   2.175   1.307   6.217 -2.3808  0.5856 -0.0552
11267TIP3   OH255291   4.000   6.003   0.942  0.2716 -0.1064 -0.9491
11267TIP3    H155292   4.067   5.982   1.008  1.6282  0.4046 -2.1284
11267TIP3    H255293   4.038   5.971   0.860 -0.8114  0.4812 -1.6776
11268TIP3   OH255294   6.449   0.668  13.322 -0.9369 -0.1535 -0.0728
11268TIP3    H155295   6.484   0.665  13.233 -0.3888  0.4085  0.1186
11268TIP3    H255296   6.526   0.679  13.378 -1.2600 -0.6709  0.4876
11269TIP3   OH255297   5.514   0.479  11.649 -0.6978  0.0670 -0.1141
11269TIP3    H155298   5.589   0.525  11.611 -0.6023 -1.2585 -1.5956
11269TIP3    H255299   5.438   0.534  11.626 -0.4969 -0.0923 -1.1668
11270TIP3   OH255300   6.171   1.247   4.723  1.0823 -0.4279 -0.0649
11270TIP3    H155301   6.232   1.294   4.780  1.4643  0.1642 -0.9561
11270TIP3    H255302   6.085   1.277   4.750  1.3147  0.6391 -0.4795
11271TIP3   OH255303   3.913   3.616  12.960 -0.4682  0.0520 -0.1349
11271TIP3    H155304   3.848   3.641  13.027  0.0048  3.8500 -0.9567
11271TIP3    H255305   3.986   3.582  13.010 -0.5087  1.9561  1.3000
11272TIP3   OH255306   6.153   0.555   3.418  0.3677  0.1528 -0.4221
11272TIP3    H155307   6.080   0.612   3.396  0.6923  0.0498 -1.8374
11272TIP3    H255308   6.182   0.585   3.504  0.3635  1.9639 -1.0243
11273TIP3   OH255309   0.900   5.000   0.247  0.4908 -0.6091  0.3000
11273TIP3    H155310   0.821   4.955   0.218 -1.1697  3.2660 -1.6137
11273TIP3    H255311   0.966   4.979   0.181 -0.7886  1.1125 -1.5978
11274TIP3   OH255312   0.458   3.643   2.928 -0.1404  0.0688 -0.3206
11274TIP3    H155313   0.471   3.567   2.984  1.8573 -0.5338 -1.5376
11274TIP3    H255314   0.400   3.701   2.978  0.6823 -0.9531  1.8578
11275TIP3   OH255315   2.721   3.361   1.720 -0.0794 -0.2199  0.3142
11275TIP3    H155316   2.629   3.375   1.697 -0.8488 -2.8676  1.6572
11275TIP3    H255317   2.733   3.267   1.716  2.0131 -0.0749  2.2851
11276TIP3   OH255318   1.442   1.870   4.022  0.9019  0.1355  0.0981
11276TIP3    H155319   1.351   1.873   4.049  0.3469 -2.6479 -1.1831
11276TIP3    H255320   1.488   1.929   4.081 -1.1938 -1.1156  3.0796
11277TIP3   OH255321   4.133   3.240   4.362 -0.1495  0.2468  0.1232
11277TIP3    H155322   4.184   3.301   4.417  0.1969  0.6061 -0.5841
11277TIP3    H255323   4.188   3.227   4.285  0.1047 -1.5578  0.6034
11278TIP3   OH255324   3.571   1.891  14.188  0.0776  0.3608  0.3020
11278TIP3    H155325   3.593   1.964  14.246  0.9980 -1.6598  2.5806
11278TIP3    H255326   3.656   1.859  14.156 -0.3013  0.1112 -0.4738
11279TIP3   OH255327   1.864   1.817   1.683  0.4647  0.2257 -0.2907
11279TIP3    H155328   1.810   1.766   1.743  0.1472 -2.3978 -2.7098
11279TIP3    H255329   1.802   1.854   1.620  1.1214  0.2631 -0.9198
11280TIP3   OH255330   0.610   4.945   5.917 -0.3027  0.1583  0.8411
11280TIP3    H155331   0.566   4.884   5.975 -0.0920 -1.0343 -0.2337
11280TIP3    H255332   0.552   5.021   5.912 -0.7682 -0.1383  1.8367
11281TIP3   OH255333   3.791   3.429  12.462 -0.1319 -1.0395 -0.3813
11281TIP3    H155334   3.770   3.423  12.556  1.4847 -1.1481 -0.0108
11281TIP3    H255335   3.711   3.462  12.422 -0.7784 -0.7939  1.0735
11282TIP3   OH255336   1.434   4.971  12.100  0.0554  0.1199 -0.0672
11282TIP3    H155337   1.494   4.943  12.169 -1.6912  0.1831  1.5184
11282TIP3    H255338   1.450   4.910  12.028  1.8682  0.0279  0.3881
11283TIP3   OH255339   2.529   2.224  14.089 -0.3974  0.2996  0.2570
11283TIP3    H155340   2.479   2.253  14.166 -1.2037 -0.3786  0.0007
11283TIP3    H255341   2.618   2.254  14.105 -0.5795  0.2366  1.4210
11284TIP3   OH255342   3.094   2.172   3.874 -0.2474 -0.1698 -0.3249
11284TIP3    H155343   3.066   2.200   3.787 -0.9659  0.0720 -0.0184
11284TIP3    H255344   3.113   2.079   3.865 -2.7512 -0.7178 -0.1427
11285TIP3   OH255345   2.972   5.270  15.830  0.2683  0.7965 -0.2691
11285TIP3    H155346   2.982   5.266  15.925 -0.2752  1.3174 -0.1840
11285TIP3    H255347   3.035   5.206  15.796  1.7634  1.9221  0.3521
11286TIP3   OH255348   1.359   6.090   1.866  1.0960 -1.0618  0.6060
11286TIP3    H155349   1.331   6.029   1.934 -2.8852  1.2122  1.1581
11286TIP3    H255350   1.314   6.060   1.786  0.6822 -0.0511  0.4484
11287TIP3   OH255351   4.043   4.719  15.074  0.0088 -0.1499  0.3075
11287TIP3    H155352   3.964   4.772  15.068 -1.3129 -2.1080  0.1403
11287TIP3    H255353   4.039   4.678  15.160 -0.4642 -2.2417 -0.6771
11288TIP3   OH255354   3.056   2.721   5.645 -0.1677  0.0203  0.0458
11288TIP3    H155355   3.089   2.631   5.638  0.4794  0.2563  0.0259
11288TIP3    H255356   2.995   2.718   5.719  0.2511 -0.3243  0.3853
11289TIP3   OH255357   1.506   1.641   6.212  0.0171  0.7589  0.2956
11289TIP3    H155358   1.561   1.626   6.290 -0.3916  0.0451  0.4490
11289TIP3    H255359   1.476   1.554   6.187  0.6517  0.9091 -1.0440
11290TIP3   OH255360   1.622   3.903  16.338  0.3207  0.6831 -0.6762
11290TIP3    H155361   1.610   3.956  16.259  0.8446 -0.3494 -1.4525
11290TIP3    H255362   1.714   3.879  16.337 -0.1212 -1.0796 -0.8641
11291TIP3   OH255363   0.090   0.512   4.141  0.3591 -0.0998  0.1444
11291TIP3    H155364   0.098   0.586   4.081 -0.5412  0.3563  0.5723
11291TIP3    H255365   0.093   0.551   4.229 -0.4765 -0.5228  0.3709
11292TIP3   OH255366   1.021   5.462  16.206 -0.5544  0.0154 -0.2938
11292TIP3    H155367   1.036   5.370  16.186 -1.6655 -0.3286  0.3697
11292TIP3    H255368   0.940   5.484  16.159 -0.2803  0.6578 -0.4715
11293TIP3   OH255369   4.189   2.664   1.535 -0.2641 -0.0348 -0.9105
11293TIP3    H155370   4.192   2.623   1.622 -0.7614  0.9699 -0.4168
11293TIP3    H255371   4.190   2.758   1.552  0.3431  0.1770 -2.0262
11294TIP3   OH255372   5.363   1.557  16.895 -0.4257  0.0696  0.2283
11294TIP3    H155373   5.319   1.636  16.926  0.6150  0.5134  0.6149
11294TIP3    H255374   5.306   1.485  16.921 -1.1158  0.6591  0.3582
11295TIP3   OH255375   5.462   4.314   1.787  0.0716  0.2673  0.1208
11295TIP3    H155376   5.430   4.292   1.874 -0.0732 -0.9711 -0.2333
11295TIP3    H255377   5.417   4.395   1.764 -1.2573 -0.3674  0.4682
11296TIP3   OH255378   2.333   0.908   5.670  0.1378 -0.1151 -0.0051
11296TIP3    H155379   2.245   0.872   5.674  0.0417 -0.1363 -2.1919
11296TIP3    H255380   2.337   0.954   5.587  1.8783  0.7360  0.5231
11297TIP3   OH255381   3.235   4.347   3.423  0.0229 -0.1579 -0.2333
11297TIP3    H155382   3.308   4.324   3.480 -3.0925 -3.9820  2.4129
11297TIP3    H255383   3.277   4.391   3.348  4.5303  2.0520  3.3147
11298TIP3   OH255384   3.275   1.504   5.058  0.5838 -0.2796  0.1849
11298TIP3    H155385   3.365   1.523   5.029  0.5237 -2.9038 -1.9272
11298TIP3    H255386   3.272   1.408   5.065 -1.9304 -0.1899  0.6823
11299TIP3   OH255387   6.777   0.607   1.949  0.0219 -0.4348  0.2187
11299TIP3    H155388   6.779   0.520   1.909  1.3558 -0.8141  1.1024
11299TIP3    H255389   6.840   0.603   2.021  0.9897  1.6219 -0.4528
11300TIP3   OH255390   5.396   0.390  10.427  0.0329  0.7143  0.0711
11300TIP3    H155391   5.307   0.401  10.394  0.2083 -0.3012 -0.7314
11300TIP3    H255392   5.452   0.398  10.350  0.6763  1.7466  0.6267
11301TIP3   OH255393   4.341   0.841   0.820 -0.1290  0.1765  0.1991
11301TIP3    H155394   4.248   0.821   0.823 -0.2098  0.5787  0.2541
11301TIP3    H255395   4.381   0.778   0.881 -0.2585 -0.6113 -0.5100
11302TIP3   OH255396   2.049   3.885   2.662 -0.2669 -0.2461  0.3383
11302TIP3    H155397   2.026   3.895   2.569 -0.1232  1.4021  0.4570
11302TIP3    H255398   1.974   3.840   2.701 -0.2749 -1.0621 -0.5986
11303TIP3   OH255399   6.448   3.571   3.133 -0.0766  0.0125  0.2337
11303TIP3    H155400   6.453   3.652   3.183  1.2459 -0.0364  0.1786
11303TIP3    H255401   6.507   3.584   3.059  0.1358 -0.9856  0.2152
11304TIP3   OH255402   3.436   2.416   4.561  0.0453  0.4253  0.1316
11304TIP3    H155403   3.451   2.501   4.601  0.5853 -0.5102  1.9767
11304TIP3    H255404   3.522   2.388   4.531  0.0970 -0.0448  0.7110
11305TIP3   OH255405   5.294   3.646   3.237 -0.3581  0.0568  0.8157
11305TIP3    H155406   5.382   3.677   3.215 -0.2476 -0.5765  0.3327
11305TIP3    H255407   5.291   3.556   3.202 -0.8723 -0.2602  1.6569
11306TIP3   OH255408   5.245   4.074   1.378 -0.0851  0.0146  0.3063
11306TIP3    H155409   5.278   4.075   1.468  3.2439  0.6865 -0.8603
11306TIP3    H255410   5.230   4.166   1.357  0.0770 -0.0661 -0.1619
11307TIP3   OH255411   5.566   3.958   3.858 -0.7727 -0.5941  0.4172
11307TIP3    H155412   5.621   3.978   3.782 -1.6096 -2.8333 -0.8229
11307TIP3    H255413   5.509   4.035   3.867  1.6732  1.2329  0.9833
11308TIP3   OH255414   5.200   4.334   0.215  0.5397 -0.0926 -0.1911
11308TIP3    H155415   5.273   4.360   0.271  0.7581 -2.7624  0.8751
11308TIP3    H255416   5.128   4.318   0.276 -0.1376 -0.0382 -0.9725
11309TIP3   OH255417   6.213   3.149   0.744  0.4157  0.2090  0.2328
11309TIP3    H155418   6.276   3.219   0.728  2.0323 -1.2382  0.1819
11309TIP3    H255419   6.255   3.071   0.710 -1.5557 -0.7297 -0.0894
11310TIP3   OH255420   2.173   1.036  12.353 -0.0833  0.1505 -0.2952
11310TIP3    H155421   2.107   0.979  12.314 -0.0875  0.4844 -0.7810
11310TIP3    H255422   2.138   1.124  12.341 -0.8539  0.1633  1.9007
11311TIP3   OH255423   5.927   6.776   0.159  0.7020 -0.5292  0.6865
11311TIP3    H155424   5.846   6.750   0.203  1.0784  0.0164  1.7196
11311TIP3    H255425   5.982   6.698   0.163  1.0320 -0.2485  1.9055
11312TIP3   OH255426   0.172   1.643   5.518 -0.2136 -0.2538  0.6640
11312TIP3    H155427   0.201   1.601   5.437 -0.1841 -0.2502  0.6729
11312TIP3    H255428   0.243   1.628   5.580 -0.1996 -0.1856  0.6653
11313TIP3   OH255429   0.397   1.913   2.436 -0.3348  0.3860  0.6854
11313TIP3    H155430   0.438   1.977   2.378 -0.4380 -1.2393 -1.2164
11313TIP3    H255431   0.460   1.842   2.443 -0.5824  0.2908  2.0971
11314TIP3   OH255432   4.019   1.287  13.895  0.3569  0.2501 -0.3374
11314TIP3    H155433   3.962   1.213  13.919  0.6408 -0.2307 -1.1102
11314TIP3    H255434   4.086   1.289  13.963 -0.5021  0.7314  0.5049
11315TIP3   OH255435   2.522   4.629  13.500 -0.0995  0.0829 -0.5265
11315TIP3    H155436   2.514   4.599  13.409  1.0968  0.3036 -0.7139
11315TIP3    H255437   2.550   4.720  13.493 -0.5728  0.2749  0.0628
11316TIP3   OH255438   4.991   1.839  12.119  0.2011 -0.9301  0.1407
11316TIP3    H155439   5.078   1.816  12.153  0.7146  0.1919 -0.4119
11316TIP3    H255440   5.008   1.877  12.033 -0.8234 -0.4777  0.1354
11317TIP3   OH255441   0.236   1.183  11.684 -0.2998 -0.0662  0.1187
11317TIP3    H155442   0.239   1.278  11.673 -0.8715 -0.0702 -0.0912
11317TIP3    H255443   0.328   1.156  11.687 -0.1182  0.2962 -1.6036
11318TIP3   OH255444   1.275   4.319   5.860 -0.2311 -0.1167  0.1877
11318TIP3    H155445   1.360   4.337   5.821  0.0085 -1.0644  0.2737
11318TIP3    H255446   1.226   4.401   5.849 -0.0120 -0.2261 -1.6679
11319TIP3   OH255447   5.392   2.966  14.422 -0.4201 -0.1341  0.0173
11319TIP3    H155448   5.371   2.890  14.367  0.4324 -0.2496 -0.1569
11319TIP3    H255449   5.426   2.928  14.503  1.4368  0.0657 -0.6479
11320TIP3   OH255450   5.436   0.149   0.230 -0.4907  0.2269  0.8440
11320TIP3    H155451   5.402   0.092   0.161  1.1697  0.4204 -0.1579
11320TIP3    H255452   5.422   0.099   0.311 -2.6944  0.1161  0.4122
11321TIP3   OH255453   1.804   2.387  11.759  0.4896 -0.4119 -0.0436
11321TIP3    H155454   1.822   2.478  11.784  1.0550 -0.6076  0.2682
11321TIP3    H255455   1.708   2.382  11.755  0.4575  0.1927 -0.0375
11322TIP3   OH255456   0.087   6.328  13.776 -0.3490  0.4009 -0.0344
11322TIP3    H155457   0.022   6.297  13.712 -1.4423  2.0343  0.2487
11322TIP3    H255458   0.038   6.334  13.858  0.1505  1.6508  0.1878
11323TIP3   OH255459   2.652   4.175  11.251  0.4077 -0.0550 -0.0234
11323TIP3    H155460   2.666   4.090  11.211 -0.4096  0.8339 -2.2564
11323TIP3    H255461   2.670   4.238  11.182 -0.3770  1.5545  1.1907
11324TIP3   OH255462   2.682   2.968   0.984 -0.1861 -0.2895  0.1872
11324TIP3    H155463   2.772   2.995   0.964 -0.0632 -1.8893 -1.4896
11324TIP3    H255464   2.692   2.894   1.044 -0.3988 -0.3392  0.1609
11325TIP3   OH255465   4.413   5.359  16.479  0.1391 -0.4279  0.0155
11325TIP3    H155466   4.476   5.337  16.411  1.2697 -0.8701  1.1849
11325TIP3    H255467   4.359   5.280  16.488  1.0669 -0.9896  0.7904
11326TIP3   OH255468   1.452   4.828  16.869 -0.2325 -0.2667  0.0219
11326TIP3    H155469   1.398   4.906  16.879  2.2933  1.3281  1.7022
11326TIP3    H255470   1.398   4.757  16.906 -1.9573  0.9064 -0.1812
11327TIP3   OH255471   5.276   0.789   1.617  0.0131 -0.3205  0.2501
11327TIP3    H155472   5.333   0.713   1.623  1.0498  0.5064  1.2172
11327TIP3    H255473   5.228   0.790   1.699 -0.3430 -0.1983  0.0424
11328TIP3   OH255474   4.224   5.441  17.126 -0.3215 -0.3407 -0.3239
11328TIP3    H155475   4.144   5.455  17.075 -1.2185 -0.7151  0.9685
11328TIP3    H255476   4.294   5.445  17.061 -1.2905  1.1074 -1.3183
11329TIP3   OH255477   6.000   5.579   0.984 -0.2894  0.0685 -0.1083
11329TIP3    H155478   6.091   5.585   0.954 -0.1142 -0.4413  0.3200
11329TIP3    H255479   5.970   5.670   0.986  0.0274  0.1904 -0.8142
11330TIP3   OH255480   0.242   3.265  15.400 -0.2378 -0.0232  0.3802
11330TIP3    H155481   0.322   3.217  15.377 -0.3701 -0.1130  0.1035
11330TIP3    H255482   0.268   3.357  15.402 -0.3439  0.0356 -0.6559
11331TIP3   OH255483   3.137   4.090   2.105 -0.6083  0.0106 -0.3202
11331TIP3    H155484   3.090   4.069   2.024 -0.5782 -0.1828 -0.2864
11331TIP3    H255485   3.174   4.007   2.134  0.1183  0.2390 -0.5739
11332TIP3   OH255486   0.660   0.177   0.380  0.4780 -0.0500  0.0438
11332TIP3    H155487   0.658   0.258   0.330 -0.4013  0.5911  1.1041
11332TIP3    H255488   0.642   0.108   0.316 -0.1286  0.7087 -0.5992
11333TIP3   OH255489   5.830   3.568   4.886  0.0486 -0.2621 -0.1821
11333TIP3    H155490   5.829   3.520   4.969 -0.2911 -2.2184 -1.2703
11333TIP3    H255491   5.824   3.499   4.819  2.5629  1.0983 -1.9061
11334TIP3   OH255492   2.635   2.459   4.643  0.1927 -0.1976 -0.0512
11334TIP3    H155493   2.683   2.503   4.713 -0.2059 -1.1460  0.8317
11334TIP3    H255494   2.701   2.442   4.575  0.9024 -0.6214  0.7371
11335TIP3   OH255495   6.452   3.324  13.886 -0.9085  0.2625  0.0710
11335TIP3    H155496   6.397   3.357  13.957  0.2982 -1.4913  1.8650
11335TIP3    H255497   6.423   3.234  13.873 -1.2659  0.6261 -1.8446
11336TIP3   OH255498   2.014   0.406   3.084  0.8179  1.0032  0.3186
11336TIP3    H155499   1.996   0.487   3.131  2.3248  0.9993  0.9203
11336TIP3    H255500   1.970   0.417   3.000 -0.3490  1.7634  1.0151
11337TIP3   OH255501   0.963   1.007   2.080 -0.0169 -0.2028  0.3632
11337TIP3    H155502   1.031   0.961   2.130  0.2767 -1.2828 -0.9925
11337TIP3    H255503   0.926   0.939   2.023  0.1363  1.1408 -1.3779
11338TIP3   OH255504   4.347   4.786  13.264 -0.6875 -0.3549  0.1418
11338TIP3    H155505   4.363   4.880  13.251 -1.6621 -0.0847  0.8375
11338TIP3    H255506   4.268   4.767  13.213 -0.7005 -0.7139  0.2916
11339TIP3   OH255507   4.176   2.522  14.318 -0.0874 -0.0167 -0.6076
11339TIP3    H155508   4.212   2.599  14.362  1.9212 -2.5457  2.4349
11339TIP3    H255509   4.085   2.519  14.345 -0.0008  0.9191 -0.1951
11340TIP3   OH255510   3.173   1.690  16.807 -0.1337 -0.2884  0.3574
11340TIP3    H155511   3.153   1.627  16.877 -1.2179  1.3663  1.5539
11340TIP3    H255512   3.135   1.651  16.729 -0.3899 -1.3528  0.9961
11341TIP3   OH255513   5.673   2.349  13.496  0.7366 -0.1214 -0.5394
11341TIP3    H155514   5.616   2.401  13.552  2.7090  1.7869 -0.2327
11341TIP3    H255515   5.758   2.349  13.541  1.5365 -1.1531 -2.0013
11342TIP3   OH255516   2.382   5.639   1.656  0.1740 -0.1757 -0.1050
11342TIP3    H155517   2.453   5.690   1.697  0.3603  0.5035 -1.2355
11342TIP3    H255518   2.339   5.595   1.729  0.4633  1.0470  0.8345
11343TIP3   OH255519   3.505   3.483   3.643  0.6763  0.4404  0.6253
11343TIP3    H155520   3.515   3.455   3.734  0.4491 -0.6092  0.3362
11343TIP3    H255521   3.419   3.450   3.617  0.6363  0.9484  0.1036
11344TIP3   OH255522   3.519   1.414   5.756  0.1793  0.2671  0.2842
11344TIP3    H155523   3.504   1.349   5.824 -0.0333 -0.7326 -0.6865
11344TIP3    H255524   3.509   1.365   5.674 -2.8260  2.0949 -0.5386
11345TIP3   OH255525   6.021   5.858  14.657  0.1368 -0.4373 -0.3798
11345TIP3    H155526   5.991   5.946  14.678  0.3246 -0.8304  1.5599
11345TIP3    H255527   5.955   5.825  14.596 -0.4896  0.6551 -0.3198
11346TIP3   OH255528   4.586   4.159  16.485 -0.3804 -0.1414 -0.2977
11346TIP3    H155529   4.514   4.192  16.539  0.4934  0.0249  0.8009
11346TIP3    H255530   4.556   4.170  16.395 -1.3692  0.7432  0.1307
11347TIP3   OH255531   2.053   3.923   6.660 -0.0263 -0.1429 -0.5514
11347TIP3    H155532   2.004   3.866   6.721  0.2538  0.0668 -0.1300
11347TIP3    H255533   2.116   3.864   6.618 -2.1419 -0.9012 -2.7706
11348TIP3   OH255534   2.982   2.202  12.527 -0.2375 -0.3223 -0.7742
11348TIP3    H155535   3.042   2.214  12.601 -0.0572 -2.0347 -0.6231
11348TIP3    H255536   2.959   2.291  12.501  0.2373  0.3229  0.9045
11349TIP3   OH255537   3.185   5.844   4.065 -0.0448 -0.1677 -0.8695
11349TIP3    H155538   3.226   5.847   3.979 -0.0881  0.5630 -0.8688
11349TIP3    H255539   3.146   5.757   4.070 -0.1473 -0.1688 -1.6374
11350TIP3   OH255540   2.627   0.405   4.551  0.3814  0.1004 -0.0109
11350TIP3    H155541   2.576   0.482   4.577 -0.1368 -0.2591  0.0435
11350TIP3    H255542   2.711   0.440   4.521 -0.1607  0.7480 -0.7810
11351TIP3   OH255543   1.582   6.684   0.170  0.3757 -0.0722  0.6868
11351TIP3    H155544   1.592   6.737   0.091  1.5931 -0.1874  0.7431
11351TIP3    H255545   1.505   6.720   0.214  0.9007  1.3313  0.4809
11352TIP3   OH255546   6.672   3.245   4.376  1.1606  0.1986  0.4769
11352TIP3    H155547   6.672   3.337   4.401  0.6562  0.3695 -0.1608
11352TIP3    H255548   6.596   3.235   4.319 -0.1766 -1.1419  2.4572
11353TIP3   OH255549   3.310   4.350   5.380  0.4263  0.2542  0.2551
11353TIP3    H155550   3.392   4.327   5.336  0.8510  1.5156  0.3464
11353TIP3    H255551   3.316   4.445   5.393 -1.3627  0.4868 -0.3907
11354TIP3   OH255552   4.282   2.107   3.766  0.0162  0.3120 -0.6171
11354TIP3    H155553   4.378   2.113   3.768  0.0134  0.1052  1.6885
11354TIP3    H255554   4.262   2.067   3.681  2.0679 -1.1634 -0.4448
11355TIP3   OH255555   2.899   2.750   3.367  0.1076  0.6629 -0.3678
11355TIP3    H155556   2.872   2.659   3.376  0.9858  0.4108 -0.1788
11355TIP3    H255557   2.847   2.785   3.295  0.3550 -0.2208 -0.9798
11356TIP3   OH255558   1.346   2.482   6.055 -0.3365  0.0971  0.1080
11356TIP3    H155559   1.395   2.427   6.117 -0.2966  1.0307  0.9097
11356TIP3    H255560   1.254   2.462   6.074 -0.3466  0.9979  1.0472
11357TIP3   OH255561   2.990   1.751   5.338  0.5749  0.4553  0.1505
11357TIP3    H155562   3.078   1.715   5.325  0.8281  0.8362  0.7538
11357TIP3    H255563   3.004   1.846   5.343  0.1423  0.5106  0.3350
11358TIP3   OH255564   3.839   0.621   2.812  0.4678  0.4678 -0.0236
11358TIP3    H155565   3.835   0.525   2.811  0.4819  0.4745 -2.0589
11358TIP3    H255566   3.889   0.642   2.891 -0.4128 -1.1508  1.0126
11359TIP3   OH255567   5.557   2.318  12.473 -0.2709 -0.3785  0.0561
11359TIP3    H155568   5.570   2.398  12.523  2.7403 -2.3611  2.6889
11359TIP3    H255569   5.466   2.322  12.443 -0.3263  3.7224  0.5293
11360TIP3   OH255570   6.061   3.578   2.117  0.5584 -0.1049  0.3608
11360TIP3    H155571   6.059   3.671   2.139  0.5755 -0.5749  2.4612
11360TIP3    H255572   6.141   3.545   2.158  0.3267 -1.1355  0.0071
11361TIP3   OH255573   1.357   3.226   1.860  0.0059  0.2783 -0.6438
11361TIP3    H155574   1.285   3.166   1.878  0.8793 -0.1530  1.5721
11361TIP3    H255575   1.434   3.183   1.896  1.2750  1.0851 -2.3131
11362TIP3   OH255576   0.886   4.588   2.129  0.4472 -0.2465  0.6020
11362TIP3    H155577   0.945   4.655   2.095 -0.8614  0.3700 -0.5247
11362TIP3    H255578   0.890   4.517   2.065  0.3869 -0.4323  0.8041
11363TIP3   OH255579   3.727   4.901  11.578  0.1732  1.1524 -0.7784
11363TIP3    H155580   3.665   4.970  11.601  0.5549  1.2292  0.0466
11363TIP3    H255581   3.786   4.942  11.515  1.1610  1.9837  0.6429
11364TIP3   OH255582   1.734   6.320  11.244  0.2445 -0.0430 -0.5311
11364TIP3    H155583   1.652   6.281  11.272 -0.2876  1.8341  0.6930
11364TIP3    H255584   1.798   6.290  11.309 -0.1665  1.0744  0.4185
11365TIP3   OH255585   4.773   5.040   4.993 -0.4760 -0.2287 -0.2879
11365TIP3    H155586   4.719   4.976   5.040 -3.2563 -0.0570 -3.0568
11365TIP3    H255587   4.775   5.008   4.902  1.9268  1.2097 -0.7994
11366TIP3   OH255588   1.197   1.442   6.168  0.5755  0.2171 -0.3689
11366TIP3    H155589   1.153   1.525   6.182 -0.4393 -0.1898 -1.0781
11366TIP3    H255590   1.215   1.440   6.074  0.5355 -0.3801 -0.3689
11367TIP3   OH255591   1.747   3.707   3.502 -0.3373  0.0037 -0.0121
11367TIP3    H155592   1.674   3.698   3.563 -0.8042 -3.9220 -0.9818
11367TIP3    H255593   1.825   3.705   3.557 -0.8325 -1.3208  0.6602
11368TIP3   OH255594   6.215   6.178   5.054 -0.1652  0.1850 -0.1583
11368TIP3    H155595   6.173   6.259   5.082  0.8377  0.7900 -0.3725
11368TIP3    H255596   6.156   6.108   5.083  0.4147  0.8108  2.7672
11369TIP3   OH255597   1.990   0.952  10.339  0.2778  0.5025  0.5886
11369TIP3    H155598   2.065   0.962  10.398 -0.7106  3.1976  1.4728
11369TIP3    H255599   1.915   0.942  10.397 -0.2065 -1.1648 -0.2877
11370TIP3   OH255600   1.914   3.494   4.069 -0.2960  0.6901 -0.3191
11370TIP3    H155601   1.958   3.518   3.987  0.5777 -1.0514 -0.3925
11370TIP3    H255602   1.848   3.430   4.042 -1.0035  1.2319  0.1442
11371TIP3   OH255603   3.888   2.116   1.072 -0.7086 -0.3092  0.3358
11371TIP3    H155604   3.879   2.210   1.059 -1.2658 -0.4586 -0.4437
11371TIP3    H255605   3.964   2.091   1.019  1.3319  0.1627  2.9471
11372TIP3   OH255606   2.177   4.794  16.465  0.2499  0.3141  0.3236
11372TIP3    H155607   2.253   4.848  16.487  1.4511 -0.5192 -1.6537
11372TIP3    H255608   2.106   4.829  16.519  1.4255  2.6967  0.3673
11373TIP3   OH255609   5.766   4.675   4.604  0.4430 -0.0964  0.3606
11373TIP3    H155610   5.709   4.680   4.681 -0.2328  0.4834 -0.1689
11373TIP3    H255611   5.759   4.584   4.576  0.7088 -0.3182  0.9979
11374TIP3   OH255612   1.205   2.528  14.219 -0.8082  0.1388 -0.6816
11374TIP3    H155613   1.294   2.494  14.207 -0.6468  0.6822 -1.0481
11374TIP3    H255614   1.216   2.605  14.275 -1.3532 -1.3138  1.4753
11375TIP3   OH255615   4.253   1.963  14.772 -0.4943 -0.1662 -0.4110
11375TIP3    H155616   4.209   2.006  14.699  0.5461  1.3427 -0.1812
11375TIP3    H255617   4.316   2.028  14.804  0.6855 -1.6496  0.3483
11376TIP3   OH255618   4.880   4.132   4.851 -0.3643  0.2009 -0.0672
11376TIP3    H155619   4.936   4.154   4.925  0.1730 -1.5836  0.0849
11376TIP3    H255620   4.921   4.175   4.776  0.3517  0.1499  0.2982
11377TIP3   OH255621   5.211   3.749   1.440  0.2574  0.3479 -0.0550
11377TIP3    H155622   5.150   3.756   1.366 -0.8324  1.1738  0.9144
11377TIP3    H255623   5.187   3.822   1.498  2.1797  0.7075  0.3273
11378TIP3   OH255624   1.878   2.641   4.436  0.1339 -0.6669 -0.2279
11378TIP3    H155625   1.913   2.611   4.520 -4.1670 -2.7185  0.9649
11378TIP3    H255626   1.910   2.576   4.373  0.3190 -1.2297  0.4407
11379TIP3   OH255627   1.205   3.977  14.600  0.0584 -0.0845  0.4263
11379TIP3    H155628   1.296   4.009  14.601 -0.2243  0.7435  0.3610
11379TIP3    H255629   1.171   4.001  14.686 -0.4443  0.6489  0.0329
11380TIP3   OH255630   3.785   6.255   0.785 -0.0187  0.5353  0.4156
11380TIP3    H155631   3.840   6.331   0.801  0.5219  0.7679 -2.2312
11380TIP3    H255632   3.759   6.224   0.872 -0.0470  3.5602  1.5157
11381TIP3   OH255633   4.758   5.560  12.880  0.6289  0.1068  0.6889
11381TIP3    H155634   4.825   5.572  12.947  1.0512 -0.4547  0.3750
11381TIP3    H255635   4.696   5.632  12.894  0.9921  0.2945  1.3437
11382TIP3   OH255636   0.708   3.544   5.735  0.9237  0.0532 -0.1161
11382TIP3    H155637   0.790   3.583   5.766  1.4507  0.3992 -1.8285
11382TIP3    H255638   0.639   3.601   5.768  1.4435  0.2846  0.5706
11383TIP3   OH255639   3.219   0.224   1.979  0.2073  0.2020 -0.2892
11383TIP3    H155640   3.241   0.279   1.904  2.0325  0.8872  0.7229
11383TIP3    H255641   3.299   0.176   1.998 -0.2079  0.1237  1.3023
11384TIP3   OH255642   1.379   6.538  15.445  0.3504  0.2095  0.5278
11384TIP3    H155643   1.314   6.570  15.508 -0.7146  0.7749 -0.8274
11384TIP3    H255644   1.328   6.519  15.366  1.0857 -3.8871  0.9236
11385TIP3   OH255645   6.773   4.623  17.141  0.1701  0.7414 -0.4764
11385TIP3    H155646   6.762   4.647  17.233  1.4897  1.3161 -0.4474
11385TIP3    H255647   6.760   4.529  17.138 -1.5269  0.9478  0.0175
11386TIP3   OH255648   2.682   5.410   0.838  0.1310 -0.2999 -0.5601
11386TIP3    H155649   2.740   5.367   0.901  0.2979  0.8827  0.1071
11386TIP3    H255650   2.665   5.496   0.876 -0.0941  0.2786 -1.9425
11387TIP3   OH255651   2.228   2.356   5.552  0.7298  0.3941  0.4721
11387TIP3    H155652   2.236   2.398   5.467  0.0559 -0.0669  0.1734
11387TIP3    H255653   2.293   2.400   5.607 -0.2601  2.1250  0.3004
11388TIP3   OH255654   0.863   5.745  14.713 -0.1717 -0.5590 -0.3839
11388TIP3    H155655   0.843   5.776  14.802 -1.1945 -1.1783 -0.3923
11388TIP3    H255656   0.788   5.774  14.661  0.3733 -0.2991 -1.0272
11389TIP3   OH255657   2.227   0.705   0.337 -0.5215 -0.1545  0.5754
11389TIP3    H155658   2.298   0.750   0.384 -1.3406  0.5439  1.1760
11389TIP3    H255659   2.228   0.744   0.250  0.5600 -0.9547  0.2257
11390TIP3   OH255660   6.764   5.060  15.399  0.2091 -0.1189 -0.4752
11390TIP3    H155661   6.732   5.133  15.348 -0.0819  1.2832  1.6534
11390TIP3    H255662   6.686   5.022  15.441  0.6514 -0.0604  0.4280
11391TIP3   OH255663   5.780   4.436   1.441 -0.0665  0.3541 -1.3083
11391TIP3    H155664   5.727   4.387   1.504  1.6430  0.5605  0.3390
11391TIP3    H255665   5.855   4.379   1.423  1.3903  1.8610 -0.1929
11392TIP3   OH255666   3.189   2.173  14.663 -0.1832 -0.4578 -0.4870
11392TIP3    H155667   3.262   2.199  14.606  0.4786 -0.9569  0.1314
11392TIP3    H255668   3.135   2.117  14.608 -1.3280  1.7055 -1.6666
11393TIP3   OH255669   1.611   6.241  10.844 -0.0268 -0.5157  0.4301
11393TIP3    H155670   1.610   6.146  10.849 -0.1991 -0.4713  1.2744
11393TIP3    H255671   1.525   6.264  10.808  0.2230 -0.7068 -0.2869
11394TIP3   OH255672   4.716   0.912   5.750  0.1855  0.4636  0.2001
11394TIP3    H155673   4.691   0.935   5.661  1.8258  0.0836 -0.3788
11394TIP3    H255674   4.685   0.986   5.803 -0.0249  1.1092 -0.8093
11395TIP3   OH255675   6.540   4.135   1.013  0.1895 -0.5320  0.3433
11395TIP3    H155676   6.446   4.117   1.012  0.2978 -1.6501  3.2151
11395TIP3    H255677   6.546   4.225   1.044 -0.0045  0.9270 -3.6144
11396TIP3   OH255678   6.677   6.806  12.512 -0.1988  0.2519  0.4548
11396TIP3    H155679   6.704   6.818  12.421  1.1757  1.0406  0.9472
11396TIP3    H255680   6.596   6.856  12.520  0.2416  1.0590 -0.0673
11397TIP3   OH255681   4.668   3.936  12.542 -0.3118  0.1692 -0.0329
11397TIP3    H155682   4.602   4.005  12.543 -0.5584 -0.0787  0.5626
11397TIP3    H255683   4.619   3.856  12.528 -0.0387  0.0866 -0.5576
11398TIP3   OH255684   1.495   1.136   1.889  0.5101 -0.0904  0.3303
11398TIP3    H155685   1.455   1.162   1.972  0.4620 -0.6113  0.4717
11398TIP3    H255686   1.510   1.218   1.843 -0.5362  0.1296  0.3661
11399TIP3   OH255687   5.841   3.403   2.074 -0.2338 -0.4637 -0.1370
11399TIP3    H155688   5.768   3.455   2.109 -0.0286 -0.0615 -0.2950
11399TIP3    H255689   5.918   3.459   2.086  0.1027 -1.0194  0.3288
11400TIP3   OH255690   2.691   6.732   0.080  0.1474 -0.0426  0.1835
11400TIP3    H155691   2.786   6.735   0.091  0.1918 -1.1250  0.0811
11400TIP3    H255692   2.657   6.777   0.158  0.7125 -0.5287  0.7180
11401TIP3   OH255693   6.175   4.109   4.658  0.0201 -0.1406  0.1121
11401TIP3    H155694   6.251   4.167   4.665 -0.0610  0.0940 -0.9164
11401TIP3    H255695   6.135   4.112   4.745 -0.1773  1.6182 -0.0165
11402TIP3   OH255696   6.091   1.412  14.533 -0.4488 -0.1304  0.1072
11402TIP3    H155697   6.023   1.345  14.533 -0.6743  0.0929  0.9204
11402TIP3    H255698   6.149   1.387  14.605  0.4859 -0.4712 -0.7512
11403TIP3   OH255699   3.510   4.605   0.986 -0.3986  0.4902  0.2142
11403TIP3    H155700   3.540   4.619   0.896 -0.1860 -1.0514  0.0355
11403TIP3    H255701   3.415   4.615   0.981 -0.3996  0.2652 -0.2025
11404TIP3   OH255702   4.771   1.801  14.094  0.7671  0.3820 -0.4820
11404TIP3    H155703   4.741   1.733  14.034  2.7961 -0.7869 -0.2285
11404TIP3    H255704   4.760   1.762  14.181 -0.9713  1.5893 -0.1328
11405TIP3   OH255705   1.699   5.125  14.923 -0.1024 -1.0170 -0.1013
11405TIP3    H155706   1.748   5.084  14.994 -0.4588 -1.8719 -0.3434
11405TIP3    H255707   1.748   5.205  14.903  1.0847 -1.7492 -0.1864
11406TIP3   OH255708   4.877   1.043  13.053 -0.2610 -0.3857  0.3456
11406TIP3    H155709   4.880   0.963  13.001 -0.2695 -0.8852  1.1115
11406TIP3    H255710   4.823   1.021  13.129 -0.0754  0.2785  0.6773
11407TIP3   OH255711   0.407   4.941  11.940 -0.3187 -0.2201 -0.1338
11407TIP3    H155712   0.408   4.845  11.938 -1.7231 -0.2400 -0.5835
11407TIP3    H255713   0.493   4.967  11.907  0.2454 -1.3232  0.4244
11408TIP3   OH255714   5.235   1.615   3.657 -0.4752 -0.0894 -0.7432
11408TIP3    H155715   5.194   1.700   3.643 -0.8127 -0.3109 -1.1020
11408TIP3    H255716   5.288   1.600   3.579 -1.0916 -0.5948 -1.0659
11409TIP3   OH255717   5.399   1.766  10.980 -0.1747  0.4476  0.2961
11409TIP3    H155718   5.319   1.714  10.992 -0.0429  0.4892  1.4679
11409TIP3    H255719   5.466   1.719  11.029 -0.2158  2.0508  1.9639
11410TIP3   OH255720   6.248   1.086   1.824  0.2955  0.2678  0.0715
11410TIP3    H155721   6.299   1.020   1.777 -2.7186 -1.4099 -0.9608
11410TIP3    H255722   6.245   1.161   1.764  2.6948  0.9517  0.7449
11411TIP3   OH255723   1.124   1.343   6.454 -0.3047  0.1191 -0.2448
11411TIP3    H155724   1.063   1.270   6.465  0.9662 -0.9421 -0.1287
11411TIP3    H255725   1.175   1.321   6.375  3.0022 -1.2792  2.1620
11412TIP3   OH255726   4.114   0.488  13.694 -0.7545  0.0112 -0.2567
11412TIP3    H155727   4.101   0.580  13.719 -2.0789 -0.2819  0.2172
11412TIP3    H255728   4.083   0.483  13.604 -1.3024 -0.0998 -0.0651
11413TIP3   OH255729   2.935   5.342   2.297  0.5482  0.1769  0.1754
11413TIP3    H155730   2.981   5.337   2.213 -1.0407  1.0350 -0.7603
11413TIP3    H255731   2.908   5.252   2.315  2.6547 -0.3546  0.7851
11414TIP3   OH255732   1.555   1.616  15.323  0.2436 -0.5141 -0.1481
11414TIP3    H155733   1.578   1.702  15.288 -0.1742 -0.6155 -0.6722
11414TIP3    H255734   1.489   1.633  15.389  0.8970 -0.3394  0.4644
11415TIP3   OH255735   6.087   5.258   6.610 -0.4143  0.5593  0.1442
11415TIP3    H155736   6.135   5.195   6.663  1.5591 -0.2152 -2.4116
11415TIP3    H255737   6.048   5.205   6.540  0.4386  1.9916 -1.4706
11416TIP3   OH255738   2.530   3.240  12.088  0.4005  0.8308 -0.9215
11416TIP3    H155739   2.458   3.242  12.025  0.1715  0.5173 -0.6729
11416TIP3    H255740   2.488   3.259  12.172 -0.0383 -3.0184 -0.1889
11417TIP3   OH255741   0.100   6.341  16.587 -0.1208  0.2708 -0.1857
11417TIP3    H155742   0.154   6.411  16.624 -2.7644  1.9782  0.5188
11417TIP3    H255743   0.027   6.387  16.545 -0.5490 -1.9565 -1.9568
11418TIP3   OH255744   6.280   6.806   1.035 -0.3879  0.1510  0.3416
11418TIP3    H155745   6.286   6.883   0.978  1.3324  0.2672  0.6507
11418TIP3    H255746   6.195   6.768   1.015 -1.5699  2.5050  0.6612
11419TIP3   OH255747   3.703   6.238   3.521 -0.1138 -0.2796  0.1596
11419TIP3    H155748   3.786   6.216   3.478 -0.5040 -1.4104 -0.0336
11419TIP3    H255749   3.717   6.326   3.556  0.6997  0.0809 -1.0399
11420TIP3   OH255750   0.427   5.215   5.040 -0.1319  0.2949 -0.2570
11420TIP3    H155751   0.479   5.264   5.104 -0.4258  0.6540 -0.2895
11420TIP3    H255752   0.463   5.127   5.042 -0.5554  0.1416  0.8665
11421TIP3   OH255753   4.638   0.232  16.182 -0.3600  0.2237 -0.4434
11421TIP3    H155754   4.610   0.155  16.132 -0.6675 -0.9977  1.5688
11421TIP3    H255755   4.696   0.197  16.250  1.8000  2.1193 -1.2673
11422TIP3   OH255756   0.933   4.320  11.344 -0.1480  0.2980 -0.2872
11422TIP3    H155757   0.952   4.295  11.253 -1.2752  0.8047 -0.6719
11422TIP3    H255758   0.912   4.414  11.339  0.5612  0.5095  0.6142
11423TIP3   OH255759   3.248   0.161  13.698  0.2249 -0.3901 -0.3859
11423TIP3    H155760   3.195   0.082  13.707  2.7569 -1.9970  1.1096
11423TIP3    H255761   3.309   0.140  13.628  1.7383 -0.2782  0.8787
11424TIP3   OH255762   1.077   5.250  10.838  0.2482  0.0150 -0.3035
11424TIP3    H155763   1.042   5.339  10.830  0.8176  0.0691 -2.5162
11424TIP3    H255764   1.012   5.195  10.793 -0.4045 -0.7793  1.5858
11425TIP3   OH255765   2.935   2.900  15.557 -0.0685 -0.0504  0.3936
11425TIP3    H155766   3.009   2.938  15.606 -0.5875 -0.2467  1.3544
11425TIP3    H255767   2.956   2.807  15.550 -0.3092 -0.1359  0.8172
11426TIP3   OH255768   3.036   6.058  15.729  0.0861  1.3152 -0.3924
11426TIP3    H155769   2.994   6.039  15.813 -0.1305 -0.7857 -0.9576
11426TIP3    H255770   2.971   6.109  15.681 -0.6282  0.6900 -0.0988
11427TIP3   OH255771   4.233   5.342  13.947  0.2092  0.1017  0.0086
11427TIP3    H155772   4.234   5.301  14.034 -0.3696  0.4561  0.1842
11427TIP3    H255773   4.254   5.434  13.963  0.2524  0.1364 -0.2456
11428TIP3   OH255774   3.042   1.648   1.483  0.1666  0.3231  0.2681
11428TIP3    H155775   3.096   1.591   1.538 -0.8424 -0.0155  0.9131
11428TIP3    H255776   3.030   1.599   1.402  1.9538  0.9682 -0.4263
11429TIP3   OH255777   1.195   6.028   5.725  0.2447  0.7319 -0.4018
11429TIP3    H155778   1.231   5.977   5.653 -0.5247 -1.5838  0.8049
11429TIP3    H255779   1.254   6.012   5.798 -0.5014  0.8358  0.2371
11430TIP3   OH255780   1.223   3.399   4.651  0.6556  0.8069  0.4716
11430TIP3    H155781   1.255   3.397   4.561 -0.2958 -0.1001  0.1490
11430TIP3    H255782   1.260   3.320   4.691 -0.0022  0.5148  0.5020
11431TIP3   OH255783   2.522   3.714   3.797 -0.2223  0.1210 -0.9600
11431TIP3    H155784   2.536   3.799   3.838  0.2509  0.2497 -1.3774
11431TIP3    H255785   2.574   3.653   3.849 -0.8428  0.0229 -0.4462
11432TIP3   OH255786   5.730   2.265   3.714 -0.7995 -0.3726  0.1171
11432TIP3    H155787   5.740   2.239   3.622  0.4886 -0.1907  0.1955
11432TIP3    H255788   5.635   2.264   3.729 -0.9884 -0.9576 -1.0499
11433TIP3   OH255789   5.611   3.868   0.307  0.2860 -0.1765 -0.5732
11433TIP3    H155790   5.604   3.801   0.374 -0.2557  0.8280  0.3945
11433TIP3    H255791   5.521   3.898   0.293  0.4377 -0.1490 -1.5001
11434TIP3   OH255792   5.522   1.378   0.503 -0.4717 -0.0987 -0.3511
11434TIP3    H155793   5.458   1.404   0.437  0.3014 -0.0951 -1.1066
11434TIP3    H255794   5.470   1.361   0.582 -1.2745  1.0141 -0.6335
11435TIP3   OH255795   2.476   5.721  12.113  0.3749  0.3196 -0.6419
11435TIP3    H155796   2.484   5.800  12.166  2.2679  0.6227 -1.3473
11435TIP3    H255797   2.445   5.753  12.028 -0.4357  0.0943 -0.4410
11436TIP3   OH255798   5.978   4.904  10.877  0.6902 -0.2658  0.0900
11436TIP3    H155799   5.955   4.970  10.943 -0.0402 -0.6053  0.1766
11436TIP3    H255800   6.074   4.899  10.880  0.7259  0.5532  0.3137
11437TIP3   OH255801   2.993   2.741   3.796  0.3103  0.6944 -1.1607
11437TIP3    H155802   3.064   2.742   3.861  1.9638 -2.2499 -2.8437
11437TIP3    H255803   2.924   2.688   3.837  0.7210  0.1404 -1.1861
11438TIP3   OH255804   0.086   0.380   0.615 -0.3077  0.3670  0.4234
11438TIP3    H155805   0.104   0.459   0.565  0.3820 -0.4145 -0.5857
11438TIP3    H255806   0.169   0.360   0.659 -0.1091 -0.5039 -0.3385
11439TIP3   OH255807   0.014   0.953   0.387 -1.0792  0.5105  0.3810
11439TIP3    H155808  -0.017   0.925   0.473 -0.9100 -0.3089  0.1749
11439TIP3    H255809  -0.049   1.020   0.360 -2.5204 -0.9373  0.0967
11440TIP3   OH255810   3.035   6.319   3.831 -0.1228 -0.0708  0.4505
11440TIP3    H155811   3.125   6.294   3.853 -0.0487  1.0284  1.4181
11440TIP3    H255812   3.023   6.405   3.872 -1.6258 -0.2222  0.3476
11441TIP3   OH255813   3.805   1.395  11.929 -0.0013  0.1237 -0.0155
11441TIP3    H155814   3.756   1.334  11.985 -2.1083  0.3356 -1.5917
11441TIP3    H255815   3.856   1.339  11.871 -0.4761 -0.1350 -0.1886
11442TIP3   OH255816   3.938   0.999   0.293 -0.1494 -0.2898  0.1531
11442TIP3    H155817   3.894   1.056   0.356 -1.6055 -0.1696 -0.9503
11442TIP3    H255818   3.918   1.037   0.208 -1.1003 -2.3759 -0.6019
11443TIP3   OH255819   0.860   6.101   5.437 -0.4413  0.0683  0.1969
11443TIP3    H155820   0.869   6.010   5.412 -0.8010  0.3932 -1.1202
11443TIP3    H255821   0.884   6.151   5.359 -0.7544  1.0935  0.7388
11444TIP3   OH255822   2.007   6.219   4.447  0.0641  0.0020  0.2568
11444TIP3    H155823   1.994   6.206   4.353 -0.3243  2.5765 -0.0884
11444TIP3    H255824   2.000   6.313   4.459 -0.9667 -0.3742  3.0484
11445TIP3   OH255825   5.333   1.280  12.974  0.1845 -0.3889 -0.5105
11445TIP3    H155826   5.402   1.264  13.038  0.4384  2.5087 -0.0176
11445TIP3    H255827   5.253   1.248  13.017  0.3387  1.5966  1.3049
11446TIP3   OH255828   2.997   6.598   3.205 -0.7681  0.3970 -0.6543
11446TIP3    H155829   2.952   6.517   3.229 -2.0502  0.8881 -1.3294
11446TIP3    H255830   2.989   6.653   3.283  2.1949 -0.9697  0.6742
11447TIP3   OH255831   1.962   1.005  10.662 -0.8815  0.3131  0.2743
11447TIP3    H155832   2.039   0.951  10.644  0.7513  2.6307  0.0223
11447TIP3    H255833   1.985   1.053  10.741 -2.3763  0.4757  0.6126
11448TIP3   OH255834   6.667   3.265   2.821  0.9275  0.0136 -0.0169
11448TIP3    H155835   6.737   3.313   2.776  1.1161  0.8328  1.1238
11448TIP3    H255836   6.613   3.230   2.750  0.5631  2.2535 -0.9164
11449TIP3   OH255837   0.232   4.751   1.302 -0.2760  0.3172 -0.2912
11449TIP3    H155838   0.174   4.698   1.357  1.2089  0.2413  1.2516
11449TIP3    H255839   0.199   4.737   1.213 -1.7706 -0.8021  0.4005
11450TIP3   OH255840   4.757   2.729   2.853 -0.6722 -0.0848 -0.2292
11450TIP3    H155841   4.821   2.700   2.788 -2.8697  0.6786 -2.8381
11450TIP3    H255842   4.687   2.665   2.848 -2.2284  1.6055 -0.8294
11451TIP3   OH255843   2.099   5.996   3.723  0.3614  0.3583  0.2112
11451TIP3    H155844   2.157   5.998   3.799 -0.2617 -0.4884  0.7210
11451TIP3    H255845   2.045   6.075   3.731  0.9719  0.7880  0.1068
11452TIP3   OH255846   0.577   4.704   4.653  0.1921 -0.1317  0.5462
11452TIP3    H155847   0.551   4.643   4.584 -0.5073 -0.5994  1.2090
11452TIP3    H255848   0.633   4.768   4.610  4.3042 -3.5060  0.5922
11453TIP3   OH255849   0.670   3.480   1.359  0.4861  0.4740 -0.3307
11453TIP3    H155850   0.709   3.411   1.305  1.4123  1.7758 -1.3640
11453TIP3    H255851   0.650   3.437   1.442 -1.0079 -1.5808 -1.6990
11454TIP3   OH255852   5.827   5.997  15.925  0.0125 -0.2662  0.2150
11454TIP3    H155853   5.889   5.955  15.984  0.9649 -0.8422 -1.1577
11454TIP3    H255854   5.881   6.054  15.871 -0.7670 -0.1585 -0.4550
11455TIP3   OH255855   6.515   0.780  10.889 -0.0512 -0.0489  0.1910
11455TIP3    H155856   6.435   0.774  10.837  0.3787 -0.7224 -0.3994
11455TIP3    H255857   6.568   0.846  10.844 -0.4094  0.6339  0.7672
11456TIP3   OH255858   0.453   6.049  17.210 -0.1784  0.5210  0.0963
11456TIP3    H155859   0.541   6.085  17.220  0.5785 -1.5625  1.0732
11456TIP3    H255860   0.416   6.048  17.298 -0.2782 -0.8573  0.0529
11457TIP3   OH255861   5.266   3.317  15.110 -0.4027 -0.2037  0.3381
11457TIP3    H155862   5.292   3.244  15.053  0.2634 -0.4825  0.9829
11457TIP3    H255863   5.262   3.278  15.197  2.1414  0.9978  1.0518
11458TIP3   OH255864   1.089   4.750   1.175  0.2363  0.2053  0.2851
11458TIP3    H155865   1.182   4.769   1.183  0.3835 -0.2338 -0.3554
11458TIP3    H255866   1.084   4.654   1.177 -0.0822  0.1916 -0.9092
11459TIP3   OH255867   2.344   4.857   5.893 -0.9001 -0.0505 -0.2386
11459TIP3    H155868   2.255   4.840   5.863 -0.5846 -0.4186 -0.9824
11459TIP3    H255869   2.345   4.826   5.983 -2.8754  4.3532  1.4237
11460TIP3   OH255870   1.139   2.710   1.924  0.0229  0.0883 -0.1030
11460TIP3    H155871   1.069   2.705   1.988  1.2277  0.1587  1.2638
11460TIP3    H255872   1.099   2.683   1.841 -1.5643  0.0359  0.6649
11461TIP3   OH255873   0.732   3.911  15.679  0.2110  0.1516  0.4708
11461TIP3    H155874   0.796   3.855  15.722 -0.2790 -1.9968 -1.4688
11461TIP3    H255875   0.664   3.925  15.746  0.0545 -2.0864  0.8328
11462TIP3   OH255876   0.873   1.300   5.364  0.2027  0.4307  0.0499
11462TIP3    H155877   0.823   1.381   5.368  0.7979  0.7669  0.9573
11462TIP3    H255878   0.813   1.236   5.326 -0.9483  0.8033  1.1984
11463TIP3   OH255879   4.051   5.396  16.259  0.0791 -0.8498  0.1418
11463TIP3    H155880   4.096   5.311  16.257  2.3268  0.2632  1.3796
11463TIP3    H255881   4.059   5.428  16.169  2.1990 -0.4953  0.4166
11464TIP3   OH255882   6.430   3.206  12.646 -0.3797  0.8981  0.1957
11464TIP3    H155883   6.444   3.137  12.711 -0.2804  1.4955  0.8163
11464TIP3    H255884   6.443   3.162  12.561 -1.0749 -0.0109  0.5539
11465TIP3   OH255885   4.707   2.970  14.424 -0.2890  0.2487  0.4194
11465TIP3    H155886   4.779   2.928  14.377 -1.7098 -2.6219  0.7544
11465TIP3    H255887   4.675   3.037  14.364 -0.6600 -1.8966 -1.8223
11466TIP3   OH255888   3.118   6.714  12.876  0.1897  0.6291  0.4732
11466TIP3    H155889   3.080   6.791  12.917  0.4633  0.3050  1.3503
11466TIP3    H255890   3.043   6.665  12.844  0.0944  2.0112 -1.4646
11467TIP3   OH255891   1.501   0.154   2.349  0.2720 -0.6759  0.5806
11467TIP3    H155892   1.551   0.134   2.428  2.0378 -1.1805 -0.6452
11467TIP3    H255893   1.442   0.079   2.340 -0.9816  0.0740  2.2048
11468TIP3   OH255894   5.990   2.541   2.523  0.1721 -0.1575 -0.3468
11468TIP3    H155895   6.030   2.456   2.502 -0.1901 -1.2307  2.9693
11468TIP3    H255896   5.896   2.525   2.516  0.1343  0.3282 -0.9355
11469TIP3   OH255897   0.907   2.477   1.557  0.1596 -0.7734 -0.0710
11469TIP3    H155898   0.869   2.465   1.470  0.3780  1.1706 -0.4459
11469TIP3    H255899   0.845   2.532   1.604  0.5755 -0.8983  0.6354
11470TIP3   OH255900   1.889   1.104  14.942  0.1629 -0.5283 -0.2562
11470TIP3    H155901   1.976   1.105  14.903 -0.8873  1.1274 -2.6831
11470TIP3    H255902   1.865   1.197  14.948 -1.0572 -0.9221  1.2987
11471TIP3   OH255903   3.513   1.330  15.096 -0.6127  0.0402  0.0051
11471TIP3    H155904   3.490   1.243  15.128  1.1259  0.2397  1.9182
11471TIP3    H255905   3.433   1.381  15.105 -0.4755 -0.2110  3.1335
11472TIP3   OH255906   1.009   5.529  14.826 -0.0354 -0.6298 -0.3887
11472TIP3    H155907   1.045   5.477  14.754 -0.3394 -0.3760 -0.7267
11472TIP3    H255908   0.957   5.597  14.783  0.4398  0.0202  0.0395
11473TIP3   OH255909   3.738   2.171  10.483 -0.7234  1.0038 -0.5938
11473TIP3    H155910   3.669   2.173  10.417 -1.4683 -0.2627  0.1240
11473TIP3    H255911   3.780   2.257  10.477 -1.5249  1.3087 -1.9244
11474TIP3   OH255912   0.797   5.036  11.455 -0.0244 -0.6233 -0.0807
11474TIP3    H155913   0.707   5.059  11.480  0.1466  1.5648 -1.4197
11474TIP3    H255914   0.823   4.971  11.520 -2.1187 -0.3310  1.1107
11475TIP3   OH255915   3.745   1.259  14.974  0.6801  0.1803 -0.1500
11475TIP3    H155916   3.690   1.337  14.988  1.6290  0.8685 -0.1633
11475TIP3    H255917   3.806   1.286  14.905  0.7308 -0.7329 -0.4569
11476TIP3   OH255918   3.190   4.197  15.323 -0.1452  0.5266  0.4018
11476TIP3    H155919   3.166   4.154  15.241 -1.5990 -0.8709  1.5560
11476TIP3    H255920   3.284   4.181  15.331 -0.1538 -0.0670 -0.5529
11477TIP3   OH255921   6.243   6.568   5.629  0.2907 -0.2356  0.1304
11477TIP3    H155922   6.196   6.637   5.676  0.4971  0.3402 -0.4949
11477TIP3    H255923   6.189   6.550   5.552 -0.0787 -1.2173  0.6202
11478TIP3   OH255924   0.043   4.674  13.292 -0.0391  0.4075  0.4898
11478TIP3    H155925  -0.048   4.679  13.261  0.5812  0.4485 -1.3730
11478TIP3    H255926   0.050   4.744  13.357 -0.9976  1.2003 -0.2481
11479TIP3   OH255927   1.387   1.953  15.166 -0.2475 -0.0746 -0.3490
11479TIP3    H155928   1.428   1.882  15.117  0.1967 -0.1773  0.1607
11479TIP3    H255929   1.450   2.026  15.159  0.9178 -0.8033  1.9717
11480TIP3   OH255930   5.188   4.318  14.404  0.1043 -0.3783 -0.0221
11480TIP3    H155931   5.196   4.278  14.491 -0.5558 -0.6318 -0.0787
11480TIP3    H255932   5.109   4.370  14.409  0.2066 -0.1847 -0.3953
11481TIP3   OH255933   5.887   0.743  13.458  0.5863 -0.3592  0.3077
11481TIP3    H155934   5.918   0.659  13.423 -1.0597 -1.1907  0.7739
11481TIP3    H255935   5.837   0.719  13.536  0.7711  1.1302  0.8947
11482TIP3   OH255936   0.519   3.889   5.045  0.3627 -0.2981  0.2807
11482TIP3    H155937   0.444   3.948   5.043  1.8960  1.7073 -2.1191
11482TIP3    H255938   0.568   3.916   5.122  1.3191  2.0387 -1.0750
11483TIP3   OH255939   4.797   2.594   6.104 -0.4896 -0.3059  0.7396
11483TIP3    H155940   4.746   2.618   6.182 -0.4490 -1.2711  1.0690
11483TIP3    H255941   4.888   2.599   6.132 -0.4687 -0.4521  0.7011
11484TIP3   OH255942   5.124   6.163  11.988  0.6211 -0.0500 -0.0228
11484TIP3    H155943   5.086   6.246  12.016 -0.9091 -1.4559  2.2847
11484TIP3    H255944   5.199   6.150  12.046 -0.9916 -1.7008  1.8187
11485TIP3   OH255945   0.989   2.994  14.881 -0.1333  0.1627 -0.2855
11485TIP3    H155946   1.035   3.050  14.819 -0.0426 -1.4274 -1.7072
11485TIP3    H255947   0.992   2.907  14.841 -0.5556 -0.8020  1.6920
11486TIP3   OH255948   6.616   3.257  15.890  0.5545 -0.5566  1.2341
11486TIP3    H155949   6.560   3.279  15.964  0.7197 -1.5674  1.6781
11486TIP3    H255950   6.704   3.250  15.927  0.8732  0.3205  0.6753
11487TIP3   OH255951   4.964   5.285  15.565 -0.0645  0.0696  0.1458
11487TIP3    H155952   4.916   5.202  15.573 -0.4643  0.4018  1.2018
11487TIP3    H255953   5.014   5.292  15.646 -0.6643  1.2711  0.4219
11488TIP3   OH255954   2.826   0.670   4.873 -0.0706  0.2048 -0.3762
11488TIP3    H155955   2.738   0.631   4.874  0.6220 -1.3875 -0.6501
11488TIP3    H255956   2.876   0.619   4.936  1.0919  0.0928 -1.3666
11489TIP3   OH255957   1.180   3.299   2.962 -0.7739  0.0835  0.2054
11489TIP3    H155958   1.192   3.233   2.894  0.3462  1.5106 -1.0238
11489TIP3    H255959   1.099   3.273   3.006 -0.1008 -2.3884  0.0971
11490TIP3   OH255960   5.246   2.496  14.964 -0.3565  0.4742  0.2888
11490TIP3    H155961   5.335   2.474  14.993 -0.5794 -0.7646  0.0323
11490TIP3    H255962   5.190   2.434  15.010 -0.9548  0.2398 -0.7687
11491TIP3   OH255963   2.042   3.444   2.171  0.1569 -0.6008 -0.2503
11491TIP3    H155964   2.016   3.367   2.121 -0.8754 -1.0111  0.8786
11491TIP3    H255965   1.986   3.442   2.249 -0.0271  1.4120 -0.3105
11492TIP3   OH255966   1.906   0.833  15.569 -0.7518  0.1257  0.2230
11492TIP3    H155967   1.922   0.747  15.529  0.6197  0.7041 -0.5158
11492TIP3    H255968   1.930   0.822  15.661 -0.1090 -0.1679  0.0249
11493TIP3   OH255969   0.339   4.854  11.291  0.4485  0.2130  0.1465
11493TIP3    H155970   0.262   4.816  11.334 -0.1503 -0.7047 -1.7132
11493TIP3    H255971   0.399   4.874  11.363  0.4164 -3.3848  1.2378
11494TIP3   OH255972   6.721   5.263  16.831 -0.0745 -0.1787  0.2826
11494TIP3    H155973   6.709   5.233  16.741 -1.3104 -1.3132  0.7935
11494TIP3    H255974   6.734   5.182  16.881 -0.7114  0.3416  1.3032
11495TIP3   OH255975   2.484   3.119  12.802  0.1946 -0.0577 -0.4703
11495TIP3    H155976   2.488   3.165  12.718 -1.0035 -0.7304 -0.9165
11495TIP3    H255977   2.491   3.188  12.868  1.1772  0.4699 -1.1216
11496TIP3   OH255978   6.716   2.969  17.108 -0.3724  0.0146 -0.4164
11496TIP3    H155979   6.620   2.974  17.115 -0.3190  0.5171  0.0083
11496TIP3    H255980   6.732   2.948  17.017 -0.8354  1.8438 -0.9433
11497TIP3   OH255981   1.361   2.842   5.011  0.3600  0.3187 -0.7029
11497TIP3    H155982   1.310   2.790   4.949 -0.6043  0.4184  0.0001
11497TIP3    H255983   1.345   2.801   5.096  2.8795 -0.7592 -0.6880
11498TIP3   OH255984   0.547   6.626  14.527 -0.2641  0.5697  0.0547
11498TIP3    H155985   0.601   6.704  14.540 -1.4821  1.5580 -0.6611
11498TIP3    H255986   0.470   6.641  14.582  0.1817 -0.8216  1.0574
11499TIP3   OH255987   2.517   6.407   1.122 -0.6763 -0.3369  0.4760
11499TIP3    H155988   2.532   6.367   1.208  0.5772  0.3557  0.5956
11499TIP3    H255989   2.434   6.370   1.092  1.3186 -4.4769 -0.2503
11500TIP3   OH255990   2.710   4.348   2.000 -0.3851 -0.1010  0.3753
11500TIP3    H155991   2.751   4.282   2.057  0.9722 -0.6301 -1.1583
11500TIP3    H255992   2.714   4.309   1.913 -0.0039  1.8267 -0.4806
11501TIP3   OH255993   6.794   6.455   3.322 -0.2633  0.5443 -0.0038
11501TIP3    H155994   6.763   6.487   3.407  1.6941 -0.7403  1.2184
11501TIP3    H255995   6.762   6.365   3.316  1.0803  0.0373  0.1755
11502TIP3   OH255996   0.372   4.021  13.848  0.2853 -0.2772 -0.1136
11502TIP3    H155997   0.425   4.089  13.889 -0.6136  1.4667 -1.7703
11502TIP3    H255998   0.433   3.947  13.837  2.2281  1.4481 -1.3553
11503TIP3   OH255999   3.520   0.380   4.491  0.1224  0.0279 -0.2480
11503TIP3    H156000   3.468   0.443   4.440 -0.3547  0.3821  0.6704
11503TIP3    H256001   3.609   0.388   4.455  0.1408  1.4934  0.1131
11504TIP3   OH256002   5.499   3.185   2.123 -0.0112  0.2888 -0.6099
11504TIP3    H156003   5.440   3.110   2.120 -0.4208  0.6380 -1.2044
11504TIP3    H256004   5.534   3.184   2.212  0.4769 -0.9883 -0.7958
11505TIP3   OH256005   3.248   1.699   6.201 -0.4323  0.0291  0.2455
11505TIP3    H156006   3.256   1.664   6.290 -0.6421 -1.0139 -0.1371
11505TIP3    H256007   3.231   1.622   6.147 -0.2581  0.6542 -0.7070
11506TIP3   OH256008   5.762   4.960   0.819 -0.1959 -0.1965  0.0249
11506TIP3    H156009   5.797   4.871   0.813 -1.3275 -0.6992  0.6083
11506TIP3    H256010   5.832   5.010   0.861  0.4872 -0.7846 -0.3984
11507TIP3   OH256011   4.676   0.124  13.478 -0.3877  0.7326 -0.3215
11507TIP3    H156012   4.639   0.079  13.554  0.3210 -0.0889 -0.4588
11507TIP3    H256013   4.600   0.156  13.429 -0.8436  2.6590  1.5441
11508TIP3   OH256014   1.104   0.551  13.278 -0.3317  1.1202  0.2871
11508TIP3    H156015   1.038   0.485  13.256 -0.0043 -0.1981  3.0534
11508TIP3    H256016   1.164   0.506  13.337  2.3744  2.6569 -1.2060
11509TIP3   OH256017   1.662   2.551  12.583 -0.2442 -0.2447  0.1549
11509TIP3    H156018   1.644   2.567  12.491 -1.9451  0.0585  0.5165
11509TIP3    H256019   1.670   2.456  12.590  1.2915 -0.1747 -0.5330
11510TIP3   OH256020   5.167   0.291   6.527  0.0415 -0.0455 -0.1284
11510TIP3    H156021   5.081   0.282   6.569 -0.7089  1.8631 -1.1492
11510TIP3    H256022   5.153   0.357   6.458  1.7267 -1.5592 -1.9896
11511TIP3   OH256023   1.232   5.924   1.675  0.2898  0.3620  0.2612
11511TIP3    H156024   1.256   5.889   1.589  2.5148 -1.6104  1.6303
11511TIP3    H256025   1.163   5.866   1.706  0.3481  0.3262  0.3253
11512TIP3   OH256026   2.594   6.709  14.483  0.4477  0.0414 -0.0317
11512TIP3    H156027   2.682   6.694  14.518  0.6595 -1.3986 -1.1050
11512TIP3    H256028   2.578   6.802  14.498  2.3507  0.4340 -0.2070
11513TIP3   OH256029   6.746   1.909   3.334  0.0416 -0.1806 -0.2188
11513TIP3    H156030   6.802   1.979   3.300  0.1388  0.1705  0.6606
11513TIP3    H256031   6.800   1.831   3.331 -0.2653 -0.3567 -1.7921
11514TIP3   OH256032   5.847   1.107   2.665 -0.0432  0.0712 -0.8565
11514TIP3    H156033   5.800   1.039   2.712 -0.5072 -1.6817 -3.7356
11514TIP3    H256034   5.846   1.183   2.724  0.0379 -2.2225  2.1804
11515TIP3   OH256035   1.249   2.255  13.226  0.0448  0.7171  0.1159
11515TIP3    H156036   1.319   2.191  13.239 -1.1875 -0.9561 -1.1800
11515TIP3    H256037   1.285   2.337  13.257  2.3309 -0.2608  0.1299
11516TIP3   OH256038   1.951   2.705  15.831  0.2779  0.1992 -0.5537
11516TIP3    H156039   2.005   2.698  15.910 -1.0239 -0.6835  0.2802
11516TIP3    H256040   1.968   2.625  15.783  0.3211  0.2902 -0.6906
11517TIP3   OH256041   5.146   2.891   2.973 -0.6376 -0.1101 -0.3472
11517TIP3    H156042   5.114   2.859   3.057 -1.2919  0.0305 -0.5398
11517TIP3    H256043   5.241   2.875   2.975 -0.4422  1.1179  0.9601
11518TIP3   OH256044   3.733   0.617   5.901  0.2726 -0.8773 -0.0232
11518TIP3    H156045   3.652   0.577   5.933  0.2958 -1.4569 -0.6724
11518TIP3    H256046   3.705   0.673   5.829  0.4706 -1.1783 -0.3311
11519TIP3   OH256047   4.402   1.699  11.882  0.2960 -0.2148 -0.3890
11519TIP3    H156048   4.437   1.779  11.841  1.5545 -1.4225 -1.7498
11519TIP3    H256049   4.479   1.645  11.899 -0.5362 -1.1226  0.5715
11520TIP3   OH256050   5.077   2.046  16.731 -0.6323 -0.0140 -0.6418
11520TIP3    H156051   5.010   2.034  16.664 -0.1848 -2.0999 -0.7526
11520TIP3    H256052   5.156   2.005  16.694 -0.2799 -0.8627  0.9757
11521TIP3   OH256053   5.879   5.297   0.733  0.1329  0.0850 -0.0919
11521TIP3    H156054   5.810   5.331   0.676  0.5389 -1.0317 -1.2462
11521TIP3    H256055   5.840   5.299   0.821 -0.7951  0.9651 -0.5121
11522TIP3   OH256056   3.304   4.227   0.173 -0.3573 -0.0401 -0.3788
11522TIP3    H156057   3.221   4.229   0.125 -1.3589 -2.2064  1.2378
11522TIP3    H256058   3.365   4.181   0.114 -0.8723 -0.3677 -0.6580
11523TIP3   OH256059   3.932   4.207  10.569 -0.7774  0.1064 -0.1673
11523TIP3    H156060   3.880   4.209  10.649 -1.0638 -1.9068 -0.2878
11523TIP3    H256061   4.016   4.244  10.594 -1.7805  2.1184  0.3636
11524TIP3   OH256062   0.993   6.435  13.880 -0.5279 -0.0292  0.2461
11524TIP3    H156063   1.044   6.514  13.898  0.1389 -0.6630  1.1953
11524TIP3    H256064   0.906   6.454  13.915 -0.2223  0.0829  0.9496
11525TIP3   OH256065   4.813   0.149   5.765 -0.1247  0.3402  0.4801
11525TIP3    H156066   4.856   0.154   5.679  0.2310  0.0726  0.6438
11525TIP3    H256067   4.862   0.083   5.813 -0.3176  0.4983  0.8973
11526TIP3   OH256068   6.794   1.987   0.577  0.3898  0.8584  0.1065
11526TIP3    H156069   6.878   2.031   0.561  0.1253  1.7426  1.1138
11526TIP3    H256070   6.729   2.047   0.540  0.3027 -0.6712 -2.3219
11527TIP3   OH256071   0.820   2.435   5.659  0.0609  0.1139  0.4301
11527TIP3    H156072   0.903   2.403   5.694  0.7848 -1.8321 -2.8797
11527TIP3    H256073   0.824   2.530   5.670  3.1839  0.1490 -0.6127
11528TIP3   OH256074   2.087   6.109  16.343  0.3709  0.0330 -0.7546
11528TIP3    H156075   2.016   6.066  16.295 -0.1137 -1.6170  1.3411
11528TIP3    H256076   2.057   6.199  16.354 -0.5492 -0.1617 -1.5255
11529TIP3   OH256077   1.136   1.939  11.938 -0.3615 -0.1526 -0.2081
11529TIP3    H156078   1.096   1.855  11.961 -0.5887 -0.2219 -0.8510
11529TIP3    H256079   1.151   1.933  11.844 -2.2639  1.3294 -0.6255
11530TIP3   OH256080   4.904   0.807  10.652  0.8888  0.2745 -0.0321
11530TIP3    H156081   4.993   0.782  10.676  0.4302 -0.5542  0.8086
11530TIP3    H256082   4.861   0.725  10.628  0.0404  0.5340  0.5762
11531TIP3   OH256083   6.311   0.300   0.217  0.8548 -0.1774 -0.0412
11531TIP3    H156084   6.252   0.352   0.270 -0.4703 -0.6165 -1.0498
11531TIP3    H256085   6.395   0.345   0.223  0.5579  0.1555  1.8380
11532TIP3   OH256086   3.204   1.695   2.629 -0.2837 -0.3631  0.9799
11532TIP3    H156087   3.296   1.667   2.624 -0.6427 -1.3356 -0.4543
11532TIP3    H256088   3.159   1.622   2.672 -0.7084 -0.7026 -0.0390
11533TIP3   OH256089   1.623   0.033   0.930 -0.0451 -0.0796  0.6128
11533TIP3    H156090   1.708   0.053   0.969 -0.4078  0.6475  1.0485
11533TIP3    H256091   1.635  -0.053   0.889  0.1726 -1.1307  2.8301
11534TIP3   OH256092   5.543   1.997  13.960  0.0697 -0.2811 -0.2769
11534TIP3    H156093   5.453   2.018  13.935  0.5029  1.4552 -0.4577
11534TIP3    H256094   5.594   2.073  13.932  1.7129 -1.5509 -0.8095
11535TIP3   OH256095   1.275   2.614  15.568 -0.7283  0.0386  0.3811
11535TIP3    H156096   1.325   2.534  15.581  0.7706  0.4193 -2.6437
11535TIP3    H256097   1.188   2.594  15.602 -0.6123 -3.1377 -1.0449
11536TIP3   OH256098   1.390   1.090   5.010 -0.1470  0.4363 -0.7809
11536TIP3    H156099   1.399   1.005   5.052 -0.5945 -0.0008 -1.5698
11536TIP3    H256100   1.479   1.113   4.983 -0.0340  0.2054 -0.6025
11537TIP3   OH256101   0.662   1.038  10.840  0.0872  0.0056 -0.2222
11537TIP3    H156102   0.720   1.091  10.894  0.0377  0.6720 -0.8246
11537TIP3    H256103   0.714   1.014  10.764  0.2154 -1.0941  0.1931
11538TIP3   OH256104   2.220   3.584  12.677  0.0813 -0.0851  0.0530
11538TIP3    H156105   2.177   3.500  12.690 -0.8101  0.4461  0.5411
11538TIP3    H256106   2.230   3.591  12.582 -2.0998  0.3722 -0.1564
11539TIP3   OH256107   1.182   0.440   5.833 -0.0489  0.0329 -0.0018
11539TIP3    H156108   1.112   0.479   5.886  1.3912  0.8529  1.3429
11539TIP3    H256109   1.203   0.507   5.768 -1.5349 -0.8133 -1.3888
11540TIP3   OH256110   0.029   0.055   2.037 -0.1465  0.0657  0.6364
11540TIP3    H156111  -0.005  -0.006   1.972  0.1813  1.7997 -1.2042
11540TIP3    H256112   0.018   0.010   2.121 -0.4676 -2.2486 -0.6225
11541TIP3   OH256113   4.235   0.644  15.211 -0.4896  0.0758  0.3276
11541TIP3    H156114   4.266   0.577  15.150 -1.5309 -0.5175  0.4426
11541TIP3    H256115   4.154   0.609  15.246 -0.6034  1.0265  1.0337
11542TIP3   OH256116   6.505   2.936   5.711  0.1319  0.3487 -0.2563
11542TIP3    H156117   6.472   2.855   5.750  1.3435  0.3827  0.8475
11542TIP3    H256118   6.487   2.926   5.617  1.7312 -1.9212 -0.3699
11543TIP3   OH256119   1.526   3.229   1.566 -0.2993  0.0075 -0.5124
11543TIP3    H156120   1.609   3.222   1.613 -0.1275  0.7626 -0.6995
11543TIP3    H256121   1.462   3.188   1.624  0.4137 -1.6950 -0.9124
11544TIP3   OH256122   6.032   0.801   0.951 -0.1178  0.1799  0.3978
11544TIP3    H156123   5.996   0.818   0.864 -0.0750 -1.1211  0.1255
11544TIP3    H256124   6.059   0.710   0.949 -0.3606  0.0608  1.8667
11545TIP3   OH256125   5.293   1.823  12.188  0.3295  0.2161 -0.6244
11545TIP3    H156126   5.349   1.750  12.161  0.0795 -0.4104  0.5246
11545TIP3    H256127   5.304   1.827  12.283 -0.4325  1.0396 -0.5723
11546TIP3   OH256128   3.683   3.757   6.214 -0.1808  0.2433 -0.2582
11546TIP3    H156129   3.774   3.735   6.231 -0.7346 -0.9130  1.3008
11546TIP3    H256130   3.677   3.851   6.234  0.5657  0.2275  0.0546
11547TIP3   OH256131   2.421   6.298   4.259  0.8729 -0.4178 -0.0684
11547TIP3    H156132   2.498   6.323   4.209 -0.2539  2.3112 -0.5185
11547TIP3    H256133   2.352   6.287   4.194  0.3048 -0.5551  0.5436
11548TIP3   OH256134   1.936   1.687   5.838  0.4635  0.0056  0.2418
11548TIP3    H156135   1.853   1.646   5.860 -0.0095  0.8370  0.0165
11548TIP3    H256136   2.002   1.632   5.880 -0.0028 -2.3143 -1.9457
11549TIP3   OH256137   1.661   0.782  15.996  0.3618 -0.0625  0.1259
11549TIP3    H156138   1.638   0.689  16.000 -0.1803  0.0945  0.7584
11549TIP3    H256139   1.583   0.824  15.960  0.6780  0.1243 -0.3456
11550TIP3   OH256140   4.153   6.127   4.706  0.8222 -0.4499  0.3958
11550TIP3    H156141   4.073   6.151   4.751  0.4492 -0.7194 -0.1221
11550TIP3    H256142   4.190   6.210   4.676  0.9754 -0.2859  1.0279
11551TIP3   OH256143   4.332   1.743  12.587  0.2697 -0.1879  0.3874
11551TIP3    H156144   4.372   1.714  12.505  0.1225  1.4998 -0.3104
11551TIP3    H256145   4.257   1.685  12.599  0.8212 -1.0381 -0.1872
11552TIP3   OH256146   1.979   0.294   1.284  0.0424 -0.2241  0.1301
11552TIP3    H156147   2.006   0.361   1.221 -1.2011  0.5708  0.4363
11552TIP3    H256148   2.058   0.277   1.335  0.4785  0.7198 -0.2073
11553TIP3   OH256149   6.280   3.934  16.537  0.2786  0.6612  0.3564
11553TIP3    H156150   6.366   3.975  16.529  0.5251  0.2441  0.8593
11553TIP3    H256151   6.258   3.907  16.448  1.0099  0.0756  0.3581
11554TIP3   OH256152   3.401   0.714   0.774  0.0729 -0.0587 -0.4318
11554TIP3    H156153   3.349   0.782   0.731  0.4350 -0.0407 -0.8469
11554TIP3    H256154   3.422   0.652   0.705  2.4877  1.0808 -0.8035
11555TIP3   OH256155   3.069   0.190   5.403  0.1322  0.0044  0.8379
11555TIP3    H156156   3.049   0.194   5.310 -1.8125 -1.1052  1.1789
11555TIP3    H256157   2.993   0.230   5.445  0.6676 -0.1765  1.9931
11556TIP3   OH256158   6.765   4.410  13.655  0.8447 -0.4125 -0.2484
11556TIP3    H156159   6.715   4.334  13.685 -1.3761  0.6588 -1.0460
11556TIP3    H256160   6.700   4.463  13.608  3.1524  0.2428 -2.7866
11557TIP3   OH256161   4.831   3.042   0.319  0.1226  0.6224 -0.3648
11557TIP3    H156162   4.902   3.093   0.358  1.6255 -1.7488  0.1577
11557TIP3    H256163   4.816   3.083   0.234  0.5762  2.5179  0.4447
11558TIP3   OH256164   0.169   3.702   4.995 -0.5608 -0.3121 -0.1595
11558TIP3    H156165   0.180   3.736   4.907 -0.6434  0.4178  0.1071
11558TIP3    H256166   0.176   3.779   5.052 -0.2633 -0.8069  0.4862
11559TIP3   OH256167   6.263   2.079  13.199  0.0237 -0.4695  0.3229
11559TIP3    H156168   6.175   2.115  13.212  0.4315  0.2463  1.1861
11559TIP3    H256169   6.257   1.988  13.227 -0.0545  0.0186  1.9478
11560TIP3   OH256170   0.393   2.607  15.025 -0.0310  0.1853 -1.0195
11560TIP3    H156171   0.354   2.556  14.955 -0.2443 -0.6191 -0.3270
11560TIP3    H256172   0.486   2.611  15.003  0.3245 -2.1004 -0.1432
11561TIP3   OH256173   1.545   1.208  14.383 -0.0459 -0.4203  0.4974
11561TIP3    H156174   1.478   1.143  14.399 -1.4017  0.6381 -0.7491
11561TIP3    H256175   1.514   1.287  14.427 -0.2924  0.4425 -1.1559
11562TIP3   OH256176   6.747   4.819  11.113  0.3061 -0.5342  0.2690
11562TIP3    H156177   6.771   4.735  11.072 -1.2497 -0.8039 -0.1404
11562TIP3    H256178   6.697   4.865  11.046  0.0947  0.2049  0.9232
11563TIP3   OH256179   5.487   4.557   2.135 -0.0315  0.1751  1.0135
11563TIP3    H156180   5.580   4.575   2.143 -0.1893  0.9572  1.0893
11563TIP3    H256181   5.449   4.592   2.216 -0.9429  3.5138 -0.7629
11564TIP3   OH256182   5.790   2.615  13.741  0.0484  0.2063 -0.4714
11564TIP3    H156183   5.721   2.572  13.791  0.3846  0.0592 -0.1233
11564TIP3    H256184   5.754   2.626  13.653 -0.8354  1.1619  0.0010
11565TIP3   OH256185   6.704   0.030  14.683 -0.6678 -0.5042  0.0063
11565TIP3    H156186   6.722  -0.028  14.609  1.9100 -0.3601  0.4685
11565TIP3    H256187   6.743  -0.016  14.758  2.8414  2.4746  0.1412
11566TIP3   OH256188   2.269   4.046   2.136 -0.2308 -0.3874 -0.1855
11566TIP3    H156189   2.359   4.024   2.159 -0.7520 -1.9349  0.4371
11566TIP3    H256190   2.272   4.067   2.043  0.6224 -1.2243 -0.3442
11567TIP3   OH256191   4.482   2.683  11.795 -0.1203  0.0922 -0.2283
11567TIP3    H156192   4.516   2.615  11.852  1.6404 -1.1166 -2.6316
11567TIP3    H256193   4.387   2.673  11.798 -0.2045  1.2200  3.8036
11568TIP3   OH256194   2.328   6.208  16.242  0.0605  0.4251 -0.1212
11568TIP3    H156195   2.283   6.196  16.326  0.3267 -1.8697 -0.2773
11568TIP3    H256196   2.259   6.209  16.177 -0.0285  0.6185 -0.0231
11569TIP3   OH256197   6.544   1.232   0.495  0.3221  0.2865  0.0503
11569TIP3    H156198   6.523   1.188   0.577  0.6863  1.1099  0.5924
11569TIP3    H256199   6.471   1.291   0.480  0.7588  0.8962  0.3255
11570TIP3   OH256200   2.505   6.192  15.637  0.7652  0.0476  0.3271
11570TIP3    H156201   2.429   6.247  15.615  0.3845 -1.5144 -2.4097
11570TIP3    H256202   2.581   6.244  15.612  0.4699  0.0242 -0.6103
11571TIP3   OH256203   1.455   5.185  15.758  1.0946  0.4248  0.6066
11571TIP3    H156204   1.415   5.225  15.834 -0.3709 -0.3875  0.2842
11571TIP3    H256205   1.460   5.092  15.779 -1.4447 -0.1819 -1.1389
11572TIP3   OH256206   3.071   3.669   3.511  0.1272 -0.2885  0.2454
11572TIP3    H156207   2.983   3.657   3.475  0.5475  0.0467 -0.9100
11572TIP3    H256208   3.057   3.680   3.605 -1.2110  1.5117 -0.1389
11573TIP3   OH256209   4.975   5.307  16.354 -0.4421 -0.6527 -0.1225
11573TIP3    H156210   4.899   5.305  16.295 -1.8473  0.5667  1.6165
11573TIP3    H256211   5.021   5.388  16.332  0.1910 -1.2106 -0.9198
11574TIP3   OH256212   5.110   5.794   5.179  0.1865 -0.4205  0.0328
11574TIP3    H156213   5.068   5.773   5.262 -2.3281  0.0795 -1.0547
11574TIP3    H256214   5.100   5.714   5.127  1.1757 -0.5142 -0.0217
11575TIP3   OH256215   0.590   5.940  11.251 -0.3869  0.4746  0.1279
11575TIP3    H156216   0.673   5.922  11.206 -1.0960 -0.4335 -0.8345
11575TIP3    H256217   0.528   5.880  11.211 -1.4019  0.7951  1.2099
11576TIP3   OH256218   6.569   3.956  11.112  0.1088  0.2870 -0.1974
11576TIP3    H156219   6.601   3.866  11.116 -0.0878  0.2787  1.4251
11576TIP3    H256220   6.625   3.998  11.046  1.2612 -0.6037  0.2003
11577TIP3   OH256221   1.581   4.209  12.630 -0.2691  0.0203 -0.2058
11577TIP3    H156222   1.658   4.153  12.635 -0.9570 -0.8274  1.8186
11577TIP3    H256223   1.520   4.161  12.574 -0.5679 -0.9134  0.9066
11578TIP3   OH256224   2.045   4.744   0.910 -0.0879  0.0252 -0.6069
11578TIP3    H156225   2.115   4.723   0.972 -1.8988 -0.9606  1.1513
11578TIP3    H256226   2.072   4.827   0.871  0.6974  1.0968  2.1185
11579TIP3   OH256227   6.071   1.136   0.348  0.9198  0.3134 -0.4004
11579TIP3    H156228   6.155   1.114   0.388  0.8949  0.6820 -0.1352
11579TIP3    H256229   6.062   1.230   0.362 -0.0213  0.1030  0.5121
11580TIP3   OH256230   6.447   4.914   1.901  0.2611 -0.4739  0.1929
11580TIP3    H156231   6.529   4.928   1.855  1.0720  0.4435  1.8554
11580TIP3    H256232   6.390   4.872   1.837  2.0044 -1.0919 -0.9970
11581TIP3   OH256233   6.237   0.182  11.229  0.1748  0.6767  0.5455
11581TIP3    H156234   6.326   0.210  11.206  0.4022 -0.2642  0.2502
11581TIP3    H256235   6.238   0.176  11.325  0.7435 -0.3162  0.4887
11582TIP3   OH256236   1.862   1.913   4.968 -0.2116  0.0635  0.1111
11582TIP3    H156237   1.917   1.865   5.031 -0.1135  1.2159  0.9095
11582TIP3    H256238   1.796   1.849   4.942  0.9409 -1.0642 -0.1531
11583TIP3   OH256239   3.037   3.874   3.032 -0.2102  0.3885 -0.2965
11583TIP3    H156240   2.981   3.799   3.018  1.1296 -0.5188 -0.8725
11583TIP3    H256241   3.021   3.900   3.123 -0.2230 -0.9681  0.0872
11584TIP3   OH256242   4.106   2.057  14.548  0.0151 -0.0114 -0.4451
11584TIP3    H156243   4.088   2.150  14.548  0.3722  0.0947 -2.5544
11584TIP3    H256244   4.058   2.023  14.473  1.5827 -1.1475 -0.9735
11585TIP3   OH256245   4.230   3.839   5.395  0.0056  0.4451  0.5788
11585TIP3    H156246   4.325   3.837   5.391 -0.0219 -0.8805  0.5377
11585TIP3    H256247   4.210   3.885   5.477  0.6998 -1.5788  1.9167
11586TIP3   OH256248   3.568   1.278   1.020  0.3006 -0.1438  0.1934
11586TIP3    H156249   3.534   1.189   1.020 -1.1675  0.4015 -0.8989
11586TIP3    H256250   3.618   1.285   1.101  0.0771 -1.8315  0.4794
11587TIP3   OH256251   0.724   2.074  11.298 -0.2897  0.5797 -0.2981
11587TIP3    H156252   0.648   2.020  11.320 -1.7461  2.1853 -1.2677
11587TIP3    H256253   0.697   2.163  11.320  1.1316  1.2319 -1.1486
11588TIP3   OH256254   4.528   3.481   3.526  0.0267 -0.3634 -0.7344
11588TIP3    H156255   4.602   3.448   3.577 -0.3672 -0.4899 -0.2406
11588TIP3    H256256   4.472   3.405   3.512  0.0694 -0.3013 -1.2453
11589TIP3   OH256257   3.857   2.080   4.220 -0.0299 -0.2771  0.5606
11589TIP3    H156258   3.869   2.169   4.252  0.7922  0.0334 -0.5661
11589TIP3    H256259   3.771   2.081   4.178  0.1805  0.1204  0.1305
11590TIP3   OH256260   5.051   5.366  14.064 -0.3364  0.2072  0.3501
11590TIP3    H156261   5.019   5.294  14.119 -0.8548  1.0958  1.2308
11590TIP3    H256262   4.972   5.403  14.025  0.1330 -1.2009 -2.0010
11591TIP3   OH256263   2.686   2.730  12.749 -0.1840  0.4586 -0.2378
11591TIP3    H156264   2.648   2.675  12.817  1.6747 -0.8490 -0.2146
11591TIP3    H256265   2.723   2.804  12.796 -1.2211  0.9088 -0.1071
11592TIP3   OH256266   5.822   6.522   1.449 -0.2112 -0.4076 -0.0875
11592TIP3    H156267   5.830   6.429   1.469 -0.6738 -0.3961  0.1464
11592TIP3    H256268   5.759   6.556   1.513  0.8030  0.3005  0.5523
11593TIP3   OH256269   0.868   2.494  15.235 -0.2345  0.2567  0.3635
11593TIP3    H156270   0.809   2.467  15.306  0.9804 -0.4125  1.1464
11593TIP3    H256271   0.933   2.423  15.230  1.3849  1.6919  0.5636
11594TIP3   OH256272   0.288   6.441   3.373  0.1892 -0.0488  0.6335
11594TIP3    H156273   0.350   6.379   3.413  0.4694  0.3914  0.8850
11594TIP3    H256274   0.313   6.443   3.281 -0.1643 -0.7190  0.5221
11595TIP3   OH256275   2.083   2.268  11.179 -0.1324  0.6798  0.5753
11595TIP3    H156276   2.085   2.173  11.172 -1.7254  0.4632  2.5624
11595TIP3    H256277   2.151   2.298  11.119 -0.3655 -1.6483 -0.9219
11596TIP3   OH256278   5.125   2.973  12.503 -0.5412 -0.2617  0.2567
11596TIP3    H156279   5.063   3.031  12.547  1.6366  1.9301  0.5640
11596TIP3    H256280   5.084   2.952  12.419 -1.6857  1.1256  0.4538
11597TIP3   OH256281   0.997   5.189  14.299 -0.3561  0.0596  0.0352
11597TIP3    H156282   0.909   5.227  14.299 -0.5459 -0.2217 -2.8301
11597TIP3    H256283   0.995   5.127  14.226  2.0259 -0.4598  0.3771
11598TIP3   OH256284   2.911   3.668   0.373 -0.7763 -0.5578  0.6750
11598TIP3    H156285   2.965   3.747   0.375 -1.2453 -0.1721 -0.8974
11598TIP3    H256286   2.953   3.612   0.307  0.5127 -2.3451  2.9730
11599TIP3   OH256287   0.905   1.953  12.892 -0.4614  0.3758 -0.4172
11599TIP3    H156288   0.899   1.933  12.986 -0.6346  0.5252 -0.3981
11599TIP3    H256289   0.841   2.022  12.878 -2.0885 -1.2494 -1.1019
11600TIP3   OH256290   5.437   1.621  12.106  0.1216  0.1650  0.2486
11600TIP3    H156291   5.501   1.621  12.177 -0.8097 -3.0258  1.1885
11600TIP3    H256292   5.489   1.612  12.026  0.9726 -0.0683  0.8235
11601TIP3   OH256293   5.078   5.244  16.041  0.1308  0.2335  0.0701
11601TIP3    H156294   5.122   5.296  16.108 -4.1135  1.8368  1.7928
11601TIP3    H256295   5.085   5.153  16.073  1.2405  0.5549  0.7989
11602TIP3   OH256296   4.954   0.026  14.493  0.5271 -0.4454  0.0888
11602TIP3    H156297   5.027   0.060  14.441  0.0300  2.3938  1.1271
11602TIP3    H256298   4.883   0.014  14.430  0.8206  0.1850 -0.3656
11603TIP3   OH256299   2.548   4.030   1.936  0.1945  0.2081 -0.5351
11603TIP3    H156300   2.642   4.050   1.946  0.3325  0.7436 -2.6307
11603TIP3    H256301   2.504   4.100   1.984  0.8607 -0.2197  0.7270
11604TIP3   OH256302   2.025   2.096   3.063 -0.1495 -0.3214  0.0044
11604TIP3    H156303   2.073   2.017   3.089  2.1992  1.4384  1.1645
11604TIP3    H256304   2.051   2.110   2.972 -0.7740 -1.0119 -0.2880
11605TIP3   OH256305   0.678   5.208   2.049 -0.2777  0.2307 -0.0133
11605TIP3    H156306   0.694   5.209   2.143 -1.5015 -1.4140  0.2319
11605TIP3    H256307   0.611   5.276   2.036 -2.1919 -1.4567  0.7386
11606TIP3   OH256308   1.236   2.930   0.462  0.3241  0.0692  0.2082
11606TIP3    H156309   1.159   2.930   0.406  0.9885  0.4083 -0.7149
11606TIP3    H256310   1.212   2.987   0.535 -0.5431 -0.3747  0.2849
11607TIP3   OH256311   5.089   0.815   3.254 -0.1951 -0.2911 -0.4871
11607TIP3    H156312   5.057   0.905   3.267 -1.8582 -0.8376 -0.5920
11607TIP3    H256313   5.028   0.761   3.305  1.7493 -1.2351  0.8815
11608TIP3   OH256314   5.936   5.034  13.788  0.2581  0.6819 -0.5791
11608TIP3    H156315   5.896   5.107  13.836 -1.3451 -0.2806 -0.4356
11608TIP3    H256316   5.871   5.009  13.722  1.0254 -0.2655 -0.9956
11609TIP3   OH256317   0.508   1.017   5.548  0.6218 -0.5464 -0.0089
11609TIP3    H156318   0.532   1.097   5.594  0.5953  0.0724 -1.0469
11609TIP3    H256319   0.587   0.964   5.549  1.2146  0.2970 -0.9584
11610TIP3   OH256320   0.746   0.868   5.484  0.4711 -0.1479  0.4137
11610TIP3    H156321   0.800   0.796   5.450 -1.1732 -1.3821  0.3191
11610TIP3    H256322   0.809   0.932   5.516  1.9857 -1.7378  0.7203
11611TIP3   OH256323   0.413   5.399   2.459  0.1301  0.3144  0.6089
11611TIP3    H156324   0.320   5.420   2.466 -0.1761  0.2685 -2.4335
11611TIP3    H256325   0.417   5.333   2.390  2.2266 -1.3823  2.2807
11612TIP3   OH256326   0.550   6.220  11.402 -0.2974 -0.2256 -0.1555
11612TIP3    H156327   0.464   6.241  11.365  0.4789  2.0501 -0.7190
11612TIP3    H256328   0.577   6.299  11.448  2.0206 -0.5018 -0.9567
11613TIP3   OH256329   4.988   0.599  12.750  0.3480 -0.4184  0.2377
11613TIP3    H156330   5.058   0.534  12.738  0.8366 -0.4469  2.8912
11613TIP3    H256331   4.907   0.548  12.748  0.3727 -0.3897 -2.8175
11614TIP3   OH256332   1.795   6.010   4.379 -0.2368 -0.4655  0.6453
11614TIP3    H156333   1.771   6.098   4.350  0.3684 -0.7568 -0.8082
11614TIP3    H256334   1.732   5.953   4.334  0.5307 -0.9076  0.1153
11615TIP3   OH256335   0.893   5.267   3.108 -0.1556 -0.6138 -0.1209
11615TIP3    H156336   0.916   5.237   3.195  0.5184  0.0180 -0.0773
11615TIP3    H256337   0.817   5.324   3.120 -1.0929 -1.8499 -0.1413
11616TIP3   OH256338   4.449   5.469  15.684 -0.0782  0.1648  0.1010
11616TIP3    H156339   4.476   5.459  15.593  2.1580 -0.0216  0.7683
11616TIP3    H256340   4.402   5.389  15.704 -0.1817  0.0081 -0.7429
11617TIP3   OH256341   3.708   5.223   2.469  0.7214  0.5810  0.4402
11617TIP3    H156342   3.616   5.198   2.463  0.5833  0.7728  1.7242
11617TIP3    H256343   3.757   5.142   2.453  0.3631  0.7398 -1.6062
11618TIP3   OH256344   4.584   2.297  15.170 -0.2524 -0.3333 -0.2650
11618TIP3    H156345   4.593   2.385  15.133 -0.8666 -1.0381 -2.1665
11618TIP3    H256346   4.637   2.299  15.249 -1.2030  2.1013  0.3698
11619TIP3   OH256347   6.252   5.849   1.027 -0.3378 -0.0927 -0.1493
11619TIP3    H156348   6.177   5.803   0.988  0.5989  1.4787 -4.0820
11619TIP3    H256349   6.241   5.940   0.999 -0.2842  1.4740  4.5468
11620TIP3   OH256350   5.241   0.456  16.674 -0.3317  0.2451 -0.4694
11620TIP3    H156351   5.335   0.468  16.688 -0.3533  1.0209 -0.9735
11620TIP3    H256352   5.202   0.474  16.760  0.0326 -0.7091 -0.0994
11621TIP3   OH256353   2.178   1.988  11.931  0.2837  0.3139 -0.6000
11621TIP3    H156354   2.168   1.959  11.840 -0.3391 -1.6527  0.0679
11621TIP3    H256355   2.272   1.995  11.945  0.3759  0.8140 -1.4447
11622TIP3   OH256356   5.278   4.674  11.558 -0.4404 -0.0778  0.3880
11622TIP3    H156357   5.306   4.764  11.575  1.0402 -0.8029  1.8653
11622TIP3    H256358   5.247   4.642  11.643  1.0801 -1.6636  0.3783
11623TIP3   OH256359   5.569   2.760  13.633  0.5072 -0.3245 -0.4484
11623TIP3    H156360   5.610   2.803  13.708  0.5954  1.7618 -1.6183
11623TIP3    H256361   5.495   2.817  13.610 -0.3017 -1.6295 -1.1369
11624TIP3   OH256362   6.661   3.591  12.391 -0.3911 -0.0172  0.4712
11624TIP3    H156363   6.612   3.545  12.459 -1.0062  1.1997  0.8757
11624TIP3    H256364   6.685   3.675  12.432 -0.5520  0.6235 -0.7233
11625TIP3   OH256365   2.518   4.198  14.440 -0.1982 -0.1837 -0.4706
11625TIP3    H156366   2.566   4.118  14.420  0.1982 -0.4240  1.3716
11625TIP3    H256367   2.539   4.258  14.368  1.7037 -0.7899 -0.4267
11626TIP3   OH256368   1.483   5.398   5.640  0.3574  0.2029  0.1926
11626TIP3    H156369   1.421   5.467   5.615  0.8929  0.9057  0.8209
11626TIP3    H256370   1.428   5.332   5.685 -0.1608  0.1766 -0.4715
11627TIP3   OH256371   5.090   2.679   3.500 -0.5128 -0.3263 -0.1322
11627TIP3    H156372   5.079   2.584   3.505  2.4827 -0.7115 -0.2620
11627TIP3    H256373   5.067   2.710   3.587 -1.0887 -1.2153  0.0433
11628TIP3   OH256374   1.220   6.630  13.693  0.4175  1.0305 -0.1896
11628TIP3    H156375   1.212   6.649  13.786  1.1154  0.2506  0.0398
11628TIP3    H256376   1.307   6.590  13.684  0.4734  1.3622 -1.2173
11629TIP3   OH256377   3.084   5.040  15.032 -0.6069 -0.3601  0.1120
11629TIP3    H156378   3.007   5.008  14.984 -1.0920  0.1813  0.5208
11629TIP3    H256379   3.063   5.131  15.054  0.4079 -0.0204 -0.2944
11630TIP3   OH256380   2.548   1.221  16.858 -0.3999 -0.5641 -0.2517
11630TIP3    H156381   2.574   1.274  16.933 -2.6337 -0.4384  0.4746
11630TIP3    H256382   2.568   1.275  16.782  3.2623 -1.2800  0.1216
11631TIP3   OH256383   0.451   5.643   4.407 -0.4504  0.4734 -0.3580
11631TIP3    H156384   0.448   5.649   4.311 -0.3341  3.3983 -0.2166
11631TIP3    H256385   0.535   5.683   4.431  0.7649 -2.6911  0.8383
11632TIP3   OH256386   5.544   1.804  16.501  0.4862  0.2673 -0.0527
11632TIP3    H156387   5.556   1.731  16.562 -1.4769  0.4600  0.6193
11632TIP3    H256388   5.615   1.865  16.522  0.1623  0.0799  1.7099
11633TIP3   OH256389   2.817   3.398   0.096 -0.5845  0.0491  0.8387
11633TIP3    H156390   2.755   3.461   0.133  0.9192  2.0808 -0.0680
11633TIP3    H256391   2.837   3.339   0.169 -2.1177  0.5172  1.6585
11634TIP3   OH256392   5.627   1.070  11.180 -0.3154  0.0223 -0.1462
11634TIP3    H156393   5.715   1.069  11.143 -0.1795  0.1735  0.1726
11634TIP3    H256394   5.573   1.108  11.111 -0.2810 -0.8674 -0.6712
11635TIP3   OH256395   3.393   0.061  14.617 -0.2228  0.1940  0.0808
11635TIP3    H156396   3.362   0.150  14.600  1.2696  0.6511 -0.3070
11635TIP3    H256397   3.395   0.055  14.712 -1.4726  0.1578  0.1195
11636TIP3   OH256398   6.703   1.614  15.993 -0.0836 -0.1789  0.5016
11636TIP3    H156399   6.664   1.590  16.077 -1.1873 -1.0698 -0.2506
11636TIP3    H256400   6.713   1.709  15.997 -0.6160 -0.1620  1.4329
11637TIP3   OH256401   2.638   6.104  11.997  0.9586 -0.4385 -0.2511
11637TIP3    H156402   2.713   6.153  11.963  1.1997  0.6244  1.7684
11637TIP3    H256403   2.562   6.154  11.969  1.0722 -0.5039 -0.6860
11638TIP3   OH256404   6.769   4.554  12.578  0.3435 -0.3445 -0.1612
11638TIP3    H156405   6.841   4.509  12.535  1.1576 -0.0377  0.8516
11638TIP3    H256406   6.786   4.647  12.565  0.5657 -0.2482  0.7521
11639TIP3   OH256407   6.012   4.406  12.066 -0.5381  0.2161  0.6604
11639TIP3    H156408   6.036   4.487  12.021 -1.9326  0.6321  0.6445
11639TIP3    H256409   6.094   4.374  12.103  0.5634  0.0600 -1.8321
11640TIP3   OH256410   6.767   0.356   1.789 -0.6197  0.3129 -0.4763
11640TIP3    H156411   6.692   0.296   1.795 -0.1065 -0.4754 -1.7539
11640TIP3    H256412   6.836   0.304   1.747  0.4339  1.2403  0.0802
11641TIP3   OH256413   4.313   0.404  11.793 -1.0342 -0.3500  0.0591
11641TIP3    H156414   4.382   0.413  11.728 -1.7591  0.6001 -0.5923
11641TIP3    H256415   4.255   0.337  11.757 -2.2584  1.2557 -1.0432
11642TIP3   OH256416   6.111   4.007   0.549  0.1159 -0.1736 -0.2297
11642TIP3    H156417   6.021   3.977   0.560  0.6608 -1.6240  0.2868
11642TIP3    H256418   6.123   4.071   0.619 -0.6525  0.3802 -0.5868
11643TIP3   OH256419   2.996   1.741   0.830  0.9003 -0.3609  0.2876
11643TIP3    H156420   2.917   1.687   0.820  1.2122 -0.6861 -0.4548
11643TIP3    H256421   2.965   1.831   0.820  0.7030 -0.5162 -0.5252
11644TIP3   OH256422   2.821   3.649  10.750  0.2459  0.0972  0.0558
11644TIP3    H156423   2.859   3.598  10.822 -1.7011  0.4754  1.3764
11644TIP3    H256424   2.731   3.618  10.743  0.2356  0.4736 -1.8625
11645TIP3   OH256425   3.663   2.007  17.160 -0.9513  0.0916  0.0134
11645TIP3    H156426   3.649   1.912  17.155  0.0748 -0.1192  1.1005
11645TIP3    H256427   3.598   2.043  17.099 -1.8648 -1.2570  0.1502
11646TIP3   OH256428   3.422   4.033  15.099 -0.0983  0.2745 -0.0713
11646TIP3    H156429   3.481   4.067  15.032  1.8407  1.6414  2.2595
11646TIP3    H256430   3.464   4.055  15.182 -2.9587 -0.4401  1.6437
11647TIP3   OH256431   3.942   1.096  12.191 -0.1035 -0.4826  0.5903
11647TIP3    H156432   3.958   1.189  12.207  1.1567 -0.4347 -0.7821
11647TIP3    H256433   3.885   1.095  12.114  0.6928 -0.8607 -0.0009
11648TIP3   OH256434   2.643   3.127   3.936  0.0664 -0.2416  0.2566
11648TIP3    H156435   2.665   3.079   3.856 -1.3350  0.5037 -0.5792
11648TIP3    H256436   2.553   3.154   3.924 -0.1314 -0.0454  2.0737
11649TIP3   OH256437   5.702   2.469  10.584  0.2152  0.3534  0.0213
11649TIP3    H156438   5.619   2.480  10.631 -0.1448 -1.4635 -0.1522
11649TIP3    H256439   5.757   2.540  10.616 -0.7503  0.3984  1.6396
11650TIP3   OH256440   6.488   2.416  13.771  0.2674  0.0406  0.3024
11650TIP3    H156441   6.408   2.454  13.806  0.3018  1.2831 -0.9100
11650TIP3    H256442   6.467   2.400  13.678  1.0263 -0.7316  0.2637
11651TIP3   OH256443   3.825   0.387  13.166  0.3221  0.4407  0.4652
11651TIP3    H156444   3.736   0.402  13.136  0.8918  2.6036 -0.2357
11651TIP3    H256445   3.820   0.306  13.217 -1.8915  0.1797 -0.1271
11652TIP3   OH256446   5.578   0.708   2.740  0.0724 -0.6544 -0.2649
11652TIP3    H156447   5.615   0.768   2.805 -0.4025 -1.4611  0.7540
11652TIP3    H256448   5.613   0.739   2.657  0.6882  0.3880  0.3744
11653TIP3   OH256449   3.150   3.397  17.144 -0.0350 -0.4248 -0.0358
11653TIP3    H156450   3.057   3.373  17.138  0.1306 -0.9737 -0.4127
11653TIP3    H256451   3.148   3.492  17.160 -0.6956 -0.8527  2.6177
11654TIP3   OH256452   3.846   1.428  13.280 -0.0956 -0.0672 -0.0421
11654TIP3    H156453   3.923   1.453  13.229  0.0738  0.0815  0.2898
11654TIP3    H256454   3.823   1.341  13.248  0.4943 -0.3098  0.2066
11655TIP3   OH256455   0.468   4.261   6.669 -0.5362  0.4018  0.6415
11655TIP3    H156456   0.398   4.286   6.729 -0.9441  0.0565  0.3047
11655TIP3    H256457   0.447   4.306   6.587 -0.4069  0.2293  0.5125
11656TIP3   OH256458   6.110   0.528   2.363 -0.0619 -0.2491  0.1723
11656TIP3    H156459   6.082   0.437   2.349 -3.2461  0.5235  1.1836
11656TIP3    H256460   6.129   0.561   2.276  1.5515 -2.0028 -0.1710
11657TIP3   OH256461   1.275   3.004  15.613 -0.4106  0.3616  0.6369
11657TIP3    H156462   1.333   2.938  15.574 -2.0632  0.5252 -2.2369
11657TIP3    H256463   1.320   3.030  15.694  2.5999 -0.8362 -0.5507
11658TIP3   OH256464   0.608   5.097   0.855  0.4396  0.0558  0.6355
11658TIP3    H156465   0.590   5.022   0.799 -0.1541  0.0936  0.7774
11658TIP3    H256466   0.636   5.058   0.938 -0.2296 -0.0123  0.8299
11659TIP3   OH256467   3.228   0.337  13.011 -0.2134  0.5488 -0.0857
11659TIP3    H156468   3.255   0.296  13.094  3.3587 -0.0241 -1.4468
11659TIP3    H256469   3.183   0.267  12.964 -0.4770  0.2913  0.5318
11660TIP3   OH256470   3.056   3.563  15.473 -0.4174  0.1773  0.0916
11660TIP3    H156471   3.011   3.633  15.521  1.4846  0.6936  1.1492
11660TIP3    H256472   3.127   3.537  15.531  1.8701  0.7150 -2.4222
11661TIP3   OH256473   6.652   4.924  15.721  0.1124 -0.1142 -0.6839
11661TIP3    H156474   6.691   4.940  15.807  0.6400 -0.0014 -0.9416
11661TIP3    H256475   6.572   4.975  15.721  1.4439  2.0692 -1.2494
11662TIP3   OH256476   6.737   0.774  16.672 -0.0158 -0.0443  0.3025
11662TIP3    H156477   6.706   0.850  16.622  2.3340  0.7930  0.0871
11662TIP3    H256478   6.668   0.758  16.736 -1.3440  1.1750 -0.7858
11663TIP3   OH256479   5.163   5.584   0.775  0.1008 -0.5521  0.0255
11663TIP3    H156480   5.152   5.592   0.680 -1.0454  0.1370  0.2056
11663TIP3    H256481   5.192   5.494   0.788 -1.2613 -1.1469 -0.8646
11664TIP3   OH256482   0.798   5.059   5.169 -0.3682 -0.1743 -0.4015
11664TIP3    H156483   0.800   5.051   5.073  1.0959 -0.8153 -0.3287
11664TIP3    H256484   0.869   5.120   5.189  0.1669 -1.0588  0.3809
11665TIP3   OH256485   4.158   2.108  15.756 -0.6218 -0.1584 -0.2176
11665TIP3    H156486   4.138   2.019  15.784 -1.7465 -0.7015 -2.6502
11665TIP3    H256487   4.089   2.162  15.795  0.0771 -0.3094  1.2768
11666TIP3   OH256488   2.376   3.328   6.413 -0.1357  0.1439 -0.3557
11666TIP3    H156489   2.330   3.244   6.419 -1.6137  0.8517 -1.6484
11666TIP3    H256490   2.342   3.379   6.487  0.0358 -0.0349 -0.1518
11667TIP3   OH256491   3.355   0.528  12.864 -0.5029  0.2071  0.0679
11667TIP3    H156492   3.321   0.455  12.915 -1.8214  1.2790  0.7669
11667TIP3    H256493   3.429   0.561  12.915 -1.1289  0.5808  0.7446
11668TIP3   OH256494   2.016   1.140   3.320  0.1903  0.0312  0.1267
11668TIP3    H156495   1.991   1.150   3.412 -0.9675  1.3045 -0.2929
11668TIP3    H256496   1.934   1.156   3.272  0.6896 -1.0540 -1.1019
11669TIP3   OH256497   2.603   3.446   5.092  0.2167  0.2404 -0.2081
11669TIP3    H156498   2.565   3.507   5.029  0.2741 -0.2682 -0.7307
11669TIP3    H256499   2.696   3.444   5.071 -0.0430 -1.3190 -1.2868
11670TIP3   OH256500   1.283   3.878  15.754 -0.3247 -0.3461  0.1290
11670TIP3    H156501   1.359   3.937  15.754  1.3109 -2.3937 -0.1258
11670TIP3    H256502   1.239   3.895  15.838 -0.5694  2.0669 -0.4646
11671TIP3   OH256503   3.436   1.301   4.067 -0.3737 -0.2616 -0.1470
11671TIP3    H156504   3.391   1.297   4.151 -1.2924 -0.8209 -0.6617
11671TIP3    H256505   3.413   1.387   4.031 -0.1895 -0.1281  0.0533
11672TIP3   OH256506   2.506   3.857  11.266 -0.0241 -0.1417 -0.1017
11672TIP3    H156507   2.505   3.762  11.269  0.9097 -0.1668 -0.2158
11672TIP3    H256508   2.564   3.882  11.339 -3.3706  0.4977  2.4523
11673TIP3   OH256509   2.915   0.863  12.181 -0.4207  0.4093  0.0039
11673TIP3    H156510   2.897   0.849  12.274 -0.6865  0.5179 -0.0276
11673TIP3    H256511   2.856   0.935  12.156 -1.4950 -0.6696 -0.6171
11674TIP3   OH256512   0.577   3.830   6.780  0.3242 -0.3663  0.5741
11674TIP3    H156513   0.505   3.891   6.795 -0.3991 -0.5502 -1.9365
11674TIP3    H256514   0.565   3.761   6.846 -0.5264  0.6922  1.5394
11675TIP3   OH256515   0.896   6.068  13.832  0.2858  0.3342 -0.0439
11675TIP3    H156516   0.822   6.114  13.792  0.0360  0.4955  0.5819
11675TIP3    H256517   0.973   6.098  13.784  0.0842  1.1289  0.1123
11676TIP3   OH256518   6.425   2.797   2.796  0.4414 -0.2499 -0.6012
11676TIP3    H156519   6.433   2.771   2.888 -0.7828 -0.0531 -0.4407
11676TIP3    H256520   6.352   2.746   2.763  0.6398 -0.0359 -1.3748
11677TIP3   OH256521   0.873   4.130  15.018 -0.1639 -0.2394  0.2455
11677TIP3    H156522   0.892   4.198  15.082  0.4385  0.3957 -0.6069
11677TIP3    H256523   0.780   4.141  14.998  0.1027  0.8131 -0.4448
11678TIP3   OH256524   5.628   5.358  13.368 -0.4090  0.0912  0.3938
11678TIP3    H156525   5.676   5.291  13.321  0.3044  1.3451 -0.7002
11678TIP3    H256526   5.543   5.362  13.324  0.7671  2.2888 -1.8460
11679TIP3   OH256527   5.789   1.059  15.373 -0.2833 -0.2832 -0.3500
11679TIP3    H156528   5.855   0.995  15.400 -0.4118 -0.5410 -0.6490
11679TIP3    H256529   5.840   1.138  15.353 -0.0643 -0.4892 -0.6020
11680TIP3   OH256530   0.374   6.731  11.249 -0.0606 -0.3234  0.5089
11680TIP3    H156531   0.304   6.754  11.188 -1.0480 -0.1454  1.6865
11680TIP3    H256532   0.455   6.747  11.200 -0.8367 -0.5736 -0.8840
11681TIP3   OH256533   6.170   3.711  12.386  0.2785  0.7061 -0.1456
11681TIP3    H156534   6.197   3.670  12.468 -0.1509 -0.3174 -0.5177
11681TIP3    H256535   6.237   3.684  12.323  0.0199  0.6121 -0.3796
11682TIP3   OH256536   4.883   4.236   3.272  0.1796 -0.6772  0.0401
11682TIP3    H156537   4.937   4.221   3.194  1.2108 -1.3396  0.8612
11682TIP3    H256538   4.862   4.148   3.303 -1.4835 -0.4138 -0.3341
11683TIP3   OH256539   1.174   4.322   1.043 -0.3386 -0.2770 -0.2148
11683TIP3    H156540   1.270   4.325   1.035 -0.4054 -0.8894 -1.4225
11683TIP3    H256541   1.157   4.319   1.137  0.7033  4.7786  0.3084
11684TIP3   OH256542   4.568   1.443  13.559 -0.1227 -0.0001 -0.2504
11684TIP3    H156543   4.586   1.355  13.525  1.1854  0.5495 -1.0103
11684TIP3    H256544   4.474   1.442  13.579 -0.2898 -1.3165 -1.0179
11685TIP3   OH256545   6.141   5.811  16.863 -1.1081 -0.0020  0.4061
11685TIP3    H156546   6.167   5.723  16.889  2.1487  0.9278  0.5656
11685TIP3    H256547   6.125   5.804  16.769 -0.8530 -0.7850  0.4154
11686TIP3   OH256548   3.181   4.207   5.978 -0.1121 -0.1775  0.5282
11686TIP3    H156549   3.147   4.282   6.027 -1.5865  0.0800 -0.8525
11686TIP3    H256550   3.190   4.138   6.044 -0.2330  0.7312  1.5159
11687TIP3   OH256551   5.897   1.878   4.095 -0.5330 -0.6344 -0.5177
11687TIP3    H156552   5.822   1.856   4.152 -1.2894  2.4844 -0.2180
11687TIP3    H256553   5.858   1.892   4.009 -0.0858 -0.4543 -0.6921
11688TIP3   OH256554   5.190   1.823   1.701 -0.0304  0.8312 -1.0673
11688TIP3    H156555   5.201   1.826   1.606  1.5695 -1.3881 -1.0095
11688TIP3    H256556   5.220   1.909   1.731  0.6409  1.1100 -2.4716
11689TIP3   OH256557   1.796   4.623   4.688 -0.0072 -0.2712 -0.0675
11689TIP3    H156558   1.885   4.589   4.687  0.5320  1.1080 -0.3328
11689TIP3    H256559   1.772   4.631   4.596  0.3730  1.2850 -0.0525
11690TIP3   OH256560   4.066   5.139   2.429 -0.1175 -0.5204  0.2284
11690TIP3    H156561   3.995   5.074   2.432 -0.0482 -0.5293  2.8841
11690TIP3    H256562   4.109   5.123   2.345 -2.3821 -1.4576 -0.8033
11691TIP3   OH256563   4.065   2.193  16.158  0.6141  0.0065 -0.2357
11691TIP3    H156564   4.127   2.204  16.230  0.6890 -0.3020 -0.2527
11691TIP3    H256565   4.080   2.104  16.126  0.7411  0.2203 -0.7783
11692TIP3   OH256566   4.077   4.844   1.221 -0.2945  0.4577  0.3800
11692TIP3    H156567   4.093   4.907   1.151  1.9644 -2.0238 -1.4582
11692TIP3    H256568   3.994   4.803   1.197 -0.7238  1.2663  0.4646
11693TIP3   OH256569   4.720   5.631   0.860  0.6522 -0.1297  0.0485
11693TIP3    H156570   4.792   5.691   0.839 -0.7860  1.0382 -1.7438
11693TIP3    H256571   4.759   5.567   0.919  3.3152  0.1041 -1.3610
11694TIP3   OH256572   2.158   5.550  14.438  0.4008 -0.6062  0.4458
11694TIP3    H156573   2.097   5.476  14.430  0.2877 -0.4045 -0.7269
11694TIP3    H256574   2.177   5.575  14.347  0.2770  0.9277  0.8161
11695TIP3   OH256575   1.991   4.403   3.641 -0.3893  0.0470 -0.6154
11695TIP3    H156576   2.061   4.457   3.605 -1.4573  1.2474 -0.9426
11695TIP3    H256577   1.942   4.372   3.564 -0.2764 -0.7236 -0.3882
11696TIP3   OH256578   2.916   2.467   5.847 -0.4501  0.1520  0.1140
11696TIP3    H156579   2.974   2.412   5.794  0.8859  1.2308  0.4287
11696TIP3    H256580   2.911   2.423   5.932 -3.3387 -2.0918 -1.0845
11697TIP3   OH256581   2.346   2.571   0.649  0.5958  0.0431  0.5464
11697TIP3    H156582   2.337   2.582   0.744  0.3266  1.1125  0.3963
11697TIP3    H256583   2.261   2.594   0.613  0.9389  0.4512 -0.0214
11698TIP3   OH256584   0.319   0.018  12.758  0.3568  0.2310  0.3785
11698TIP3    H156585   0.299  -0.040  12.832 -2.1076 -0.1714 -0.5361
11698TIP3    H256586   0.263  -0.014  12.687  2.0592  1.1321 -1.4254
11699TIP3   OH256587   6.512   1.296  12.280  0.5860 -0.0460  0.1118
11699TIP3    H156588   6.438   1.236  12.279  1.7276 -1.4596 -0.5434
11699TIP3    H256589   6.565   1.272  12.203  1.5107  1.2189  0.3217
11700TIP3   OH256590   2.314   0.266   0.716  1.0150 -0.2170  0.0026
11700TIP3    H156591   2.324   0.347   0.665 -0.2269  1.3728  2.2320
11700TIP3    H256592   2.387   0.267   0.778 -1.0055  1.0646  2.4553
11701TIP3   OH256593   1.623   4.453   5.378  0.2977 -0.0200 -0.1310
11701TIP3    H156594   1.660   4.433   5.464  0.1509  2.4051  0.5330
11701TIP3    H256595   1.573   4.375   5.354  0.8226 -0.9364  1.7164
11702TIP3   OH256596   1.441   4.745   4.151 -0.0718  0.1752 -0.1452
11702TIP3    H156597   1.433   4.809   4.080  0.3245  1.7330  1.1844
11702TIP3    H256598   1.519   4.695   4.129  0.7205  1.4194 -0.2167
11703TIP3   OH256599   4.068   1.196  15.023 -0.5803  0.0200  0.6520
11703TIP3    H156600   4.027   1.165  15.104 -1.0543  0.0618  0.4312
11703TIP3    H256601   3.999   1.244  14.978 -0.9953 -1.8739 -0.8132
11704TIP3   OH256602   6.491   5.318  13.873 -0.0361 -0.6509 -0.5668
11704TIP3    H156603   6.522   5.227  13.868  0.1791 -0.7225  1.6670
11704TIP3    H256604   6.551   5.360  13.934 -1.3321  0.4949 -0.0744
11705TIP3   OH256605   5.080   2.635  12.265  0.3105  0.1096 -0.7714
11705TIP3    H156606   5.089   2.646  12.170 -0.6766 -1.4465 -1.0620
11705TIP3    H256607   4.994   2.596  12.276  0.2613  0.6506  0.8118
11706TIP3   OH256608   5.923   0.244  14.676 -0.1618  0.3359 -0.2314
11706TIP3    H156609   5.893   0.253  14.585 -0.3847 -0.2279 -0.2120
11706TIP3    H256610   5.856   0.190  14.718  0.9711 -1.1252 -0.2480
11707TIP3   OH256611   5.667   6.202   1.806  0.3038 -0.1022  0.2496
11707TIP3    H156612   5.685   6.116   1.844 -0.3029 -0.4417 -0.2238
11707TIP3    H256613   5.605   6.184   1.735  1.2481  0.5420 -0.7612
11708TIP3   OH256614   3.551   4.317   5.190 -0.1293 -0.4338 -0.3313
11708TIP3    H156615   3.596   4.340   5.108  1.1062  0.4527  0.5760
11708TIP3    H256616   3.609   4.252   5.231 -0.2590 -0.1571  0.2907
11709TIP3   OH256617   6.573   4.394  14.805  0.9764  0.2634 -0.7050
11709TIP3    H156618   6.546   4.356  14.721  0.7347  1.2538 -1.0839
11709TIP3    H256619   6.668   4.396  14.802  0.9375  1.1480 -1.3378
11710TIP3   OH256620   1.700   4.791  13.706  0.1839  0.4804 -0.2353
11710TIP3    H156621   1.684   4.886  13.709  0.3082  0.4529  2.5359
11710TIP3    H256622   1.795   4.783  13.710  0.2253  0.2546 -1.5627
11711TIP3   OH256623   3.582   0.950   2.596 -0.3338 -0.3561 -0.5264
11711TIP3    H156624   3.597   0.856   2.606 -1.1605 -0.5982 -1.4931
11711TIP3    H256625   3.574   0.963   2.502 -1.7665  0.4353 -0.3119
11712TIP3   OH256626   3.273   1.687   5.265  0.3195 -0.3876  0.5946
11712TIP3    H156627   3.266   1.632   5.187 -1.5547 -2.2375  1.9784
11712TIP3    H256628   3.269   1.625   5.338 -1.1349  1.5412  2.2092
11713TIP3   OH256629   4.936   1.224   4.753  0.4389  0.4251  0.2453
11713TIP3    H156630   5.023   1.261   4.766 -0.7953  4.2136 -1.4090
11713TIP3    H256631   4.933   1.203   4.660 -0.1642 -0.4150  0.4536
11714TIP3   OH256632   6.286   2.020  10.967  0.4122  0.1791  0.3591
11714TIP3    H156633   6.205   2.061  10.997  0.0900  1.6834 -2.3815
11714TIP3    H256634   6.356   2.075  11.003  0.1535  0.0948  0.9910
11715TIP3   OH256635   2.322   4.547   0.039 -0.2367  0.2056  0.8509
11715TIP3    H156636   2.362   4.626   0.003 -0.7594 -0.2996 -0.9152
11715TIP3    H256637   2.235   4.575   0.068  0.7527  0.9453  3.1637
11716TIP3   OH256638   2.840   0.858   4.679  0.1347 -0.0237 -0.3425
11716TIP3    H156639   2.836   0.810   4.762 -1.2369  0.9749  0.1957
11716TIP3    H256640   2.923   0.831   4.640 -0.5192 -2.7064 -0.0068
11717TIP3   OH256641   1.091   4.102  14.796 -0.2623 -0.3805  0.0034
11717TIP3    H156642   1.022   4.105  14.862  1.3871  0.2225  1.7265
11717TIP3    H256643   1.050   4.138  14.717 -2.7516 -2.6046  0.2009
11718TIP3   OH256644   6.481   3.671  13.867 -0.1406  0.4073 -0.9425
11718TIP3    H156645   6.474   3.738  13.935 -4.1853 -0.2089 -0.6104
11718TIP3    H256646   6.507   3.592  13.913  0.5209  0.7833 -0.6678
11719TIP3   OH256647   1.597   3.332  13.021 -0.0504 -0.2113 -0.2476
11719TIP3    H156648   1.537   3.289  13.081 -1.0504 -1.5784 -2.1595
11719TIP3    H256649   1.655   3.262  12.991  0.4869  0.4666 -0.8116
11720TIP3   OH256650   0.541   3.105  15.050  0.5580 -0.5388  0.1622
11720TIP3    H156651   0.558   3.034  15.113  1.0138  0.2625  0.9526
11720TIP3    H256652   0.493   3.062  14.979  0.9274 -1.6731  0.5707
11721TIP3   OH256653   3.484   2.482  12.796 -0.0077 -0.3595  0.0674
11721TIP3    H156654   3.447   2.464  12.882  1.3228  1.1590  0.9731
11721TIP3    H256655   3.452   2.569  12.773  1.3958  0.1417 -0.0138
11722TIP3   OH256656   4.445   0.409  14.905 -0.4618 -0.5011 -0.1109
11722TIP3    H156657   4.487   0.444  14.984 -3.6514  0.3771  1.2650
11722TIP3    H256658   4.414   0.322  14.931  2.5785 -2.2209 -1.8840
11723TIP3   OH256659   0.958   2.680   2.141 -0.2954  0.2774 -0.3573
11723TIP3    H156660   0.988   2.629   2.216 -0.9081  0.6720  0.1576
11723TIP3    H256661   0.936   2.615   2.075 -1.3380 -0.1395  0.3985
11724TIP3   OH256662   2.694   1.478  11.245 -0.4120  0.1431 -0.4028
11724TIP3    H156663   2.619   1.478  11.305 -0.5437 -0.3424 -0.5596
11724TIP3    H256664   2.755   1.542  11.282  0.3785 -1.5772  1.3679
11725TIP3   OH256665   4.765   0.390   4.507  1.2537  0.3276  0.6838
11725TIP3    H156666   4.808   0.371   4.590  0.6940 -0.0255  0.8960
11725TIP3    H256667   4.681   0.344   4.512  1.1868  0.3596 -0.0471
11726TIP3   OH256668   0.134   6.418   1.946  0.4376 -0.4563  0.0689
11726TIP3    H156669   0.060   6.411   1.885  0.1495  0.8953  0.2560
11726TIP3    H256670   0.201   6.465   1.896  0.4358  0.0915  0.5901
11727TIP3   OH256671   6.462   6.024   5.441 -0.0607 -0.1238  0.0673
11727TIP3    H156672   6.383   5.971   5.449  0.0969 -0.3628  0.0399
11727TIP3    H256673   6.534   5.961   5.447  0.1041 -0.0741 -1.1177
11728TIP3   OH256674   1.561   5.142   6.188 -0.2488 -0.5752 -0.0111
11728TIP3    H156675   1.514   5.209   6.138  1.7326 -0.3792 -1.6718
11728TIP3    H256676   1.594   5.081   6.122  1.2913 -1.0446  1.1520
11729TIP3   OH256677   1.671   2.001  13.356  0.1683 -0.2525  0.2541
11729TIP3    H156678   1.613   2.036  13.288  0.8610 -2.0898 -1.3329
11729TIP3    H256679   1.758   2.004  13.318  0.8512  0.5496  1.8355
11730TIP3   OH256680   5.761   3.458  14.349  0.3725  0.1893 -0.1593
11730TIP3    H156681   5.748   3.381  14.404 -1.3169 -0.7386 -1.7840
11730TIP3    H256682   5.761   3.532  14.410  1.8156 -1.0742  1.4035
11731TIP3   OH256683   5.159   2.180  15.728 -0.0583  0.2209  0.0431
11731TIP3    H156684   5.210   2.172  15.809 -1.4482  1.5965  1.1111
11731TIP3    H256685   5.118   2.095  15.717 -1.4889  0.6027  1.9715
11732TIP3   OH256686   5.543   4.967   3.009 -0.5233  0.1625  0.4705
11732TIP3    H156687   5.455   4.940   3.034 -0.3537  0.1583  1.0924
11732TIP3    H256688   5.553   4.939   2.918 -0.3711 -1.8633  1.0865
11733TIP3   OH256689   3.795   2.521   2.006 -0.1698 -0.1204  0.3220
11733TIP3    H156690   3.763   2.552   1.921  0.3618 -2.7627 -0.8888
11733TIP3    H256691   3.779   2.594   2.065 -2.5821  0.9875 -1.5793
11734TIP3   OH256692   2.644   1.279   3.848 -0.4914 -0.0913  0.3991
11734TIP3    H156693   2.686   1.364   3.842 -0.6260  0.0143  0.9513
11734TIP3    H256694   2.696   1.223   3.790 -0.4291  0.3725  0.0034
11735TIP3   OH256695   3.164   4.158  16.679 -0.1181  0.1528 -0.2123
11735TIP3    H156696   3.121   4.146  16.764 -0.4877  1.7277 -0.1537
11735TIP3    H256697   3.092   4.175  16.618  0.2701  0.7325 -0.5088
11736TIP3   OH256698   1.363   5.997   4.334 -0.0444 -0.1942  0.2742
11736TIP3    H156699   1.279   5.984   4.378  0.9257 -1.1824  1.8938
11736TIP3    H256700   1.391   6.084   4.360 -0.8904  0.4301 -0.8565
11737TIP3   OH256701   4.120   0.395   1.965  0.2660 -0.1186 -0.5174
11737TIP3    H156702   4.105   0.473   2.018 -0.8955  0.2085 -1.3010
11737TIP3    H256703   4.081   0.323   2.015 -0.2272  0.0843 -0.6068
11738TIP3   OH256704   1.052   0.571   4.786  0.2000  0.5255 -0.4335
11738TIP3    H156705   1.141   0.549   4.760  0.4726 -0.0832  0.9532
11738TIP3    H256706   0.996   0.513   4.733  0.7253 -0.5488  0.1675
11739TIP3   OH256707   5.575   4.461  14.928 -0.3597 -0.1961 -0.3432
11739TIP3    H156708   5.666   4.491  14.929 -0.9692  1.7045  0.9444
11739TIP3    H256709   5.523   4.540  14.941 -2.1233 -1.4928  0.7937
11740TIP3   OH256710   0.061   1.198   3.189 -0.6485 -0.3327 -0.3170
11740TIP3    H156711   0.049   1.129   3.254  1.8286 -0.2974  0.2397
11740TIP3    H256712   0.017   1.166   3.111 -1.2870 -1.6257  0.5598
11741TIP3   OH256713   4.195   6.324  13.033  0.0771  0.3044 -0.1986
11741TIP3    H156714   4.257   6.278  13.089  0.6322 -0.6200 -1.5483
11741TIP3    H256715   4.138   6.371  13.093  1.9894  1.0499  1.0743
11742TIP3   OH256716   1.545   6.787  15.287  0.6515 -0.3913 -0.8645
11742TIP3    H156717   1.544   6.852  15.217  0.9450  0.2105 -0.3167
11742TIP3    H256718   1.479   6.722  15.261  0.9606 -0.3248 -1.8345
11743TIP3   OH256719   1.555   6.702  11.264 -0.1285 -0.7502 -0.4307
11743TIP3    H156720   1.525   6.668  11.179 -0.5959  1.2381 -1.0918
11743TIP3    H256721   1.533   6.795  11.262 -1.5092 -0.9584  2.5006
11744TIP3   OH256722   0.682   0.590   4.522 -0.1478  0.1712  0.9761
11744TIP3    H156723   0.715   0.515   4.571  0.3082  1.4518  2.6767
11744TIP3    H256724   0.728   0.665   4.559 -1.1346  1.3753 -0.1915
11745TIP3   OH256725   3.403   4.151   0.780 -0.0539 -0.1644  0.1190
11745TIP3    H156726   3.364   4.069   0.808 -2.8820  0.3800 -1.9555
11745TIP3    H256727   3.449   4.184   0.857 -2.6170 -1.5137  2.3024
11746TIP3   OH256728   3.256   0.983  12.555  0.4173  0.3369  0.0975
11746TIP3    H156729   3.260   1.002  12.649 -1.7417 -1.4707  0.5941
11746TIP3    H256730   3.319   0.913  12.542  1.0527  0.9025  0.1054
11747TIP3   OH256731   3.738   5.511   5.898  0.5436  0.5491 -0.7684
11747TIP3    H156732   3.811   5.539   5.953  1.4134  0.8220 -2.0302
11747TIP3    H256733   3.691   5.447   5.952  1.4652  0.6803  0.2231
11748TIP3   OH256734   1.782   6.709  11.453 -0.2798  0.5088  0.1349
11748TIP3    H156735   1.721   6.674  11.389 -1.9364  1.5067  1.1310
11748TIP3    H256736   1.727   6.753  11.517  1.4667  1.1131  1.2608
11749TIP3   OH256737   2.203   4.861  17.222  0.2398  0.0535  0.3516
11749TIP3    H156738   2.170   4.778  17.259  0.0129 -0.1678 -0.3430
11749TIP3    H256739   2.133   4.891  17.165 -0.6832  1.9452  2.3942
11750TIP3   OH256740   2.513   3.783   0.729  0.3921 -0.3355 -0.0445
11750TIP3    H156741   2.429   3.797   0.687  1.0772 -0.8845 -1.6475
11750TIP3    H256742   2.523   3.688   0.731  1.8160 -0.2617 -1.6755
11751TIP3   OH256743   1.588   4.661   6.931  0.3583  0.3644 -0.2226
11751TIP3    H156744   1.668   4.660   6.983 -0.2659 -0.6518  0.7643
11751TIP3    H256745   1.614   4.625   6.846  0.7672 -0.8483  0.3962
11752TIP3   OH256746   5.105   1.696   2.624 -0.1286 -0.2191 -0.6283
11752TIP3    H156747   5.022   1.732   2.592  0.6594  2.2881 -0.0205
11752TIP3    H256748   5.169   1.766   2.610  2.1700 -2.5315 -2.1492
11753TIP3   OH256749   2.684   6.546  13.634  0.7158 -0.3061  0.1751
11753TIP3    H156750   2.695   6.452  13.651  0.3235 -0.5226 -0.7000
11753TIP3    H256751   2.613   6.572  13.692  3.4324  0.3633  3.3714
11754TIP3   OH256752   1.853   1.369  11.956  0.3833 -0.3770  0.0610
11754TIP3    H156753   1.875   1.333  11.870 -0.7694  0.4094 -0.5772
11754TIP3    H256754   1.775   1.423  11.940  0.6695  0.4573  1.4422
11755TIP3   OH256755   0.131   4.647  12.357 -0.1620  0.3913 -0.7128
11755TIP3    H156756   0.181   4.706  12.412  1.2897 -1.4633  0.0277
11755TIP3    H256757   0.186   4.631  12.280 -0.4220 -0.1975 -0.7868
11756TIP3   OH256758   4.933   2.046  14.240  0.4329 -0.0221 -0.2469
11756TIP3    H156759   4.897   2.051  14.152  3.2986  1.0726 -1.3953
11756TIP3    H256760   5.025   2.071  14.231  0.3954  1.7525  3.3089
11757TIP3   OH256761   6.781   2.447  13.830  0.2358  0.5023  0.0110
11757TIP3    H156762   6.690   2.475  13.830  0.3283  0.8350 -1.6883
11757TIP3    H256763   6.830   2.526  13.854  0.1360  0.4842  0.2823
11758TIP3   OH256764   0.961   5.877   5.801  0.2781  0.1113 -0.5844
11758TIP3    H156765   1.011   5.942   5.751 -1.1687  0.5331 -1.4924
11758TIP3    H256766   0.969   5.796   5.750  0.0334  0.1753 -0.7218
11759TIP3   OH256767   4.063   0.632  13.993  0.2912 -0.0620 -0.7842
11759TIP3    H156768   4.000   0.677  14.049 -0.7058  0.9300 -2.6505
11759TIP3    H256769   4.059   0.541  14.020  0.1391  0.4699  1.0213
11760TIP3   OH256770   6.651   3.675  11.579 -0.4670 -0.6723 -0.5977
11760TIP3    H156771   6.575   3.617  11.582  0.0787 -1.3299  1.0875
11760TIP3    H256772   6.692   3.666  11.665  0.7259  0.7523 -0.9873
11761TIP3   OH256773   5.632   3.178  14.226  0.1027  0.2632  0.4753
11761TIP3    H156774   5.571   3.244  14.193 -2.0432 -0.8827  2.0053
11761TIP3    H256775   5.624   3.184  14.321  0.5230 -1.5813  0.6450
11762TIP3   OH256776   2.397   5.467   0.418  0.0512 -0.1588 -0.0574
11762TIP3    H156777   2.305   5.466   0.390  0.1453 -0.6427 -0.3539
11762TIP3    H256778   2.417   5.560   0.430 -0.1698  0.0182 -1.0134
11763TIP3   OH256779   5.920   3.921  12.468 -0.1449  0.0914  0.3921
11763TIP3    H156780   5.873   3.839  12.454 -0.2164  0.0394  0.9095
11763TIP3    H256781   5.947   3.949  12.381 -1.1578  0.1346  0.0879
11764TIP3   OH256782   4.778   3.067   1.881 -0.3168  0.3661 -0.3375
11764TIP3    H156783   4.832   3.092   1.806  0.2209  0.1490 -0.0270
11764TIP3    H256784   4.841   3.038   1.947 -0.7149  1.6696  0.6331
11765TIP3   OH256785   5.652   0.207  15.487  0.1653  0.0741  0.5272
11765TIP3    H156786   5.613   0.197  15.401 -1.5091 -1.7556  1.4566
11765TIP3    H256787   5.743   0.232  15.470 -0.2369  0.0357 -1.7445
11766TIP3   OH256788   1.580   2.831   2.361 -0.3886  0.5461 -0.5186
11766TIP3    H156789   1.556   2.917   2.396  1.5794  0.1192  2.1122
11766TIP3    H256790   1.632   2.849   2.283  2.4219  1.9145  1.5873
11767TIP3   OH256791   3.722   6.816  15.186  0.5740 -0.5053 -1.0714
11767TIP3    H156792   3.769   6.738  15.215  1.2282  0.2905  0.0927
11767TIP3    H256793   3.791   6.876  15.158  0.4222  1.2659  2.1103
11768TIP3   OH256794   3.095   4.775  12.580 -0.1865  0.0097 -0.0602
11768TIP3    H156795   3.032   4.842  12.605 -1.5587 -0.5775 -1.8067
11768TIP3    H256796   3.157   4.820  12.522  0.4080  0.3313  0.8014
11769TIP3   OH256797   3.866   0.976   3.050  0.4676  0.2177 -0.0118
11769TIP3    H156798   3.922   1.004   2.978  1.6423 -0.8049  0.4868
11769TIP3    H256799   3.871   0.880   3.049 -0.1241  0.1642  0.9255
11770TIP3   OH256800   4.797   0.390   2.449  0.7664  0.2173  0.1454
11770TIP3    H156801   4.791   0.483   2.470  0.6079  0.8284 -2.4214
11770TIP3    H256802   4.733   0.348   2.505  2.4929  1.3232  3.0512
11771TIP3   OH256803   6.695   2.130  12.150  0.3176 -0.6325 -0.7067
11771TIP3    H156804   6.715   2.039  12.173  0.6945 -0.0977  1.1479
11771TIP3    H256805   6.607   2.144  12.184  0.3276 -0.2560 -0.8367
11772TIP3   OH256806   5.794   1.868   3.395 -0.5961 -0.1470 -0.0992
11772TIP3    H156807   5.832   1.927   3.460  0.7053 -0.5676 -0.4737
11772TIP3    H256808   5.859   1.864   3.325 -0.6344 -2.0779 -0.0433
11773TIP3   OH256809   1.034   1.890  12.427  0.4050 -0.2577  0.0387
11773TIP3    H156810   1.093   1.930  12.491 -0.1433 -0.9844  1.0077
11773TIP3    H256811   1.054   1.935  12.345  1.1065  0.6999  0.7189
11774TIP3   OH256812   0.921   3.644   4.815 -0.7708  0.0016  0.2108
11774TIP3    H156813   0.986   3.641   4.745 -0.4706  2.0009  0.3775
11774TIP3    H256814   0.943   3.722   4.865 -2.4350 -0.0900  1.1168
11775TIP3   OH256815   5.557   3.045   4.266 -0.2281 -0.0918 -0.7612
11775TIP3    H156816   5.500   3.096   4.209 -0.0891  0.6161 -0.2746
11775TIP3    H256817   5.582   3.106   4.336 -0.2145 -0.8726 -0.0735
11776TIP3   OH256818   4.766   5.749   3.743 -0.6865  0.1536 -0.2533
11776TIP3    H156819   4.693   5.688   3.731  0.8579 -1.8391  0.1570
11776TIP3    H256820   4.822   5.706   3.808  1.3276  1.1908 -1.2780
11777TIP3   OH256821   3.307   0.919   2.418 -0.1566  0.3164  0.6133
11777TIP3    H156822   3.280   0.996   2.468  0.2305  0.5978  0.4024
11777TIP3    H256823   3.360   0.956   2.346  0.2496 -0.1649  0.6629
11778TIP3   OH256824   0.522   4.237  13.979  0.2037  0.1298  0.0297
11778TIP3    H156825   0.611   4.270  13.965  0.5132 -0.2296  1.1306
11778TIP3    H256826   0.488   4.291  14.050 -0.8720  1.0172 -1.1230
11779TIP3   OH256827   0.164   4.977  15.651  0.2598 -0.5428 -0.0795
11779TIP3    H156828   0.119   4.915  15.593  1.1481 -1.5108  0.2579
11779TIP3    H256829   0.102   5.049  15.661  0.2596 -0.1580 -2.5643
11780TIP3   OH256830   6.190   2.984  12.685  0.5499  0.7187 -0.2625
11780TIP3    H156831   6.185   2.927  12.608 -3.2246 -0.2759  0.6256
11780TIP3    H256832   6.130   3.055  12.665  0.6545  1.2129  1.1785
11781TIP3   OH256833   4.698   0.283  14.418 -0.2457 -0.1375  0.0300
11781TIP3    H156834   4.676   0.374  14.397 -1.0138 -0.6982 -1.7131
11781TIP3    H256835   4.793   0.281  14.425 -0.2931  1.0107  1.1825
11782TIP3   OH256836   6.588   6.619  11.180  0.4918 -0.0826  0.0024
11782TIP3    H156837   6.669   6.669  11.182  1.4028 -1.5978  1.8155
11782TIP3    H256838   6.565   6.604  11.271 -0.1574 -2.3274 -0.4869
11783TIP3   OH256839   5.153   2.243  13.787  0.0842 -0.1005 -0.3323
11783TIP3    H156840   5.237   2.217  13.824 -0.2743  1.1092  1.3963
11783TIP3    H256841   5.096   2.258  13.863 -1.2040  0.7216 -1.4224
11784TIP3   OH256842   0.824   4.016  12.623 -0.2455  0.4492  0.4059
11784TIP3    H156843   0.899   4.059  12.663  2.4293 -0.4205 -3.3690
11784TIP3    H256844   0.804   3.943  12.681  1.9095  0.6310  1.4330
11785TIP3   OH256845   6.502   6.371   0.293 -0.1105  0.5581 -0.5382
11785TIP3    H156846   6.416   6.337   0.268  0.2861 -1.4328  0.7456
11785TIP3    H256847   6.562   6.335   0.228 -0.2157  1.9882 -1.4628
11786TIP3   OH256848   4.268   1.996  16.550  0.2303  0.1267 -0.1186
11786TIP3    H156849   4.333   1.954  16.494  0.6029  0.5703 -0.0214
11786TIP3    H256850   4.222   2.057  16.493  2.0505  2.1553  0.5160
11787TIP3   OH256851   5.585   3.529  14.103  0.0943  0.3330  0.0183
11787TIP3    H156852   5.645   3.522  14.177  0.7922  0.1302 -0.5613
11787TIP3    H256853   5.594   3.445  14.057  0.5612  0.9223 -0.9765
11788TIP3   OH256854   2.579   2.089   2.685  0.5132 -0.1093  0.0210
11788TIP3    H156855   2.538   2.141   2.616 -0.1938  1.0927  1.3197
11788TIP3    H256856   2.672   2.110   2.678  0.5252 -0.4747 -0.9652
11789TIP3   OH256857   4.437   1.087   4.617  0.1233  0.4119  0.3196
11789TIP3    H156858   4.502   1.028   4.656  0.9503  0.9412 -0.2408
11789TIP3    H256859   4.377   1.107   4.688 -0.6841 -1.8014  0.3118
11790TIP3   OH256860   6.251   0.045  12.302 -0.1136 -0.2964 -0.0644
11790TIP3    H156861   6.224  -0.031  12.251 -0.3432 -1.0323  1.1317
11790TIP3    H256862   6.321   0.085  12.250 -0.2639 -1.0877 -0.8959
11791TIP3   OH256863   0.832   3.183   1.636 -0.0745  0.3716  0.2371
11791TIP3    H156864   0.826   3.190   1.731  1.2868 -0.4147  0.3767
11791TIP3    H256865   0.923   3.162   1.618 -0.0478  1.6719 -1.3203
11792TIP3   OH256866   1.345   4.799   6.375 -0.4674  0.8752  0.0595
11792TIP3    H156867   1.299   4.719   6.351 -0.1278  1.3836 -2.3908
11792TIP3    H256868   1.299   4.869   6.329 -1.7053  2.3283  3.3877
11793TIP3   OH256869   3.746   4.767  16.408 -0.2761  0.4415 -0.2606
11793TIP3    H156870   3.834   4.793  16.434  0.6536 -2.9601  0.2003
11793TIP3    H256871   3.690   4.796  16.480  1.0409 -0.8966  1.3219
11794TIP3   OH256872   3.111   2.839   4.864 -0.1786  0.2198 -0.0747
11794TIP3    H156873   3.023   2.833   4.900 -0.1126  1.4160  0.3123
11794TIP3    H256874   3.168   2.819   4.938 -0.1421 -1.1731 -0.4800
11795TIP3   OH256875   4.540   4.822  16.958 -0.2279 -0.2184  0.2821
11795TIP3    H156876   4.480   4.763  16.912  0.6876 -0.2652 -0.8748
11795TIP3    H256877   4.489   4.855  17.032 -1.2654 -1.2325  0.0360
11796TIP3   OH256878   5.833   0.171  16.373  0.5372 -0.4082  0.3010
11796TIP3    H156879   5.826   0.093  16.318  0.7864 -0.1575 -0.0884
11796TIP3    H256880   5.927   0.178  16.391  0.2025 -2.0755  3.0472
11797TIP3   OH256881   4.991   0.512  10.612 -0.0172 -0.1879 -0.2320
11797TIP3    H156882   5.057   0.463  10.562  0.7503  0.6946 -0.1087
11797TIP3    H256883   5.042   0.576  10.662 -1.0300  0.9609 -0.6599
11798TIP3   OH256884   0.800   0.537   0.941  0.6483 -0.0570 -0.2805
11798TIP3    H156885   0.736   0.472   0.968  1.1205  0.0344  1.0910
11798TIP3    H256886   0.750   0.601   0.890  0.0726 -1.1597 -1.1109
11799TIP3   OH256887   2.643   4.036   5.322  0.1601 -0.3737 -0.2970
11799TIP3    H156888   2.722   4.078   5.356  0.7171 -1.8537  0.2830
11799TIP3    H256889   2.623   4.084   5.242  1.4220  0.2782 -0.2355
11800TIP3   OH256890   6.327   6.212   4.092  0.3974 -0.1527  0.4311
11800TIP3    H156891   6.306   6.305   4.087 -0.6090 -0.3663  0.4495
11800TIP3    H256892   6.355   6.188   4.004  1.4190  0.3386  0.6181
11801TIP3   OH256893   6.558   6.588  11.440  0.5589  0.3134 -0.1652
11801TIP3    H156894   6.613   6.563  11.514  1.0562  2.8114  0.3326
11801TIP3    H256895   6.499   6.655  11.474 -0.4121  0.2190 -1.5883
11802TIP3   OH256896   1.734   4.702   5.978  0.2475 -0.1987 -0.1428
11802TIP3    H156897   1.812   4.721   6.031 -0.0748  1.1522 -0.1287
11802TIP3    H256898   1.678   4.778   5.991 -1.1076 -1.1927 -0.1169
11803TIP3   OH256899   3.294   6.074   3.743 -0.2038  0.1903  0.4012
11803TIP3    H156900   3.265   5.983   3.756  0.0616  0.0377 -0.0597
11803TIP3    H256901   3.380   6.066   3.702 -1.0296  0.6415 -1.4673
11804TIP3   OH256902   6.659   5.185   6.157  1.1573  0.2499 -0.1879
11804TIP3    H156903   6.689   5.226   6.076  0.4411 -0.3692 -0.7805
11804TIP3    H256904   6.655   5.256   6.220  0.1909  1.0464 -1.1294
11805TIP3   OH256905   4.557   2.949  16.665  0.2736 -0.3751 -0.5788
11805TIP3    H156906   4.651   2.931  16.655  0.5741 -0.6576  2.2978
11805TIP3    H256907   4.554   3.033  16.711 -0.9381  0.6229 -2.4252
11806TIP3   OH256908   4.619   0.259   5.479 -0.5828  0.4277 -0.0477
11806TIP3    H156909   4.678   0.210   5.422 -0.9909 -1.2806  0.9907
11806TIP3    H256910   4.583   0.194   5.539 -1.9307  1.8126  0.6773
11807TIP3   OH256911   0.522   6.675   5.765  0.4417  0.1871 -0.6185
11807TIP3    H156912   0.533   6.684   5.859 -0.0628  1.7109 -0.7002
11807TIP3    H256913   0.477   6.591   5.753  3.3265 -1.5631  0.2931
11808TIP3   OH256914   6.713   6.777   5.797  0.2108 -0.3913 -0.3405
11808TIP3    H156915   6.709   6.692   5.841 -0.8164 -0.6174 -0.8623
11808TIP3    H256916   6.635   6.779   5.742 -0.3847  1.3835  0.5381
11809TIP3   OH256917   4.279   2.987   4.939  0.0524  0.3503  0.2948
11809TIP3    H156918   4.296   3.028   4.855 -2.0526  0.9834  0.1397
11809TIP3    H256919   4.202   2.932   4.923  0.8659 -1.0902  1.3091
11810TIP3   OH256920   4.212   0.183  12.499 -0.6916  0.2389  0.2763
11810TIP3    H156921   4.268   0.221  12.432  0.7471 -1.1040  0.6979
11810TIP3    H256922   4.271   0.165  12.572 -1.4835 -2.0967  0.3772
11811TIP3   OH256923   2.908   3.436   3.727  0.0640 -0.0239 -0.6366
11811TIP3    H156924   2.942   3.350   3.704  1.9256  0.3449  0.6575
11811TIP3    H256925   2.881   3.428   3.818  0.8340  0.9499 -0.3231
11812TIP3   OH256926   3.553   2.285  16.496 -0.4189 -0.0337 -0.1364
11812TIP3    H156927   3.578   2.278  16.404  0.4869 -1.6383  0.2299
11812TIP3    H256928   3.549   2.195  16.527 -0.6784  0.5026  1.4173
11813TIP3   OH256929   5.100   6.499  10.643  0.2668 -0.1513  0.1296
11813TIP3    H156930   5.152   6.450  10.579  1.3283  1.1522 -0.0247
11813TIP3    H256931   5.139   6.587  10.643 -0.3771  0.1393  1.8182
11814TIP3   OH256932   4.350   3.029   0.461 -0.1567  0.2215  0.3690
11814TIP3    H156933   4.364   3.000   0.551 -0.3636  1.0313  0.6629
11814TIP3    H256934   4.430   3.077   0.439 -1.0940  2.0942  0.9499
11815TIP3   OH256935   1.949   0.688   2.287 -0.0097 -0.7636  0.8554
11815TIP3    H156936   2.031   0.718   2.249  0.0990 -0.1662  1.5566
11815TIP3    H256937   1.971   0.667   2.378 -0.8188  0.2038  1.2826
11816TIP3   OH256938   5.491   5.956  15.427 -0.1734 -0.2923 -0.1398
11816TIP3    H156939   5.522   5.896  15.360 -0.4242  0.1214 -0.6331
11816TIP3    H256940   5.407   5.919  15.456 -0.3549 -0.1490 -0.4848
11817TIP3   OH256941   3.050   2.279   5.564  0.2946  0.6074 -0.3933
11817TIP3    H156942   3.071   2.255   5.654  1.3950 -0.6047 -0.9642
11817TIP3    H256943   3.135   2.287   5.521 -0.2564  0.4460 -1.5173
11818TIP3   OH256944   3.972   6.228  11.186 -0.6704 -0.0590  0.4533
11818TIP3    H156945   3.957   6.309  11.136  0.4148  0.2723  0.6625
11818TIP3    H256946   3.970   6.159  11.121 -1.4247  0.1551  0.2470
11819TIP3   OH256947   4.797   3.021   2.289  0.6096 -0.0500 -0.0861
11819TIP3    H156948   4.886   3.056   2.291  0.8051  0.0552 -4.5388
11819TIP3    H256949   4.805   2.940   2.238 -1.8012 -0.1269 -0.3975
11820TIP3   OH256950   3.984   2.418  17.158  0.3323  0.1046 -0.0448
11820TIP3    H156951   3.994   2.365  17.237 -0.7740  1.1699  0.8248
11820TIP3    H256952   4.074   2.436  17.130  0.7888  1.3888  2.1251
11821TIP3   OH256953   0.487   1.989  16.212 -0.3686 -0.4171  0.0665
11821TIP3    H156954   0.503   1.964  16.303  0.7884 -0.4540 -0.1357
11821TIP3    H256955   0.427   2.063  16.217 -1.0814 -1.0391  0.8139
11822TIP3   OH256956   1.010   4.154  12.730 -0.1187  0.3178  0.0295
11822TIP3    H156957   0.979   4.245  12.730 -2.5398 -0.4795  1.3615
11822TIP3    H256958   1.103   4.161  12.752 -0.6320  2.3536  1.7301
11823TIP3   OH256959   6.075   0.667  16.397  0.2688  0.1120  0.4717
11823TIP3    H156960   6.141   0.680  16.465  0.0841  0.5024  0.5750
11823TIP3    H256961   6.098   0.584  16.356  1.5209  0.8099 -0.2710
11824TIP3   OH256962   5.933   2.346  12.309  0.1173 -0.1110  0.0532
11824TIP3    H156963   5.975   2.310  12.388  1.2315 -0.2780 -0.6063
11824TIP3    H256964   5.877   2.275  12.278 -1.4257  0.4519  1.4813
11825TIP3   OH256965   5.592   5.692  11.004 -0.1859 -0.2023  0.6627
11825TIP3    H156966   5.667   5.692  10.944  0.0381  0.1325  0.9366
11825TIP3    H256967   5.538   5.765  10.974  0.4999  0.6861  1.5669
11826TIP3   OH256968   6.151   1.299  12.484 -0.6847 -0.1409 -0.2262
11826TIP3    H156969   6.170   1.273  12.575 -0.9704  1.1270  0.2105
11826TIP3    H256970   6.073   1.355  12.491  0.6536  1.8907 -0.9582
11827TIP3   OH256971   5.906   6.779  15.321 -0.1196  0.0788  0.1506
11827TIP3    H156972   5.910   6.793  15.416  1.9517  1.4495 -0.1200
11827TIP3    H256973   5.941   6.859  15.283 -2.1507  0.0804 -1.8534
11828TIP3   OH256974   6.529   1.777   2.559 -0.0579  0.4216 -0.2222
11828TIP3    H156975   6.473   1.803   2.486 -1.1872 -0.3211  0.3646
11828TIP3    H256976   6.470   1.775   2.635  0.8898  0.2081  0.5129
11829TIP3   OH256977   5.577   6.530   1.275 -0.0660  0.1388 -0.2154
11829TIP3    H156978   5.530   6.448   1.291  0.1383  0.4726  2.1832
11829TIP3    H256979   5.670   6.505   1.279  0.0156 -0.0888 -2.6884
11830TIP3   OH256980   6.371   1.735  10.618 -0.0553 -0.2428  0.2642
11830TIP3    H156981   6.328   1.722  10.534 -0.3763  0.3240  0.3378
11830TIP3    H256982   6.442   1.672  10.619  0.3280  0.1679 -0.6933
11831TIP3   OH256983   4.856   3.034  14.645 -0.4039 -0.5673  0.1396
11831TIP3    H156984   4.802   2.997  14.576 -2.9683 -3.1202  3.3586
11831TIP3    H256985   4.796   3.085  14.698  1.0025 -0.6286  1.8514
11832TIP3   OH256986   0.330   1.067  16.800 -0.1169  0.9421  0.4339
11832TIP3    H156987   0.274   0.999  16.838 -0.0612  0.5239 -0.2314
11832TIP3    H256988   0.402   1.076  16.862 -0.6345  1.0920  1.0224
11833TIP3   OH256989   2.524   6.686   0.762  0.3302  0.1847 -0.5278
11833TIP3    H156990   2.576   6.606   0.752  0.8613  0.6745 -1.8294
11833TIP3    H256991   2.446   6.671   0.709  1.2467  1.1937 -2.2226
11834TIP3   OH256992   1.915   6.368  13.126  0.6507 -0.0171 -0.5872
11834TIP3    H156993   1.877   6.372  13.038  2.9702  1.7996 -1.5537
11834TIP3    H256994   1.839   6.370  13.184 -0.9284 -1.3891 -2.5316
11835TIP3   OH256995   5.419   5.847   5.791  0.8725  0.2167 -0.1917
11835TIP3    H156996   5.468   5.807   5.864 -0.0941  1.3382  1.0856
11835TIP3    H256997   5.439   5.791   5.716  0.7612 -1.7965  1.2355
11836TIP3   OH256998   5.849   5.387   3.652 -0.5408 -0.1401  0.0221
11836TIP3    H156999   5.848   5.374   3.557 -3.1907  0.8821 -0.1225
11836TIP3    H257000   5.785   5.456   3.668 -0.0909 -0.2508  2.5747
11837TIP3   OH257001   2.563   4.227  17.143 -0.7113 -0.4088 -0.2340
11837TIP3    H157002   2.607   4.311  17.130 -1.3562 -0.1490 -0.7398
11837TIP3    H257003   2.583   4.204  17.234  0.5372 -0.3368 -0.4741
11838TIP3   OH257004   5.207   6.150   3.505  0.5046 -0.1322 -0.2253
11838TIP3    H157005   5.148   6.150   3.429 -0.1084 -0.4085  0.2465
11838TIP3    H257006   5.247   6.237   3.504 -0.3076  0.2480 -0.2549
11839TIP3   OH257007   5.977   5.423   2.427  0.3939 -0.0957  0.5248
11839TIP3    H157008   6.038   5.350   2.436 -0.4191 -0.9248 -0.7467
11839TIP3    H257009   5.919   5.399   2.356  0.0259  1.7316  0.1678
11840TIP3   OH257010   6.126   1.766   4.535 -0.5917  0.4541 -0.0667
11840TIP3    H157011   6.116   1.816   4.454  0.7627  1.9138  0.6396
11840TIP3    H257012   6.180   1.691   4.511 -0.3677  0.7694 -0.5596
11841TIP3   OH257013   0.910   5.567   5.125 -0.3357 -0.3196  0.7228
11841TIP3    H157014   0.940   5.509   5.055  1.4893  1.4923 -0.0685
11841TIP3    H257015   0.837   5.616   5.085  0.8982  0.9266 -0.0510
11842TIP3   OH257016   3.345   2.176  17.231  0.4108 -0.5072  0.2814
11842TIP3    H157017   3.411   2.212  17.291 -0.6627 -2.0782  2.4820
11842TIP3    H257018   3.303   2.253  17.194  0.7749  0.5343  1.9487
11843TIP3   OH257019   4.422   4.125   3.148 -0.1166 -0.7066  0.1300
11843TIP3    H157020   4.420   4.054   3.083  2.2819 -0.4514 -0.2614
11843TIP3    H257021   4.389   4.201   3.101  0.2039 -0.8668 -0.3621
11844TIP3   OH257022   6.032   3.474  17.236  0.0864 -0.5396 -0.0337
11844TIP3    H157023   6.069   3.459  17.149 -0.7462 -0.5234 -0.3979
11844TIP3    H257024   5.976   3.398  17.252 -3.0648  1.3837 -1.3073
11845TIP3   OH257025   0.439   4.312   4.803  0.3818  0.2566 -0.2422
11845TIP3    H157026   0.369   4.285   4.863  0.1259  0.0280 -0.6400
11845TIP3    H257027   0.393   4.356   4.731  0.4125 -2.2513 -1.8284
11846TIP3   OH257028   6.802   3.083  16.121 -0.3632  0.2452  0.3682
11846TIP3    H157029   6.880   3.050  16.076 -0.1664  2.8589 -1.2852
11846TIP3    H257030   6.733   3.023  16.095  0.4406 -0.2167 -0.7700
11847TIP3   OH257031   6.388   5.505  14.373  0.3696 -0.3454 -0.2267
11847TIP3    H157032   6.310   5.514  14.428 -0.9123  0.1988 -2.0802
11847TIP3    H257033   6.387   5.583  14.317  1.7799 -0.7554 -0.8390
11848TIP3   OH257034   5.758   5.431   1.629  0.3717  0.1093 -0.2506
11848TIP3    H157035   5.835   5.438   1.573 -0.7560  0.2148 -1.8424
11848TIP3    H257036   5.740   5.338   1.636  0.6450  0.0845  0.1212
11849TIP3   OH257037   1.433   5.882  16.227 -0.4773 -0.2165  0.0566
11849TIP3    H157038   1.466   5.886  16.317 -0.2225 -1.1171  0.0092
11849TIP3    H257039   1.413   5.790  16.213  1.3220 -0.4173 -1.4605
11850TIP3   OH257040   3.555   2.506   3.983  0.6166 -0.5597  0.3918
11850TIP3    H157041   3.541   2.448   4.059 -0.3687  1.5935  1.9084
11850TIP3    H257042   3.635   2.554   4.005  0.9438 -0.7162 -0.4590
11851TIP3   OH257043   2.653   3.243   4.577 -0.5392  0.7496  0.1756
11851TIP3    H157044   2.665   3.282   4.491 -0.2886 -0.5936 -0.4078
11851TIP3    H257045   2.661   3.317   4.638  0.1934  1.5662 -0.8863
11852TIP3   OH257046   1.457   0.509  12.429 -0.0071 -0.5276  0.2093
11852TIP3    H157047   1.540   0.530  12.472  0.5544 -0.8326 -0.7262
11852TIP3    H257048   1.419   0.440  12.483  0.1489 -0.1057  0.8723
11853TIP3   OH257049   6.369   5.489  14.947  0.0267 -0.7910 -0.4330
11853TIP3    H157050   6.403   5.541  15.020 -0.7416  0.3651 -0.8963
11853TIP3    H257051   6.275   5.484  14.963  0.1105 -2.1960 -0.3060
11854TIP3   OH257052   2.822   6.627   2.075  0.5410 -0.0976  0.7115
11854TIP3    H157053   2.908   6.603   2.109  0.7184 -1.0560 -0.3792
11854TIP3    H257054   2.787   6.546   2.039 -0.9544  0.2215  1.4120
11855TIP3   OH257055   2.677   5.471  10.573 -0.4748  0.6282 -0.1263
11855TIP3    H157056   2.671   5.386  10.529  0.0050  0.2877  0.4504
11855TIP3    H257057   2.736   5.523  10.518 -1.4309  0.8792 -0.9286
11856TIP3   OH257058   0.254   3.371   2.904  0.3362  0.2059  0.1950
11856TIP3    H157059   0.176   3.367   2.959 -0.3319 -0.8633 -0.8099
11856TIP3    H257060   0.233   3.437   2.838 -0.1606 -0.8465 -0.7192
11857TIP3   OH257061   0.659   2.078   5.760 -0.3130  0.1034  0.4717
11857TIP3    H157062   0.750   2.058   5.738  0.0069  0.9528  0.9654
11857TIP3    H257063   0.607   2.026   5.700  0.5178  1.1195 -1.1665
11858TIP3   OH257064   2.201   0.489  16.817  0.5540  0.2848 -0.3031
11858TIP3    H157065   2.167   0.526  16.899 -0.6092  0.3429 -0.8060
11858TIP3    H257066   2.124   0.456  16.771  1.1696  0.4829 -1.5035
11859TIP3   OH257067   2.025   5.270  14.396 -0.0165 -0.2546 -0.1404
11859TIP3    H157068   2.046   5.206  14.328  1.1972  0.9975 -0.9471
11859TIP3    H257069   2.095   5.260  14.461 -0.1813 -0.1882  0.0505
11860TIP3   OH257070   5.050   0.330   2.535  0.2388 -0.4885  0.2014
11860TIP3    H157071   4.955   0.337   2.524  0.2754  0.3026  0.3538
11860TIP3    H257072   5.086   0.354   2.450  0.3174 -0.3520  0.2737
11861TIP3   OH257073   6.486   5.283   0.271  0.1622 -0.3064 -0.0004
11861TIP3    H157074   6.569   5.294   0.224  0.2452  0.9102  0.3921
11861TIP3    H257075   6.459   5.193   0.253  0.6150 -0.1259 -1.6864
11862TIP3   OH257076   3.720   0.196   3.672 -0.3464 -0.8485 -0.4263
11862TIP3    H157077   3.651   0.172   3.610 -0.4081 -3.1172  0.4598
11862TIP3    H257078   3.685   0.172   3.758  1.2779 -1.4459  0.0908
11863TIP3   OH257079   3.029   3.278   1.645 -0.2217  0.1221 -0.0211
11863TIP3    H157080   3.120   3.275   1.613 -0.8598  1.1132 -1.9792
11863TIP3    H257081   2.977   3.297   1.568 -1.8967  1.9619  1.5030
11864TIP3   OH257082   6.555   4.463  13.267 -0.0869 -0.5237 -0.6199
11864TIP3    H157083   6.492   4.454  13.195  1.6367 -0.3893 -2.1764
11864TIP3    H257084   6.625   4.401  13.247  0.8489  0.1443  0.4689
11865TIP3   OH257085   6.363   1.564  14.869  0.3679  0.7852 -0.1049
11865TIP3    H157086   6.336   1.630  14.932  0.3075  1.6522 -1.0193
11865TIP3    H257087   6.459   1.565  14.872  0.3633  0.6912  0.0987
11866TIP3   OH257088   1.354   2.365  12.388 -0.1553 -0.1396 -0.1594
11866TIP3    H157089   1.428   2.354  12.328  0.3799  0.9351  0.2893
11866TIP3    H257090   1.377   2.314  12.465  0.2391  0.4091  0.0849
11867TIP3   OH257091   0.802   4.004  16.036  1.0925 -0.0769  0.5326
11867TIP3    H157092   0.794   3.917  15.997 -1.5776  0.5664 -0.5009
11867TIP3    H257093   0.770   3.994  16.125 -0.1034 -0.0088  0.1271
11868TIP3   OH257094   2.658   3.981  16.707 -0.3320  0.3520  0.1263
11868TIP3    H157095   2.603   4.037  16.762 -1.6652 -1.5871  0.8042
11868TIP3    H257096   2.607   3.967  16.627 -0.7352 -1.2565  0.6558
11869TIP3   OH257097   1.089   0.509   2.115 -0.1628  0.3120  0.2088
11869TIP3    H157098   1.130   0.586   2.076  0.7956  0.1402  0.8502
11869TIP3    H257099   1.162   0.451   2.136 -0.9177 -1.0657 -0.8660
11870TIP3   OH257100   4.802   5.557   4.278  0.4152  0.3418 -0.6248
11870TIP3    H157101   4.885   5.516   4.304  0.1280 -0.1257 -0.4380
11870TIP3    H257102   4.779   5.513   4.196  0.2320  0.3038 -0.5539
11871TIP3   OH257103   5.103   3.981  12.166  0.5338 -0.4142 -0.2403
11871TIP3    H157104   5.025   3.986  12.221  0.0775 -3.5365 -0.5030
11871TIP3    H257105   5.079   4.027  12.085  0.5674  2.5525  1.3633
11872TIP3   OH257106   1.024   6.597   3.219 -0.0899  0.2142  0.3768
11872TIP3    H157107   0.967   6.546   3.162  0.8998 -2.3898  1.6378
11872TIP3    H257108   0.966   6.628   3.289 -0.3504 -0.7871  0.6144
11873TIP3   OH257109   3.884   6.075   2.760  0.1340 -0.0712  0.3562
11873TIP3    H157110   3.968   6.069   2.806 -0.7418 -1.3359  1.8345
11873TIP3    H257111   3.862   5.984   2.738 -1.2636  0.1550  0.7694
11874TIP3   OH257112   6.553   0.941  15.223 -0.0642 -0.0150  0.5609
11874TIP3    H157113   6.478   0.882  15.238 -0.6758  1.1638  2.3258
11874TIP3    H257114   6.614   0.889  15.171 -1.6250 -1.4001  0.0556
11875TIP3   OH257115   6.714   3.641  16.665  0.4448  0.2005  0.0994
11875TIP3    H157116   6.753   3.572  16.611 -1.2356  0.5760 -1.6695
11875TIP3    H257117   6.699   3.599  16.749  0.4389 -1.2886 -0.6177
11876TIP3   OH257118   1.892   5.385   3.435 -0.0811  0.4472  0.3541
11876TIP3    H157119   1.935   5.305   3.464 -0.0492 -0.6895 -2.6622
11876TIP3    H257120   1.925   5.453   3.494  0.8700 -1.5402  2.1353
11877TIP3   OH257121   3.198   0.847  16.616  0.0553  0.5795 -0.5061
11877TIP3    H157122   3.104   0.860  16.610 -0.0389  0.3833  0.4954
11877TIP3    H257123   3.211   0.797  16.697  0.8339 -1.2868 -1.7371
11878TIP3   OH257124   1.251   1.658  14.459  0.8389 -0.6108  0.5295
11878TIP3    H157125   1.300   1.739  14.475 -0.3612  0.5652 -1.5010
11878TIP3    H257126   1.256   1.646  14.364  0.9605 -2.8992  0.8150
11879TIP3   OH257127   2.713   6.453  16.567  0.2145  0.5693 -0.5658
11879TIP3    H157128   2.635   6.449  16.621  0.6284 -4.1861 -0.1173
11879TIP3    H257129   2.780   6.492  16.623 -0.7454  0.7441  0.4634
11880TIP3   OH257130   6.150   5.926   5.077  0.0814  0.2802 -0.5425
11880TIP3    H157131   6.195   5.864   5.020 -0.0492 -1.0200  0.7465
11880TIP3    H257132   6.171   5.898   5.166 -2.0099  0.5693  0.0860
11881TIP3   OH257133   5.156   4.275   4.081  0.2845 -0.0482 -1.0832
11881TIP3    H157134   5.122   4.364   4.073 -1.6765 -0.8215 -1.8032
11881TIP3    H257135   5.142   4.236   3.995  2.7230 -0.5257 -1.2852
11882TIP3   OH257136   1.617   1.118  16.797  0.3355  0.3276  0.2385
11882TIP3    H157137   1.654   1.059  16.732 -0.8073  0.5437 -0.6235
11882TIP3    H257138   1.570   1.061  16.858  0.0792  0.2522 -0.0266
11883TIP3   OH257139   3.801   4.808  12.135 -0.6671  0.3075  0.2216
11883TIP3    H157140   3.791   4.714  12.149 -0.7278  0.0813 -1.3127
11883TIP3    H257141   3.714   4.844  12.154 -0.3168  0.2242  2.0596
11884TIP3   OH257142   2.560   5.994   2.837 -0.2064  0.1296 -0.2786
11884TIP3    H157143   2.495   5.959   2.897  0.5921 -1.8506 -0.5376
11884TIP3    H257144   2.619   5.921   2.820  1.3293  1.5145 -1.0859
11885TIP3   OH257145   0.104   0.214   3.024  0.2657 -0.3657 -0.4006
11885TIP3    H157146   0.199   0.202   3.019  0.3984 -0.1073  1.2153
11885TIP3    H257147   0.073   0.139   3.074 -0.3115 -0.1936 -0.4971
11886TIP3   OH257148   5.350   0.502  13.655 -0.3694 -0.2509  0.5552
11886TIP3    H157149   5.273   0.449  13.675 -2.4603  1.4458 -2.5667
11886TIP3    H257150   5.330   0.589  13.691  0.0409  0.2030 -0.2827
11887TIP3   OH257151   4.495   2.534  16.679  0.1435 -0.6993 -0.8562
11887TIP3    H157152   4.494   2.459  16.739  0.4898 -1.5489 -1.8843
11887TIP3    H257153   4.533   2.605  16.730  0.3187 -1.3761 -0.0309
11888TIP3   OH257154   6.510   4.092  11.318 -0.1924 -0.1306 -0.8085
11888TIP3    H157155   6.534   4.053  11.234 -1.2642 -1.8295 -0.3462
11888TIP3    H257156   6.559   4.043  11.383 -0.4656  0.2365 -0.3231
11889TIP3   OH257157   6.818   3.523  12.127  0.0113 -0.2306 -0.0341
11889TIP3    H157158   6.772   3.593  12.173  0.3142 -0.4058  0.5505
11889TIP3    H257159   6.909   3.553  12.122  0.0247 -0.3193 -0.3007
11890TIP3   OH257160   0.134   2.916   0.377 -0.1786  0.6781 -0.9876
11890TIP3    H157161   0.187   2.941   0.302  0.2884 -0.0254 -0.9007
11890TIP3    H257162   0.066   2.983   0.383  0.2091  1.1242 -1.6035
11891TIP3   OH257163   4.714   3.061  16.055  0.2331 -0.5442 -0.4886
11891TIP3    H157164   4.731   3.133  15.995 -0.0576 -0.8279 -0.9139
11891TIP3    H257165   4.618   3.055  16.058  0.2388 -0.3032  0.2685
11892TIP3   OH257166   0.318   4.540  12.950  0.0722  0.0077 -0.1234
11892TIP3    H157167   0.400   4.517  12.993  0.4913  1.2632 -0.2383
11892TIP3    H257168   0.342   4.607  12.886 -0.7970 -0.7427 -1.2508
11893TIP3   OH257169   5.364   5.133  12.298  0.0625 -0.2319 -0.0601
11893TIP3    H157170   5.426   5.097  12.361  1.6282  0.6123 -1.0682
11893TIP3    H257171   5.330   5.057  12.252  1.5713 -0.6158 -0.5722
11894TIP3   OH257172   3.735   4.393   5.439  0.5651 -0.6194  0.7978
11894TIP3    H157173   3.691   4.308   5.438  0.3368 -0.5096  1.2675
11894TIP3    H257174   3.791   4.392   5.361 -0.2932 -0.7530  0.1748
11895TIP3   OH257175   4.898   6.085  17.210  0.2842  0.2769 -0.1216
11895TIP3    H157176   4.909   6.050  17.298 -0.9155  0.4457  0.1069
11895TIP3    H257177   4.828   6.033  17.171 -0.6392  1.5635 -0.2243
11896TIP3   OH257178   3.106   2.182   5.837  0.2907 -0.1012 -0.4886
11896TIP3    H157179   3.084   2.123   5.909  1.3407 -1.5628 -1.3466
11896TIP3    H257180   3.196   2.209   5.857  0.1526  0.4514 -0.6165
11897TIP3   OH257181   3.777   1.465  12.717  0.1116  0.6920 -0.2168
11897TIP3    H157182   3.805   1.402  12.784 -0.1576 -1.4431 -2.0479
11897TIP3    H257183   3.846   1.462  12.651  0.4803  2.9350  0.0268
11898TIP3   OH257184   5.312   3.498   5.833  0.2815 -0.0883  0.8786
11898TIP3    H157185   5.336   3.408   5.854 -3.8989 -1.6473 -0.5012
11898TIP3    H257186   5.343   3.510   5.743  0.0375 -0.4497  0.7467
11899TIP3   OH257187   0.511   6.168  11.868 -0.1035 -0.3686 -0.2564
11899TIP3    H157188   0.592   6.201  11.906  0.5504  1.4491 -3.1099
11899TIP3    H257189   0.449   6.166  11.940  1.9034  0.1693  1.5140
11900TIP3   OH257190   5.529   4.889  11.405  0.3154 -0.0817 -0.0811
11900TIP3    H157191   5.620   4.913  11.386  0.1088  0.5390 -0.3039
11900TIP3    H257192   5.498   4.958  11.463 -0.1902  0.0261 -0.4759
11901TIP3   OH257193   0.333   6.274   2.760  0.0325  0.3516  0.0164
11901TIP3    H157194   0.329   6.262   2.855  1.2132  1.5153  0.2437
11901TIP3    H257195   0.286   6.356   2.744  1.3393  1.0944 -0.1629
11902TIP3   OH257196   4.025   0.682   4.573  0.5277  0.4774  0.2978
11902TIP3    H157197   4.053   0.744   4.640 -1.4190  1.5593  0.1100
11902TIP3    H257198   3.986   0.610   4.622  2.4614 -0.4917  0.4935
11903TIP3   OH257199   5.425   0.860  12.181  0.4964 -0.1564  0.2282
11903TIP3    H157200   5.454   0.788  12.126  0.0204  0.8329 -1.3372
11903TIP3    H257201   5.336   0.879  12.153  0.6822  1.1697  0.4773
11904TIP3   OH257202   3.287   2.126   1.857  0.3624 -0.1409 -0.1493
11904TIP3    H157203   3.326   2.130   1.770  0.4482  1.2135 -0.0633
11904TIP3    H257204   3.193   2.118   1.842  0.4413 -0.6479 -0.3650
11905TIP3   OH257205   3.316   0.917   2.699 -0.1344 -0.1030 -0.3878
11905TIP3    H157206   3.292   0.857   2.629 -0.3696 -0.9078  0.3647
11905TIP3    H257207   3.403   0.949   2.676 -1.4202  1.9437 -2.5603
11906TIP3   OH257208   5.257   3.296  12.214 -0.5289  0.2054 -0.1101
11906TIP3    H157209   5.307   3.215  12.209 -1.4274 -0.2941 -1.2535
11906TIP3    H257210   5.220   3.295  12.303 -0.1965 -0.4315  0.0302
11907TIP3   OH257211   2.880   1.106   1.831  0.0763  0.4323  0.1737
11907TIP3    H157212   2.892   1.121   1.924  2.1733 -0.8710  0.1324
11907TIP3    H257213   2.816   1.035   1.826  0.5816 -0.0660  0.6601
11908TIP3   OH257214   3.628   2.274   1.934 -0.1604 -0.1789 -0.0087
11908TIP3    H157215   3.686   2.345   1.960 -0.8999  0.6028 -0.4630
11908TIP3    H257216   3.591   2.302   1.850 -0.0254 -1.3594 -0.4699
11909TIP3   OH257217   3.718   6.243   5.929  0.4791  0.5110 -0.0029
11909TIP3    H157218   3.652   6.305   5.899  0.8078  0.4669 -0.8366
11909TIP3    H257219   3.702   6.234   6.023 -0.6822  0.5287 -0.1875
11910TIP3   OH257220   6.148   3.277   1.961  0.7687  0.2940 -0.1734
11910TIP3    H157221   6.091   3.293   2.037  1.5005  0.8252  0.2736
11910TIP3    H257222   6.140   3.356   1.908 -0.4420 -0.4460 -1.1165
11911TIP3   OH257223   0.477   5.040  10.636  0.2457 -0.1363 -0.1608
11911TIP3    H157224   0.382   5.045  10.647  0.3861  0.2173  0.9221
11911TIP3    H257225   0.505   5.130  10.617  0.4139 -0.1813 -0.1310
11912TIP3   OH257226   5.030   3.219   1.286 -0.5470  0.7261  0.2705
11912TIP3    H157227   5.005   3.228   1.378 -0.1583  0.3598  0.4168
11912TIP3    H257228   4.961   3.165   1.247  0.0819 -0.4196  0.7085
11913TIP3   OH257229   1.617   5.343   4.983  0.1662  0.0350  0.2405
11913TIP3    H157230   1.625   5.345   4.888  0.7578 -0.3795  0.2831
11913TIP3    H257231   1.681   5.408   5.014 -0.2295  0.3797  0.3463
11914TIP3   OH257232   5.646   0.388   5.580 -0.0789  0.0791 -0.0845
11914TIP3    H157233   5.720   0.399   5.521  0.7816  0.1215  0.9881
11914TIP3    H257234   5.639   0.293   5.593 -1.1482 -0.0248 -1.3496
11915TIP3   OH257235   4.904   3.566   2.066 -1.0329 -0.8803 -0.2150
11915TIP3    H157236   4.905   3.655   2.102 -1.1892 -1.0218  0.1377
11915TIP3    H257237   4.940   3.576   1.978  0.4066 -0.7054  0.3844
11916TIP3   OH257238   6.707   1.914   1.503  0.2050 -0.1885  0.2461
11916TIP3    H157239   6.648   1.870   1.442 -2.1433  3.6572 -0.4083
11916TIP3    H257240   6.782   1.941   1.449 -0.3087  0.2832 -0.2347
11917TIP3   OH257241   5.607   5.472   4.247 -0.0524 -0.0468 -0.0893
11917TIP3    H157242   5.625   5.448   4.338 -0.1501 -1.5552 -0.4660
11917TIP3    H257243   5.677   5.432   4.196  1.6154  3.1336 -0.4297
11918TIP3   OH257244   6.611   2.395  12.913 -0.5023 -0.3215  0.1166
11918TIP3    H157245   6.536   2.340  12.938  0.2364 -1.4033 -0.0541
11918TIP3    H257246   6.617   2.459  12.984 -0.4083 -1.4081  1.1037
11919TIP3   OH257247   1.027   3.297  12.830 -0.7344  0.2226 -0.1242
11919TIP3    H157248   0.962   3.241  12.788  1.8281 -1.6386 -1.7426
11919TIP3    H257249   1.016   3.280  12.924 -0.5493 -2.4801 -0.5427
11920TIP3   OH257250   5.569   1.267  13.455 -0.1735 -0.2209 -0.2848
11920TIP3    H157251   5.494   1.226  13.499 -0.7807  0.9079 -0.2288
11920TIP3    H257252   5.609   1.322  13.523  1.2019 -1.4351 -0.0950
11921TIP3   OH257253   4.455   2.294   5.781  0.1341  0.1672 -0.2365
11921TIP3    H157254   4.493   2.244   5.708  0.1850  0.0415 -0.1240
11921TIP3    H257255   4.377   2.244   5.805  0.3372 -0.0086  0.0592
11922TIP3   OH257256   5.987   5.484   4.111  0.1323  0.2907  0.0916
11922TIP3    H157257   6.001   5.575   4.085  1.5609  0.1974  0.4735
11922TIP3    H257258   5.953   5.441   4.032  0.3097  0.9557 -0.3473
11923TIP3   OH257259   1.166   2.070  12.581  0.4118  0.5753 -0.5799
11923TIP3    H157260   1.096   2.133  12.563 -0.4486 -0.0126  0.6761
11923TIP3    H257261   1.237   2.123  12.617 -0.1714  0.8851  0.1231
11924TIP3   OH257262   0.573   3.781   5.780 -0.3423 -0.6932  0.2179
11924TIP3    H157263   0.524   3.714   5.828  0.3790  0.2760  2.3640
11924TIP3    H257264   0.509   3.819   5.719 -1.1422 -2.2924  0.0422
11925TIP3   OH257265   1.170   5.501   1.573 -0.4572 -0.0449 -0.5006
11925TIP3    H157266   1.146   5.463   1.488 -2.0499 -0.7029  0.2234
11925TIP3    H257267   1.152   5.595   1.563 -3.4038 -0.4903 -0.0122
11926TIP3   OH257268   1.121   6.435   3.661  0.7728  0.4859 -0.0208
11926TIP3    H157269   1.133   6.495   3.588 -2.3350 -1.2028 -2.0377
11926TIP3    H257270   1.068   6.483   3.724  1.1852  1.0179 -0.0783
11927TIP3   OH257271   5.957   3.085  12.346  0.7076  0.3168  0.7455
11927TIP3    H157272   5.887   3.088  12.281  1.7797  0.0168 -0.4347
11927TIP3    H257273   5.945   3.166  12.396  0.6007  1.1386 -0.5869
11928TIP3   OH257274   1.452   5.278  14.770 -0.4116 -0.1340  0.8057
11928TIP3    H157275   1.425   5.230  14.848 -0.5423 -0.4874  0.5435
11928TIP3    H257276   1.522   5.226  14.731  0.1794  0.4337  1.1057
11929TIP3   OH257277   6.818   3.156   0.322  0.5580 -0.0874  0.1555
11929TIP3    H157278   6.903   3.189   0.294  0.5974 -1.4853 -1.4689
11929TIP3    H257279   6.767   3.149   0.241 -0.4552 -1.1138  0.8618
11930TIP3   OH257280   6.342   0.084  15.364 -0.1544  0.4102  0.2177
11930TIP3    H157281   6.389   0.155  15.407  0.0966 -0.7264  1.8775
11930TIP3    H257282   6.401   0.053  15.296  1.8184 -1.3512  2.6138
11931TIP3   OH257283   5.904   5.897  15.348  0.4970 -0.1071  0.4492
11931TIP3    H157284   5.904   5.916  15.442  0.2982  0.5518  0.3187
11931TIP3    H257285   5.914   5.983  15.306 -0.0266 -0.3359 -0.1452
11932TIP3   OH257286   2.795   2.716  12.265  0.2034  0.3975 -0.3968
11932TIP3    H157287   2.708   2.743  12.296  0.8022  0.8048  0.9931
11932TIP3    H257288   2.787   2.622  12.250  0.1786 -0.0355  2.1166
11933TIP3   OH257289   1.403   3.893  13.757 -0.0703  0.0062  0.1513
11933TIP3    H157290   1.460   3.922  13.686 -2.3441  1.4847 -1.1511
11933TIP3    H257291   1.449   3.917  13.837  0.9054  1.6097 -0.8731
11934TIP3   OH257292   0.050   5.569  16.144 -0.5808  0.4311 -0.3242
11934TIP3    H157293   0.139   5.543  16.167 -1.1952 -0.4939  1.0648
11934TIP3    H257294   0.035   5.649  16.194 -1.0027 -0.1551  0.4924
11935TIP3   OH257295   4.960   1.717  12.805  0.2022 -0.2545 -0.2950
11935TIP3    H157296   4.888   1.769  12.771 -1.0015 -1.7517 -0.0986
11935TIP3    H257297   4.933   1.694  12.894 -0.1353 -2.7158 -0.9953
11936TIP3   OH257298   0.519   3.206  14.055 -0.5567 -0.0791 -0.2940
11936TIP3    H157299   0.457   3.277  14.043 -0.3973 -0.0163 -0.7407
11936TIP3    H257300   0.582   3.239  14.119 -0.3530  0.2611 -0.6737
11937TIP3   OH257301   2.035   6.312  15.489  0.1227  0.4356  0.3300
11937TIP3    H157302   2.012   6.386  15.433  1.3679  0.5380 -0.0705
11937TIP3    H257303   1.952   6.284  15.528 -0.7736  0.2708 -1.6604
11938TIP3   OH257304   1.458   5.336   6.013  0.1912  0.0221  0.0884
11938TIP3    H157305   1.426   5.321   5.925  0.5102  1.2702 -0.2561
11938TIP3    H257306   1.518   5.410   6.005 -0.3354  0.6326  1.4611
11939TIP3   OH257307   3.767   0.600   4.946  0.0483 -0.1631 -0.0753
11939TIP3    H157308   3.770   0.536   5.017  3.4243 -1.3994 -1.2124
11939TIP3    H257309   3.814   0.676   4.981 -1.1646  0.5116  0.1307
11940TIP3   OH257310   1.086   0.390  14.486 -0.0059 -0.3295 -0.1837
11940TIP3    H157311   1.149   0.370  14.555 -0.4178 -2.4023 -0.3842
11940TIP3    H257312   1.082   0.311  14.433 -3.7654 -0.7766  0.6145
11941TIP3   OH257313   2.002   2.114   4.880  0.2587  0.2093 -0.5030
11941TIP3    H157314   1.949   2.054   4.932 -0.2862  1.4961  0.4353
11941TIP3    H257315   2.076   2.137   4.936  1.6486 -1.2946 -1.6744
11942TIP3   OH257316   1.423   0.914   0.103 -0.0954  0.0413  0.3326
11942TIP3    H157317   1.336   0.938   0.135  0.0205  0.2993  0.4545
11942TIP3    H257318   1.415   0.918   0.008  0.0591  1.0812  0.3479
11943TIP3   OH257319   3.678   2.550   2.687  0.0707 -0.6773 -0.0980
11943TIP3    H157320   3.765   2.551   2.647 -0.1177 -0.8687 -0.5208
11943TIP3    H257321   3.660   2.641   2.707  0.5861 -0.6946  0.4732
11944TIP3   OH257322   6.286   6.156  12.531  0.0864  0.7482 -0.0334
11944TIP3    H157323   6.376   6.159  12.500  0.5602 -0.2090  1.1836
11944TIP3    H257324   6.293   6.152  12.626 -1.2210  0.1734  0.0602
11945TIP3   OH257325   1.346   5.267   1.935  0.0163 -0.6328 -0.3248
11945TIP3    H157326   1.321   5.181   1.903 -0.4619 -0.3274 -0.7802
11945TIP3    H257327   1.275   5.325   1.908 -0.1162 -0.2561  0.7867
11946TIP3   OH257328   0.029   6.253  11.997 -0.6742  0.1510 -0.1412
11946TIP3    H157329   0.115   6.290  12.018 -0.9892 -0.5114  2.4145
11946TIP3    H257330   0.048   6.162  11.972 -0.4518  0.5492 -1.4795
11947TIP3   OH257331   5.904   1.678   1.881 -0.5127 -0.2404 -0.1727
11947TIP3    H157332   5.969   1.663   1.949 -0.5954 -1.1015 -0.2744
11947TIP3    H257333   5.907   1.599   1.827 -1.2366 -0.0467 -0.5064
11948TIP3   OH257334   6.104   1.728  12.262 -0.3609  0.1504 -0.3607
11948TIP3    H157335   6.165   1.657  12.283 -1.1133 -0.4734 -0.2747
11948TIP3    H257336   6.160   1.800  12.233  0.4843 -0.0780  0.6854
11949TIP3   OH257337   0.212   5.779  15.560  0.0945  0.4124  0.5577
11949TIP3    H157338   0.150   5.808  15.627  1.0988  1.1749  1.1532
11949TIP3    H257339   0.297   5.781  15.603  0.4901 -1.0904 -0.1201
11950TIP3   OH257340   0.713   0.376   6.260 -0.0317  0.1629  0.2913
11950TIP3    H157341   0.720   0.316   6.186  0.2777  0.5873 -0.0250
11950TIP3    H257342   0.804   0.398   6.282 -0.0608 -0.8302  1.5176
11951TIP3   OH257343   3.405   6.655   4.954 -0.1285 -0.0265 -0.0761
11951TIP3    H157344   3.356   6.693   4.881  0.0115  0.2981 -0.0032
11951TIP3    H257345   3.480   6.612   4.912  0.5190  1.0551 -0.0479
11952TIP3   OH257346   2.932   5.291   4.387 -0.5264  0.2596 -0.5729
11952TIP3    H157347   2.906   5.219   4.329 -1.4348  0.5670 -0.5464
11952TIP3    H257348   2.868   5.360   4.371 -1.6270 -0.1574  1.7922
11953TIP3   OH257349   5.386   4.819   3.331 -0.0798  0.0378  0.0499
11953TIP3    H157350   5.458   4.782   3.280 -0.5894 -1.6172  0.5141
11953TIP3    H257351   5.344   4.882   3.272  0.3786 -0.6177 -0.9846
11954TIP3   OH257352   6.032   0.066  13.304 -0.9544  0.4147 -0.3218
11954TIP3    H157353   6.092  -0.003  13.331 -0.7305  0.1673 -1.4060
11954TIP3    H257354   5.954   0.054  13.358 -0.5056 -0.0374  0.2228
11955TIP3   OH257355   1.570   5.576  11.830  0.1474  0.3126  0.5074
11955TIP3    H157356   1.556   5.505  11.893 -1.4706  0.7042  0.6160
11955TIP3    H257357   1.601   5.531  11.751 -1.6685 -0.6388  0.3048
11956TIP3   OH257358   1.448   0.652  14.780 -0.4446 -0.4105 -0.1867
11956TIP3    H157359   1.425   0.733  14.825 -0.5636 -0.5358 -0.0231
11956TIP3    H257360   1.525   0.675  14.727 -1.7489  0.3794 -1.8131
11957TIP3   OH257361   3.024   5.407  12.777  0.1326  0.0045 -0.1161
11957TIP3    H157362   3.118   5.392  12.791  0.4199  1.4399 -0.4092
11957TIP3    H257363   3.010   5.382  12.685  0.0422 -1.0224  0.1686
11958TIP3   OH257364   3.239   2.897  11.133 -0.1713  0.1780  0.1978
11958TIP3    H157365   3.181   2.821  11.125  0.5291 -0.3492  0.0734
11958TIP3    H257366   3.276   2.908  11.046 -0.5975  0.9320  0.1102
11959TIP3   OH257367   0.503   4.941   0.383  0.0937  0.1745 -0.1628
11959TIP3    H157368   0.415   4.921   0.350  0.6849 -0.9482 -1.1256
11959TIP3    H257369   0.556   4.955   0.304  0.7509  0.9880  0.4107
11960TIP3   OH257370   6.474   3.809   5.050  0.2445  0.5896  0.7456
11960TIP3    H157371   6.426   3.879   5.095  1.8080  2.4539 -0.3982
11960TIP3    H257372   6.430   3.800   4.965  0.2816  0.4445  0.7411
11961TIP3   OH257373   0.794   5.364   2.451 -0.2305 -0.0431  0.4786
11961TIP3    H157374   0.867   5.318   2.409  0.2788  0.7507  0.4861
11961TIP3    H257375   0.723   5.300   2.451  0.2585 -0.6015 -0.1326
11962TIP3   OH257376   0.143   0.256  11.581 -0.3890  0.1555  0.2399
11962TIP3    H157377   0.133   0.260  11.676 -1.3499  0.3660  0.1407
11962TIP3    H257378   0.158   0.347  11.554 -0.3084  0.1231  0.1759
11963TIP3   OH257379   3.408   4.624  12.822  0.7311  0.2396 -0.1234
11963TIP3    H157380   3.418   4.577  12.739  0.2667  0.7116 -0.4551
11963TIP3    H257381   3.425   4.715  12.799 -0.3767  0.5112  0.0881
11964TIP3   OH257382   3.947   2.485  11.305  0.1436 -0.3231 -0.0401
11964TIP3    H157383   3.934   2.477  11.400 -0.5938  0.7432 -0.0500
11964TIP3    H257384   3.926   2.576  11.285  1.0116 -0.3500 -1.1267
11965TIP3   OH257385   6.226   0.787  16.147  0.7319 -0.5988 -0.5319
11965TIP3    H157386   6.290   0.858  16.157  0.6111 -0.5812  0.1914
11965TIP3    H257387   6.199   0.767  16.237  0.0271 -0.8847 -0.8048
11966TIP3   OH257388   2.470   2.145   2.951  0.6647 -0.2346 -0.0304
11966TIP3    H157389   2.533   2.136   3.023  1.2626  2.0253 -0.2341
11966TIP3    H257390   2.517   2.111   2.875  0.1425 -2.3445  0.5636
11967TIP3   OH257391   1.830   2.274   3.772 -0.1819 -0.4923 -0.1808
11967TIP3    H157392   1.748   2.275   3.822  0.6692 -1.4451  1.2592
11967TIP3    H257393   1.870   2.190   3.792  1.9942  0.6667  0.5041
11968TIP3   OH257394   5.320   6.078   3.054  0.0142 -0.1137 -0.2326
11968TIP3    H157395   5.297   6.060   3.145  0.2262 -1.3744 -0.4277
11968TIP3    H257396   5.323   6.174   3.049 -0.2106 -0.0335  1.0305
11969TIP3   OH257397   6.135   0.484   0.426 -0.2856 -0.4385 -0.0226
11969TIP3    H157398   6.215   0.458   0.473 -0.1378  0.8999  0.4894
11969TIP3    H257399   6.066   0.480   0.493 -0.4055 -0.2947 -0.1377
11970TIP3   OH257400   0.447   4.756   0.090 -0.1635 -0.1759  0.5540
11970TIP3    H157401   0.417   4.668   0.114 -0.4302 -0.2015  0.1195
11970TIP3    H257402   0.374   4.813   0.113  0.7049  0.1690  2.5702
11971TIP3   OH257403   0.084   4.041   2.585 -0.5154  0.0781 -0.1145
11971TIP3    H157404   0.153   4.031   2.650  3.8725  0.8129 -4.3027
11971TIP3    H257405   0.080   4.135   2.568 -0.0224 -0.2693 -2.3458
11972TIP3   OH257406   1.930   3.531  12.375  0.1433  0.0584 -0.0742
11972TIP3    H157407   2.012   3.580  12.368  0.8045 -1.3385 -2.7637
11972TIP3    H257408   1.908   3.533  12.469  1.6689  2.9554  0.2656
11973TIP3   OH257409   1.924   6.609   2.694  0.6224  0.1034  0.5270
11973TIP3    H157410   1.989   6.643   2.756  2.0428 -0.1166 -0.7952
11973TIP3    H257411   1.931   6.666   2.618  1.0976 -1.4569 -0.6368
11974TIP3   OH257412   3.057   4.476  16.048  0.0530 -0.0929 -0.0131
11974TIP3    H157413   2.969   4.468  16.013  0.2370 -1.7916 -0.1433
11974TIP3    H257414   3.080   4.387  16.075  1.4825  0.4467  0.5977
11975TIP3   OH257415   2.203   1.013  13.425 -0.4786 -0.0105 -0.4094
11975TIP3    H157416   2.147   1.089  13.408  0.8992  1.1626  0.1971
11975TIP3    H257417   2.270   1.016  13.357  0.8512  0.5802  0.9095
11976TIP3   OH257418   4.742   2.215  13.095 -0.1582 -0.4418  0.2683
11976TIP3    H157419   4.755   2.309  13.107 -1.8261 -0.1983  0.2464
11976TIP3    H257420   4.730   2.180  13.183  0.4185 -0.6386  0.2736
11977TIP3   OH257421   6.231   0.593   5.749 -0.6395 -0.4176 -0.3276
11977TIP3    H157422   6.248   0.668   5.692 -0.1949  0.1493  0.5404
11977TIP3    H257423   6.266   0.619   5.834 -0.1547 -1.7453 -0.1000
11978TIP3   OH257424   2.862   1.212   7.030 -0.3292 -0.2183 -0.3737
11978TIP3    H157425   2.813   1.130   7.037 -0.8289  0.2752  2.6003
11978TIP3    H257426   2.951   1.188   7.057 -1.0276  0.6353  2.9428
11979TIP3   OH257427   0.472   4.021  14.897 -0.2301 -0.2205  0.1472
11979TIP3    H157428   0.503   3.946  14.846  0.0401 -0.5639  0.8121
11979TIP3    H257429   0.386   4.040  14.861 -1.0892 -2.0248  1.2143
11980TIP3   OH257430   5.402   4.753  16.004 -0.3379  0.0851 -0.1162
11980TIP3    H157431   5.377   4.817  15.937 -0.3695 -0.5954 -0.7579
11980TIP3    H257432   5.495   4.738  15.990 -0.6822 -1.2363 -1.0169
11981TIP3   OH257433   5.227   4.765  14.472 -0.5223 -0.3148  0.8737
11981TIP3    H157434   5.239   4.838  14.532 -0.2346  0.1274  0.2839
11981TIP3    H257435   5.317   4.737  14.451 -0.5969  0.1338 -0.0750
11982TIP3   OH257436   5.559   6.131  12.412 -0.5064  0.4745  0.2025
11982TIP3    H157437   5.583   6.223  12.403 -2.2183  1.0146  1.0546
11982TIP3    H257438   5.470   6.125  12.376 -1.8599 -0.1023  3.4857
11983TIP3   OH257439   6.327   3.227   0.252  0.0025 -0.0544  0.1439
11983TIP3    H157440   6.249   3.179   0.226  0.9564 -1.6565  0.2002
11983TIP3    H257441   6.313   3.316   0.218 -2.1169 -0.1434  0.7082
11984TIP3   OH257442   6.797   5.557  17.178 -0.0454  0.2152  0.0371
11984TIP3    H157443   6.833   5.643  17.199 -1.3276  0.6282  0.5790
11984TIP3    H257444   6.790   5.557  17.082 -1.2656  1.2323  0.1106
11985TIP3   OH257445   2.592   3.082  11.101  0.3443  0.0469 -0.1277
11985TIP3    H157446   2.672   3.050  11.057  0.5887  0.3734  0.0808
11985TIP3    H257447   2.534   3.106  11.029  0.7038  0.4735 -0.2792
11986TIP3   OH257448   0.906   3.795   2.115 -0.2314  0.1976  0.4699
11986TIP3    H157449   0.922   3.703   2.133  1.7030  0.2985 -0.5740
11986TIP3    H257450   0.941   3.841   2.192 -1.4231  0.0594  1.1033
11987TIP3   OH257451   6.188   4.141   3.408  0.1135  0.2833  0.3764
11987TIP3    H157452   6.142   4.057   3.415  1.4263 -0.7744 -2.7275
11987TIP3    H257453   6.202   4.168   3.498 -3.6476 -0.9774  1.4083
11988TIP3   OH257454   0.952   5.841   1.354 -0.5176  0.3008  0.0089
11988TIP3    H157455   0.957   5.790   1.436  1.8163 -0.6626 -0.6619
11988TIP3    H257456   0.909   5.922   1.379 -1.1352 -0.5575  1.8953
11989TIP3   OH257457   4.238   0.912  16.275  0.3641 -0.1449  0.2528
11989TIP3    H157458   4.302   0.857  16.231  0.4796  0.3312 -0.1736
11989TIP3    H257459   4.198   0.854  16.341 -0.2080 -1.0148 -0.8369
11990TIP3   OH257460   5.251   5.693   1.423  0.3459  0.1962  0.1929
11990TIP3    H157461   5.160   5.686   1.396  0.3813 -0.4340  0.2331
11990TIP3    H257462   5.248   5.716   1.516  0.2311 -0.6897  0.4072
11991TIP3   OH257463   0.566   5.906   3.387 -0.8123  0.2550 -0.2872
11991TIP3    H157464   0.640   5.879   3.441 -0.5388 -0.5988 -1.0919
11991TIP3    H257465   0.511   5.828   3.381 -2.8381  1.4203  2.0029
11992TIP3   OH257466   0.357   2.116   5.800 -0.4785 -0.0005 -0.1343
11992TIP3    H157467   0.294   2.131   5.870 -0.4377 -2.1288  0.3709
11992TIP3    H257468   0.313   2.058   5.739  0.0397  0.6206 -1.1130
11993TIP3   OH257469   4.374   5.278  14.429 -0.9414 -0.1309  0.2022
11993TIP3    H157470   4.353   5.219  14.357  1.3196 -1.1730  0.3432
11993TIP3    H257471   4.374   5.222  14.507 -2.1127  0.7305  0.8350
11994TIP3   OH257472   1.637   6.228   6.200  0.2062  0.2838 -0.0449
11994TIP3    H157473   1.625   6.198   6.290 -3.2015  0.7382 -0.2851
11994TIP3    H257474   1.656   6.322   6.208  0.9095  0.1209  0.2273
11995TIP3   OH257475   0.539   1.401   1.311  0.3292 -0.2663 -0.4845
11995TIP3    H157476   0.452   1.417   1.346  0.0333 -0.8602 -0.9658
11995TIP3    H257477   0.547   1.463   1.238  0.9260  0.9333  0.5716
11996TIP3   OH257478   0.086   0.109  15.562  0.6120 -0.4714  0.1165
11996TIP3    H157479   0.111   0.147  15.646  1.2824 -0.2677 -0.1677
11996TIP3    H257480  -0.000   0.146  15.544  0.6071 -0.2563  0.5596
11997TIP3   OH257481   3.125   3.582   2.108 -0.1322 -0.0449  0.1135
11997TIP3    H157482   3.045   3.552   2.064  0.4051 -2.4142  0.7179
11997TIP3    H257483   3.193   3.523   2.078  0.8948  0.3610  1.5846
11998TIP3   OH257484   6.317   1.971  16.129  0.1812  0.1426 -0.3234
11998TIP3    H157485   6.364   1.902  16.082 -1.3307 -0.3584 -1.1041
11998TIP3    H257486   6.226   1.942  16.132  0.3618 -0.2400  3.6690
11999TIP3   OH257487   1.595   5.320   6.404 -0.0026 -0.0735  0.4509
11999TIP3    H157488   1.589   5.262   6.328  0.3766 -0.7039  0.8968
11999TIP3    H257489   1.506   5.321   6.439 -0.0094 -0.3975  0.4472
12000TIP3   OH257490   5.661   4.067  16.042  0.2435  0.1501  0.2326
12000TIP3    H157491   5.648   4.117  16.122 -0.3595 -1.3649  1.0906
12000TIP3    H257492   5.588   4.005  16.040  0.9627 -0.6811 -0.8216
12001TIP3   OH257493   0.503   3.744  16.773  0.1643 -0.1086  0.0060
12001TIP3    H157494   0.569   3.813  16.767  0.3689 -0.2037  1.0672
12001TIP3    H257495   0.531   3.678  16.709  1.3022 -0.3212  0.7111
12002TIP3   OH257496   5.352   0.690  15.429 -0.7578  0.0842 -0.0450
12002TIP3    H157497   5.411   0.765  15.416 -0.1490 -0.7520 -2.5062
12002TIP3    H257498   5.265   0.728  15.425 -0.4692  0.6154 -1.9934
12003TIP3   OH257499   2.146   3.306  12.640 -0.2731  0.0521 -0.2129
12003TIP3    H157500   2.115   3.224  12.600  0.0323 -0.3090  0.2849
12003TIP3    H257501   2.081   3.325  12.707  0.0063 -0.1297  0.1077
12004TIP3   OH257502   6.447   1.500  12.591 -0.3877 -0.4342  0.2299
12004TIP3    H157503   6.536   1.491  12.625 -0.5537 -0.6064  0.6214
12004TIP3    H257504   6.401   1.423  12.625 -0.6203 -0.4771 -0.1801
12005TIP3   OH257505   1.334   6.234  11.750 -0.3883  0.1125  0.0534
12005TIP3    H157506   1.333   6.284  11.832  2.9666  0.1914  0.1226
12005TIP3    H257507   1.317   6.144  11.777 -1.4939  0.4552  0.5412
12006TIP3   OH257508   0.406   4.287  15.928  0.0401  0.6138  0.4722
12006TIP3    H157509   0.335   4.344  15.958  0.6830  1.2484  0.8100
12006TIP3    H257510   0.366   4.234  15.859  0.2159  3.6838 -2.1152
12007TIP3   OH257511   6.128   2.967  11.766  0.3697 -0.4690 -1.2951
12007TIP3    H157512   6.076   2.947  11.688 -1.8661  0.0463  0.0368
12007TIP3    H257513   6.109   3.059  11.784 -0.7578 -1.1294  1.0433
12008TIP3   OH257514   1.380   5.314   1.609  0.3547  0.2452  0.1476
12008TIP3    H157515   1.337   5.398   1.596  0.3677  0.1486 -0.5704
12008TIP3    H257516   1.316   5.249   1.579  0.3019 -0.0068  0.7993
12009TIP3   OH257517   2.625   3.146   2.328  0.5352 -0.3976  0.3627
12009TIP3    H157518   2.616   3.053   2.308  2.0412  0.0043 -2.4000
12009TIP3    H257519   2.705   3.151   2.380  1.0900 -0.5418 -0.4609
12010TIP3   OH257520   4.371   1.918   0.405 -0.3449  0.8262 -0.2662
12010TIP3    H157521   4.420   1.984   0.355 -0.9629  1.0223 -0.6156
12010TIP3    H257522   4.280   1.934   0.382 -0.4003 -1.0563 -1.4543
12011TIP3   OH257523   1.117   2.435   2.191  0.6872  0.0725 -0.4297
12011TIP3    H157524   1.113   2.446   2.096 -0.2393  0.0437 -0.4004
12011TIP3    H257525   1.156   2.349   2.204 -0.1893 -0.3819 -0.8053
12012TIP3   OH257526   4.369   0.014   0.429 -0.6656  0.1649 -0.4305
12012TIP3    H157527   4.401   0.058   0.351  0.5711 -0.3187 -0.2137
12012TIP3    H257528   4.279  -0.011   0.408 -0.4602  0.3659 -1.5533
12013TIP3   OH257529   3.550   3.502   3.953 -0.4011  0.6844 -0.0041
12013TIP3    H157530   3.577   3.434   4.014  1.1455  1.3714  0.0901
12013TIP3    H257531   3.535   3.579   4.008 -2.1908  0.4195 -0.1017
12014TIP3   OH257532   1.247   5.755   5.199  0.0794 -0.1697 -0.2475
12014TIP3    H157533   1.185   5.772   5.269 -0.2950  0.2163 -0.6742
12014TIP3    H257534   1.255   5.659   5.196 -0.2141 -0.2007  0.0457
12015TIP3   OH257535   2.535   5.072  13.858  0.0725 -0.0010  0.0918
12015TIP3    H157536   2.462   5.093  13.916  0.4988 -0.7679  0.9239
12015TIP3    H257537   2.609   5.122  13.892  0.9660 -2.3523  1.7836
12016TIP3   OH257538   6.297   0.944  15.613  0.5631  0.2226  0.3559
12016TIP3    H157539   6.310   0.869  15.555  2.5347  0.8188 -0.0027
12016TIP3    H257540   6.297   0.906  15.701 -1.7821 -0.5961  0.0490
12017TIP3   OH257541   0.517   4.821  13.025  0.2518 -0.3816 -0.0785
12017TIP3    H157542   0.522   4.786  12.937  3.3961  0.1366 -0.1726
12017TIP3    H257543   0.504   4.745  13.081  2.3108 -1.2337 -0.6835
12018TIP3   OH257544   5.190   0.458   1.248 -0.5036  0.4264 -0.1907
12018TIP3    H157545   5.140   0.539   1.237  0.0343  0.3870 -3.3709
12018TIP3    H257546   5.278   0.487   1.274 -1.3535  0.6066  2.7237
12019TIP3   OH257547   0.742   2.692   5.601  0.0145  0.6949  0.0704
12019TIP3    H157548   0.653   2.692   5.636 -0.1261  0.4206 -0.2960
12019TIP3    H257549   0.737   2.643   5.519  1.2200 -2.5247  1.8326
12020TIP3   OH257550   1.912   5.554  13.405  0.6737 -0.3460  0.5717
12020TIP3    H157551   1.966   5.597  13.472  0.1126  3.8601 -1.4594
12020TIP3    H257552   1.827   5.541  13.448  0.5407  1.6549  1.0049
12021TIP3   OH257553   2.536   0.677  16.793 -0.4737  0.0849 -0.8365
12021TIP3    H157554   2.626   0.666  16.824 -0.7850  1.3204  0.5490
12021TIP3    H257555   2.509   0.762  16.827 -2.2875 -0.4300 -0.9518
12022TIP3   OH257556   3.397   1.890   0.066  0.2512 -0.0091 -0.2564
12022TIP3    H157557   3.409   1.916   0.157 -0.6767 -0.3008 -0.0497
12022TIP3    H257558   3.327   1.947   0.034  0.9256  0.4519 -0.9442
12023TIP3   OH257559   0.266   6.413  11.898 -0.0780  0.1497  0.4132
12023TIP3    H157560   0.299   6.331  11.935 -2.5736 -1.4425 -0.7061
12023TIP3    H257561   0.307   6.418  11.812 -1.3613 -0.9710 -0.2991
12024TIP3   OH257562   3.101   3.562   1.477 -0.2044  0.6632 -0.0352
12024TIP3    H157563   3.178   3.507   1.486 -1.0017 -0.7428 -1.6329
12024TIP3    H257564   3.051   3.547   1.557 -0.2087 -0.6104 -0.2755
12025TIP3   OH257565   3.757   2.828   0.667  0.2095 -0.1876  0.5810
12025TIP3    H157566   3.818   2.898   0.645  0.6140 -0.2848  1.3948
12025TIP3    H257567   3.805   2.771   0.726 -0.7068 -0.1946  1.3307
12026TIP3   OH257568   4.354   6.376   4.323  0.2343  0.1848  0.1308
12026TIP3    H157569   4.398   6.317   4.385 -0.9420 -0.6600  0.1718
12026TIP3    H257570   4.391   6.352   4.238  1.7269  1.2288  0.4684
12027TIP3   OH257571   2.203   6.518   5.867  0.0499 -0.0582 -0.3206
12027TIP3    H157572   2.118   6.512   5.910  0.3727 -1.0377  0.1978
12027TIP3    H257573   2.266   6.491   5.934  0.7349  0.3373 -0.8019
12028TIP3   OH257574   5.011   0.801   0.983 -0.4322  0.2068  0.1599
12028TIP3    H157575   5.024   0.895   0.992 -1.0012  0.2407  0.7225
12028TIP3    H257576   5.043   0.780   0.896 -0.3171  0.9236  0.0262
12029TIP3   OH257577   5.923   1.003  10.696 -0.4144  0.3221 -0.1132
12029TIP3    H157578   5.862   0.981  10.625  0.9743  0.4063 -1.3542
12029TIP3    H257579   6.004   0.957  10.672  0.3966  1.2528  0.8480
12030TIP3   OH257580   5.406   5.388  11.798 -0.3353  0.2175  0.0901
12030TIP3    H157581   5.395   5.369  11.892  2.3886  1.9559  0.7900
12030TIP3    H257582   5.499   5.375  11.782 -0.6194  0.8905 -2.1897
12031TIP3   OH257583   6.417   0.858   4.150  0.2249  0.0173 -0.6293
12031TIP3    H157584   6.440   0.841   4.059  3.1385 -0.3296  0.1194
12031TIP3    H257585   6.323   0.878   4.148  0.1902 -0.2405 -3.6442
12032TIP3   OH257586   2.276   2.794   2.259  0.4105  0.5463 -0.2588
12032TIP3    H157587   2.268   2.854   2.185 -0.9828 -0.2738 -0.7901
12032TIP3    H257588   2.191   2.798   2.302  1.0969  0.7490  1.1093
12033TIP3   OH257589   4.916   1.521  17.135  0.1197  0.3526 -0.5229
12033TIP3    H157590   4.988   1.537  17.195  0.5194  0.0279 -0.9122
12033TIP3    H257591   4.939   1.438  17.092  0.2549  1.0047 -1.7325
12034TIP3   OH257592   2.623   3.342  16.530 -0.0501 -0.3324 -0.6009
12034TIP3    H157593   2.714   3.341  16.560 -0.4210 -2.3071  0.5472
12034TIP3    H257594   2.629   3.334  16.435  1.0206  2.0837 -0.7728
12035TIP3   OH257595   5.611   1.524   2.731  0.2330  0.2156 -0.2862
12035TIP3    H157596   5.565   1.568   2.802  0.4983 -0.9306  0.6079
12035TIP3    H257597   5.545   1.513   2.663 -0.5236 -0.4182  0.5472
12036TIP3   OH257598   5.098   2.719  14.908 -0.4555 -0.2687 -0.1633
12036TIP3    H157599   5.069   2.773  14.981 -0.0297 -0.0211 -0.1786
12036TIP3    H257600   5.148   2.648  14.949  0.4202  0.2844 -0.2673
12037TIP3   OH257601   0.849   5.146   4.499  0.4117  0.5472  0.4394
12037TIP3    H157602   0.785   5.154   4.429  1.1044  1.4776 -0.1087
12037TIP3    H257603   0.841   5.227   4.549 -0.2335 -0.2114  1.5749
12038TIP3   OH257604   1.983   4.016   4.249  0.4063  1.3750  0.3935
12038TIP3    H157605   2.007   4.019   4.156  0.4470  1.3124  0.4013
12038TIP3    H257606   1.956   3.925   4.264  2.1959  0.9019  0.8825
12039TIP3   OH257607   5.362   4.460  11.105  0.1878  0.2573 -0.4092
12039TIP3    H157608   5.319   4.422  11.029 -0.8694 -1.1365  0.8582
12039TIP3    H257609   5.455   4.456  11.084 -0.1444  1.2032 -2.2084
12040TIP3   OH257610   2.007   5.096  14.158  0.0190  0.0676 -0.1958
12040TIP3    H157611   1.936   5.034  14.138 -0.7374  0.7941  0.1882
12040TIP3    H257612   1.988   5.172  14.104 -0.3466  0.8580  1.0200
12041TIP3   OH257613   5.965   1.219  15.622 -0.1726  0.4053  0.4104
12041TIP3    H157614   5.875   1.206  15.652 -0.3479  0.1476 -0.2183
12041TIP3    H257615   5.958   1.218  15.526  0.5456  0.0230  0.3611
12042TIP3   OH257616   2.343   5.194  14.043 -0.0726  0.0825  0.1128
12042TIP3    H157617   2.319   5.175  14.133 -0.9840  2.3357  0.3861
12042TIP3    H257618   2.266   5.237  14.005  1.4478  2.2706 -0.6799
12043TIP3   OH257619   0.869   1.384   2.818  0.3525 -0.6762 -0.1891
12043TIP3    H157620   0.873   1.375   2.723  0.6168  0.2710 -0.2675
12043TIP3    H257621   0.830   1.301   2.848 -0.3241 -0.7171 -1.1593
12044TIP3   OH257622   4.222   2.243   0.306  0.4094  0.1190 -0.8451
12044TIP3    H157623   4.145   2.288   0.270  0.1425  1.9823  1.8970
12044TIP3    H257624   4.290   2.311   0.309  0.6800 -0.2003  1.2309
12045TIP3   OH257625   3.946   2.174   1.532  0.4344  0.3280 -0.1165
12045TIP3    H157626   3.888   2.225   1.475  0.1217  0.0257 -0.0693
12045TIP3    H257627   3.901   2.172   1.617  0.1144 -0.5952 -0.2977
12046TIP3   OH257628   6.683   4.475   0.625 -0.2864 -0.3728 -0.5194
12046TIP3    H157629   6.766   4.504   0.663 -0.4183 -0.3316 -0.2633
12046TIP3    H257630   6.634   4.438   0.698 -0.6206 -0.1145 -0.6082
12047TIP3   OH257631   1.498   2.136  14.267 -0.2653 -0.5896  0.0381
12047TIP3    H157632   1.571   2.197  14.256 -0.2352 -0.4936  0.7344
12047TIP3    H257633   1.516   2.066  14.205 -0.6829  0.4646 -1.3153
12048TIP3   OH257634   5.790   0.524   3.540  0.2223 -0.4995 -0.2137
12048TIP3    H157635   5.762   0.518   3.631  0.1711  1.0761 -0.1107
12048TIP3    H257636   5.874   0.568   3.543 -0.0363  0.0592 -0.9615
12049TIP3   OH257637   2.558   5.276   0.306  0.2940  0.3011  0.4563
12049TIP3    H157638   2.497   5.342   0.339  0.5737  1.0873 -0.5746
12049TIP3    H257639   2.631   5.327   0.270  0.7482 -0.5879  0.1217
12050TIP3   OH257640   6.349   1.644  15.587 -0.5249  0.1178 -0.0904
12050TIP3    H157641   6.356   1.587  15.664 -2.2688 -0.8918 -0.6548
12050TIP3    H257642   6.430   1.695  15.588  0.5822 -1.5944  1.0407
12051TIP3   OH257643   2.277   0.514   4.519 -0.7312 -0.3842  0.1113
12051TIP3    H157644   2.337   0.578   4.559 -0.3887 -0.2880 -0.5470
12051TIP3    H257645   2.206   0.505   4.583  0.2734 -0.9318  1.1705
12052TIP3   OH257646   3.663   4.140   2.277 -0.2922  0.2503 -0.3488
12052TIP3    H157647   3.654   4.194   2.199  0.7321  0.0316 -0.6293
12052TIP3    H257648   3.700   4.057   2.245  1.2800  0.6005  0.5122
12053TIP3   OH257649   4.219   0.071   0.006  0.2337 -0.3384 -0.3229
12053TIP3    H157650   4.161   0.142   0.030  0.0758 -0.9364  1.1243
12053TIP3    H257651   4.163  -0.007   0.004  1.3400 -1.2852  3.1662
12054TIP3   OH257652   2.052   4.000  11.737 -0.0298 -0.0692  0.3512
12054TIP3    H157653   2.123   3.997  11.673 -1.0493 -0.9587 -0.7887
12054TIP3    H257654   2.094   3.983  11.821  1.3063  0.9134 -0.1012
12055TIP3   OH257655   4.679   5.200   6.664 -0.5494  0.3757 -0.0267
12055TIP3    H157656   4.766   5.168   6.641 -0.0908  1.8748 -0.4536
12055TIP3    H257657   4.688   5.234   6.753 -0.9083 -0.1853  0.2308
12056TIP3   OH257658   4.336   4.278  15.740 -0.5293 -0.0233  0.0308
12056TIP3    H157659   4.299   4.226  15.669  1.2077 -0.0688 -0.8785
12056TIP3    H257660   4.326   4.224  15.818 -2.5633  0.0732 -0.1456
12057TIP3   OH257661   4.453   2.438  15.516  0.2475 -0.1414 -0.2343
12057TIP3    H157662   4.388   2.471  15.578  0.6188 -0.1633  0.1627
12057TIP3    H257663   4.425   2.348  15.497  1.1626 -0.7634  1.3026
12058TIP3   OH257664   1.849   5.088  16.403 -0.3672  0.3092 -0.3460
12058TIP3    H157665   1.811   5.093  16.315 -0.7698  2.0929 -0.0976
12058TIP3    H257666   1.775   5.104  16.461 -0.2414 -1.5885  0.3612
12059TIP3   OH257667   0.887   6.485   1.422 -0.5363 -0.2725  0.0103
12059TIP3    H157668   0.980   6.507   1.412 -0.7518  2.0422  2.4796
12059TIP3    H257669   0.841   6.558   1.381 -1.3178 -1.9750 -2.2410
12060TIP3   OH257670   3.448   2.244  10.899  0.4001  0.9288  0.3543
12060TIP3    H157671   3.406   2.227  10.983 -0.1303 -2.4606 -0.5440
12060TIP3    H257672   3.541   2.257  10.921  0.2772 -0.0001  1.4547
12061TIP3   OH257673   5.566   0.948   2.284  0.3579  0.5997 -0.3088
12061TIP3    H157674   5.474   0.966   2.267  0.2867 -1.3184 -2.1385
12061TIP3    H257675   5.613   1.017   2.238 -0.1316  0.8699 -0.4084
12062TIP3   OH257676   0.211   0.132  13.626  0.0714  0.1506 -0.3320
12062TIP3    H157677   0.229   0.211  13.576  1.1359 -1.2898 -2.2575
12062TIP3    H257678   0.287   0.076  13.613 -0.9485 -1.4745  0.4887
12063TIP3   OH257679   1.287   4.792   3.530  0.0179 -0.6607 -0.6688
12063TIP3    H157680   1.357   4.751   3.580 -0.8446 -0.4581  0.7001
12063TIP3    H257681   1.322   4.878   3.507  0.1529 -0.4880  0.1711
12064TIP3   OH257682   5.854   3.292  16.004  0.5892  0.1307 -0.1032
12064TIP3    H157683   5.884   3.369  15.955  1.1875 -0.6304 -0.9474
12064TIP3    H257684   5.803   3.241  15.941  1.3725 -0.8576  0.0463
12065TIP3   OH257685   0.011   3.559   0.109  0.0358  0.6236  0.5250
12065TIP3    H157686   0.090   3.550   0.056  0.2765  0.4744  0.9131
12065TIP3    H257687  -0.058   3.520   0.055  0.4969 -0.6293  0.8249
12066TIP3   OH257688   0.730   1.011  13.674 -0.2994  0.1289 -0.1998
12066TIP3    H157689   0.803   0.968  13.718 -1.6543 -1.2180  0.8043
12066TIP3    H257690   0.739   0.985  13.582 -1.4651 -2.9411  0.4934
12067TIP3   OH257691   1.096   5.338  15.575  0.0245  0.0748  0.2345
12067TIP3    H157692   1.145   5.291  15.642  0.4162 -1.0660 -0.8280
12067TIP3    H257693   1.161   5.354  15.506 -0.5288  0.6773 -0.1448
12068TIP3   OH257694   4.520   2.014  17.227 -0.7983 -0.1997 -0.2064
12068TIP3    H157695   4.464   1.988  17.301 -1.0393  0.0148 -0.3117
12068TIP3    H257696   4.570   1.935  17.206 -1.5804 -0.6079 -0.5726
12069TIP3   OH257697   4.023   5.265   5.012 -0.5121  0.6076 -0.3494
12069TIP3    H157698   3.975   5.268   4.929 -1.0126 -0.1353 -0.0913
12069TIP3    H257699   4.063   5.178   5.013  0.9539  1.2723 -0.6220
12070TIP3   OH257700   0.055   3.969  16.065  0.3789 -0.1503 -0.7834
12070TIP3    H157701  -0.024   3.947  16.114  0.3709 -0.7368 -1.0529
12070TIP3    H257702   0.071   4.061  16.085 -0.7107  0.1397 -1.1930
12071TIP3   OH257703   2.527   1.021   2.455 -0.0786 -0.1430  0.0089
12071TIP3    H157704   2.490   1.046   2.371  0.4888 -0.6743 -0.4049
12071TIP3    H257705   2.511   1.097   2.512 -1.2370 -0.1249 -0.3262
12072TIP3   OH257706   0.282   0.772   2.646  1.0186  0.0663  0.1709
12072TIP3    H157707   0.193   0.799   2.624  1.1460 -0.0148 -0.4498
12072TIP3    H257708   0.337   0.845   2.615  1.2683 -0.4049 -0.5142
12073TIP3   OH257709   5.909   6.413  12.910 -0.1243 -0.1202  0.8182
12073TIP3    H157710   5.836   6.441  12.854  0.5145 -1.1878 -0.5758
12073TIP3    H257711   5.868   6.359  12.978 -0.6185 -0.8539 -0.0546
12074TIP3   OH257712   4.587   4.888  11.399 -0.1254 -0.7327 -0.5982
12074TIP3    H157713   4.541   4.934  11.469  1.5993  2.2320 -1.3289
12074TIP3    H257714   4.666   4.853  11.441  0.3947  0.1593 -0.8225
12075TIP3   OH257715   3.890   4.640   6.056 -0.2269  0.2208  0.0052
12075TIP3    H157716   3.818   4.594   6.012  0.9335 -0.3309 -1.4006
12075TIP3    H257717   3.849   4.685   6.130 -1.4750 -2.8378  1.2705
12076TIP3   OH257718   5.981   6.760   4.693  0.4583 -0.2361  0.0553
12076TIP3    H157719   6.065   6.787   4.728  0.0128 -0.8737  1.6881
12076TIP3    H257720   5.973   6.668   4.718 -1.1849  0.1051  0.9004
12077TIP3   OH257721   5.806   5.091  16.908  0.3469  0.7844 -0.2732
12077TIP3    H157722   5.799   5.029  16.836  1.4249  1.3275 -0.8710
12077TIP3    H257723   5.793   5.039  16.987  0.2993 -0.0217 -0.8115
12078TIP3   OH257724   6.784   0.457   3.537 -0.3439 -0.7196 -0.0292
12078TIP3    H157725   6.702   0.474   3.490 -1.1706  0.7759  1.8532
12078TIP3    H257726   6.842   0.529   3.511 -0.8896  0.2547  1.3750
12079TIP3   OH257727   4.480   6.648   3.668  0.9179 -0.0573 -0.0603
12079TIP3    H157728   4.524   6.728   3.698  0.4120  0.7425 -1.3930
12079TIP3    H257729   4.538   6.577   3.696  1.6463  0.8049  0.6597
12080TIP3   OH257730   6.146   3.693  10.656  0.0052  0.0996 -0.1408
12080TIP3    H157731   6.131   3.710  10.749 -1.5659  1.5730 -0.6344
12080TIP3    H257732   6.241   3.686  10.648  0.1520 -0.1242  1.5865
12081TIP3   OH257733   4.513   0.353  15.828 -0.1808 -0.1225  0.2090
12081TIP3    H157734   4.579   0.353  15.759 -1.7539  1.6352 -1.3517
12081TIP3    H257735   4.450   0.286  15.802 -2.0810  2.2120 -1.4273
12082TIP3   OH257736   4.832   2.738  14.815 -0.1030  0.7616  0.2871
12082TIP3    H157737   4.920   2.736  14.853 -0.7200 -0.7042  1.6676
12082TIP3    H257738   4.777   2.775  14.884 -0.7624  0.6993 -0.2062
12083TIP3   OH257739   0.094   3.082   3.201 -0.0744  0.3381  0.6608
12083TIP3    H157740   0.041   3.157   3.226  0.0649  0.2563  1.2163
12083TIP3    H257741   0.057   3.052   3.118 -0.6489  0.5184  0.8543
12084TIP3   OH257742   1.142   5.962   2.576 -0.2156  0.1047 -0.4117
12084TIP3    H157743   1.188   6.044   2.593  0.7782 -0.4401 -0.4598
12084TIP3    H257744   1.199   5.894   2.612 -1.8033 -0.4595  1.1370
12085TIP3   OH257745   0.672   5.971  13.000 -0.2220  0.3595  0.2307
12085TIP3    H157746   0.648   5.932  12.916  0.6474  1.4726 -0.5583
12085TIP3    H257747   0.756   6.013  12.982  0.0506  0.4512  1.7175
12086TIP3   OH257748   3.041   4.723   2.107  0.3918  0.3774  0.6924
12086TIP3    H157749   3.095   4.652   2.072  3.0579  0.6448  3.9070
12086TIP3    H257750   2.970   4.733   2.045  1.0096 -3.8333 -0.8319
12087TIP3   OH257751   2.127   1.934   3.537 -0.2392 -0.4431 -0.4571
12087TIP3    H157752   2.034   1.957   3.541 -0.5223 -1.5766 -0.5609
12087TIP3    H257753   2.143   1.882   3.616  0.6985  1.1438  0.4313
12088TIP3   OH257754   5.836   1.960   1.823  0.1433  0.4106 -1.0260
12088TIP3    H157755   5.869   1.877   1.859 -0.4454  0.1280 -1.1296
12088TIP3    H257756   5.816   2.013   1.900 -2.6111 -0.7756 -0.8517
12089TIP3   OH257757   5.432   5.721  15.859  0.3886 -0.2983 -0.2594
12089TIP3    H157758   5.474   5.807  15.857  0.3630 -0.0968  4.1497
12089TIP3    H257759   5.492   5.664  15.810  1.3743  1.7766 -1.5205
12090TIP3   OH257760   6.102   5.867   1.566 -0.3428  0.2087 -0.1212
12090TIP3    H157761   6.008   5.868   1.545  0.0380  0.8012 -1.8385
12090TIP3    H257762   6.110   5.928   1.639 -1.5503 -1.2190  1.2581
12091TIP3   OH257763   2.934   6.780   3.709  0.0816 -0.4853  0.4354
12091TIP3    H157764   2.883   6.717   3.657  1.4343 -0.1562 -1.3342
12091TIP3    H257765   2.868   6.828   3.760 -1.4917  0.4994 -2.4166
12092TIP3   OH257766   0.326   5.705  11.653  0.3639 -0.0126 -0.5687
12092TIP3    H157767   0.366   5.702  11.740  2.8365 -0.6637 -1.7047
12092TIP3    H257768   0.322   5.799  11.632 -1.2205  0.2186  0.6459
12093TIP3   OH257769   0.290   3.012  15.989 -0.4590  0.2015  0.2018
12093TIP3    H157770   0.345   3.073  16.038 -2.1191  0.3711  1.8730
12093TIP3    H257771   0.300   2.928  16.034 -0.9246  0.0350 -0.0025
12094TIP3   OH257772   5.762   6.668  12.092 -0.1718 -0.2244 -0.1018
12094TIP3    H157773   5.719   6.740  12.047 -0.7290  0.7171  1.8565
12094TIP3    H257774   5.699   6.596  12.088 -2.1474  1.2275  2.9827
12095TIP3   OH257775   3.175   5.651   2.147 -0.2205 -0.1983  0.5566
12095TIP3    H157776   3.108   5.712   2.179 -0.3758 -0.6019  1.0008
12095TIP3    H257777   3.246   5.657   2.211 -0.8564 -1.5817  1.4187
12096TIP3   OH257778   3.817   1.108  15.201 -0.2649 -0.1590 -0.6748
12096TIP3    H157779   3.755   1.105  15.275  0.5135  0.3443  0.0073
12096TIP3    H257780   3.769   1.154  15.132 -1.1999 -1.1151 -0.6862
12097TIP3   OH257781   2.413   5.821   5.860  0.2678 -0.3244  0.2921
12097TIP3    H157782   2.385   5.849   5.947  0.3263  0.5095  0.0523
12097TIP3    H257783   2.345   5.854   5.801  0.2809 -0.7904  0.0124
12098TIP3   OH257784   5.090   6.708  11.464 -0.0216  0.1020  0.0024
12098TIP3    H157785   5.051   6.794  11.453  2.9455  1.7584  1.6281
12098TIP3    H257786   5.159   6.704  11.397 -0.9502 -1.5180 -0.8740
12099TIP3   OH257787   4.763   6.473   5.435 -0.3660 -0.0133 -0.1712
12099TIP3    H157788   4.804   6.555   5.407 -0.3813  0.2331  0.5271
12099TIP3    H257789   4.816   6.444   5.509 -0.5400 -0.4794 -0.2304
12100TIP3   OH257790   4.997   6.053  12.356 -0.1489 -0.3665 -0.0309
12100TIP3    H157791   5.089   6.045  12.334 -0.0953  0.6685 -0.2044
12100TIP3    H257792   4.977   6.146  12.343 -0.4733  0.0082  2.8816
12101TIP3   OH257793   6.679   4.087  13.669 -0.0580 -0.1857 -0.7586
12101TIP3    H157794   6.675   4.057  13.579 -1.6715 -0.5969 -0.5715
12101TIP3    H257795   6.716   4.013  13.718 -0.2316 -0.3735 -0.9127
12102TIP3   OH257796   2.192   0.881   4.909  0.0440 -0.3836 -0.8643
12102TIP3    H157797   2.216   0.789   4.913 -0.0106 -0.3252  0.9674
12102TIP3    H257798   2.113   0.884   4.856 -0.4112 -1.4805 -0.2445
12103TIP3   OH257799   5.418   2.607  13.296 -0.6451  0.3228 -0.2099
12103TIP3    H157800   5.362   2.648  13.362  0.1178 -0.7250  1.0912
12103TIP3    H257801   5.357   2.572  13.231 -1.3721  1.9727 -0.4467
12104TIP3   OH257802   6.047   2.129  16.379  0.3089  0.1469  0.0748
12104TIP3    H157803   6.135   2.168  16.382  0.4238 -0.1549  0.8170
12104TIP3    H257804   5.991   2.195  16.419  0.1159  0.5334 -0.8228
12105TIP3   OH257805   6.249   5.909   0.117  0.0664  0.3429  0.4094
12105TIP3    H157806   6.271   5.834   0.171 -1.0311 -0.4458 -0.2273
12105TIP3    H257807   6.320   5.915   0.053  0.5499  0.3238  0.9411
12106TIP3   OH257808   5.543   3.275   1.843  0.2540 -0.1091 -0.0360
12106TIP3    H157809   5.523   3.272   1.936 -2.1786  0.0813 -0.5069
12106TIP3    H257810   5.606   3.346   1.834  0.4733 -0.1031  1.4553
12107TIP3   OH257811   5.218   2.330  13.183 -0.3358  0.0718 -0.1291
12107TIP3    H157812   5.231   2.324  13.088 -2.8097  1.5306 -0.5929
12107TIP3    H257813   5.235   2.242  13.215 -0.1028 -0.5916 -2.0155
12108TIP3   OH257814   3.374   5.462   6.289  0.3776  0.0868  0.3528
12108TIP3    H157815   3.318   5.481   6.364 -0.7056 -1.0367 -0.1515
12108TIP3    H257816   3.432   5.393   6.318 -0.7728 -1.1271 -0.1462
12109TIP3   OH257817   5.681   0.512   1.169 -0.1251 -0.5664 -0.4046
12109TIP3    H157818   5.631   0.470   1.239 -0.9766 -0.3184 -0.8569
12109TIP3    H257819   5.626   0.585   1.141  0.2849 -0.5651 -1.2166
12110TIP3   OH257820   2.180   5.215  16.311 -0.2000  0.7704  0.0268
12110TIP3    H157821   2.215   5.269  16.382 -0.9865  1.1654  0.1203
12110TIP3    H257822   2.089   5.244  16.301  0.1426  1.3037 -1.7018
12111TIP3   OH257823   0.039   4.718   4.991 -0.2172 -0.1321 -0.2055
12111TIP3    H157824   0.108   4.672   5.039  1.8580  1.7899 -1.2538
12111TIP3    H257825   0.031   4.668   4.909  1.0220  0.4913 -0.7248
12112TIP3   OH257826   4.420   4.556   4.415 -0.5233 -0.1361 -0.0965
12112TIP3    H157827   4.340   4.515   4.380  0.5155 -3.2208  0.9541
12112TIP3    H257828   4.387   4.623   4.475 -2.3277 -0.4328 -0.6993
12113TIP3   OH257829   5.122   0.508   2.770  0.1747  0.3352  0.5802
12113TIP3    H157830   5.104   0.487   2.678 -0.1802  1.6652  0.3198
12113TIP3    H257831   5.217   0.515   2.775  0.2220 -0.2234  0.4186
12114TIP3   OH257832   2.026   2.050  12.831 -0.5850 -0.0766  0.2194
12114TIP3    H157833   2.119   2.033  12.848 -0.5366  1.3351  1.5163
12114TIP3    H257834   2.009   2.134  12.874 -3.0154 -1.4314  2.0411
12115TIP3   OH257835   3.427   6.354  15.138 -0.7795  0.0939 -0.0104
12115TIP3    H157836   3.383   6.291  15.081 -2.2858 -0.1979  1.4489
12115TIP3    H257837   3.519   6.329  15.135 -0.5872  0.9485 -3.4025
12116TIP3   OH257838   5.491   2.739   0.631  0.2850 -0.0396  0.0479
12116TIP3    H157839   5.513   2.655   0.592 -0.8863 -0.2245 -0.2364
12116TIP3    H257840   5.575   2.783   0.642  1.0499 -1.7574  1.3773
12117TIP3   OH257841   5.201   1.608  13.155  0.9357  0.5470 -0.1622
12117TIP3    H157842   5.205   1.584  13.062  0.1386 -0.8296  0.1462
12117TIP3    H257843   5.194   1.525  13.201 -0.5538  1.3040  1.0260
12118TIP3   OH257844   2.753   1.079   6.285 -0.2151 -0.8893 -0.7400
12118TIP3    H157845   2.789   1.105   6.370 -1.0969 -1.6102 -0.1430
12118TIP3    H257846   2.830   1.059   6.232  0.2888 -2.5580  0.5771
12119TIP3   OH257847   1.216   3.743   6.290  0.0761 -0.5122 -0.1873
12119TIP3    H157848   1.211   3.811   6.356  0.3659 -1.3649  0.7320
12119TIP3    H257849   1.188   3.663   6.335  0.1144 -1.0722 -1.1325
12120TIP3   OH257850   3.365   6.582  11.778 -0.1839  0.1184  1.0851
12120TIP3    H157851   3.384   6.615  11.690 -0.0673  0.2270  1.1501
12120TIP3    H257852   3.448   6.588  11.824 -0.5017  1.1591  1.5508
12121TIP3   OH257853   1.082   4.893  15.531 -0.4585  0.0954  0.8102
12121TIP3    H157854   1.105   4.959  15.466 -1.0161  0.2963  0.8101
12121TIP3    H257855   1.155   4.832  15.531  0.3857  1.0903  1.3055
12122TIP3   OH257856   1.859   1.602   2.516 -0.2017 -0.0294 -0.9641
12122TIP3    H157857   1.801   1.672   2.487  0.0941 -0.1847 -1.9487
12122TIP3    H257858   1.925   1.645   2.570 -1.3414  0.1207  0.3162
12123TIP3   OH257859   5.253   1.109   5.135 -0.4433  0.0552  0.0755
12123TIP3    H157860   5.333   1.066   5.105 -1.5371 -1.1939 -1.1107
12123TIP3    H257861   5.245   1.084   5.227  1.1012  1.0964  0.5085
12124TIP3   OH257862   0.314   4.691   3.541  0.1094 -0.0595  0.7971
12124TIP3    H157863   0.365   4.611   3.549  1.1931  0.5566  0.1104
12124TIP3    H257864   0.336   4.742   3.619  0.3845  0.1116  0.6090
12125TIP3   OH257865   6.804   1.514   1.644 -0.7776  0.5247  0.3464
12125TIP3    H157866   6.851   1.591   1.676 -1.0314  0.4548  0.9032
12125TIP3    H257867   6.736   1.499   1.710 -1.6338  0.6753 -0.4998
12126TIP3   OH257868   3.124   3.881   1.728 -0.4614 -0.2609 -0.5172
12126TIP3    H157869   3.055   3.817   1.709 -1.4855  0.7587 -0.2443
12126TIP3    H257870   3.193   3.861   1.664 -1.6635 -0.2593 -1.8338
12127TIP3   OH257871   4.616   1.048  13.201  0.3260 -0.1381 -0.0101
12127TIP3    H157872   4.562   0.974  13.227  0.8412 -0.9482 -1.2013
12127TIP3    H257873   4.624   1.039  13.106 -0.1944  1.8310 -0.2782
12128TIP3   OH257874   5.944   2.646  11.944  0.1460 -0.0650 -0.3698
12128TIP3    H157875   5.952   2.565  11.993  0.3939 -1.1254 -2.1206
12128TIP3    H257876   6.020   2.698  11.970  0.1258 -0.4952  0.5606
12129TIP3   OH257877   5.989   5.079  11.190  0.2202 -0.0816  0.0628
12129TIP3    H157878   6.005   5.150  11.253 -1.2574 -0.1521  0.5278
12129TIP3    H257879   6.059   5.090  11.125  0.7945  0.9938  0.8275
12130TIP3   OH257880   4.449   2.701   1.279  0.6550 -0.3412 -0.2395
12130TIP3    H157881   4.404   2.619   1.294  1.4462 -0.4880  1.4774
12130TIP3    H257882   4.458   2.740   1.367  1.3235  1.0072 -0.8879
12131TIP3   OH257883   0.587   5.905  15.717  0.1000 -0.2867  0.3692
12131TIP3    H157884   0.584   5.993  15.681 -0.6026 -0.7448 -0.7315
12131TIP3    H257885   0.673   5.898  15.757  0.3306  0.7442  0.0654
12132TIP3   OH257886   3.257   1.602  10.830 -0.1466 -0.8530 -0.7470
12132TIP3    H157887   3.219   1.690  10.839 -0.2417 -1.2871  3.8837
12132TIP3    H257888   3.181   1.544  10.826 -0.0477 -0.9823 -0.7182
12133TIP3   OH257889   3.331   6.609   5.972 -0.1249 -0.0471  0.3530
12133TIP3    H157890   3.256   6.662   5.944  1.1774  0.7738 -1.7234
12133TIP3    H257891   3.293   6.540   6.027 -2.5450 -0.2139 -1.4299
12134TIP3   OH257892   2.069   5.394   5.436  0.2869  0.0934 -0.3904
12134TIP3    H157893   2.074   5.383   5.342 -1.1494 -0.9160 -0.3760
12134TIP3    H257894   2.126   5.326   5.472  0.5139  0.2138 -0.5277
12135TIP3   OH257895   4.394   2.387   5.403  1.0077 -0.0273  0.0870
12135TIP3    H157896   4.301   2.391   5.426  0.8997 -1.0095 -0.1554
12135TIP3    H257897   4.438   2.441   5.470  0.3769 -0.3905  0.8038
12136TIP3   OH257898   1.222   4.915   6.666  0.7709  0.4683  0.6790
12136TIP3    H157899   1.232   4.924   6.760 -0.3791  0.1629  0.8398
12136TIP3    H257900   1.236   4.822   6.649  0.6508  0.4674  0.5863
12137TIP3   OH257901   4.998   2.588   3.887 -0.6557 -0.0842  0.1694
12137TIP3    H157902   5.090   2.563   3.892 -0.7063 -0.9934 -2.6148
12137TIP3    H257903   4.960   2.555   3.968  0.9765 -1.8799  0.2478
12138TIP3   OH257904   4.668   6.609   6.015 -0.3750 -0.2788 -0.2604
12138TIP3    H157905   4.621   6.636   6.094 -0.5985  1.1290 -0.8573
12138TIP3    H257906   4.720   6.534   6.042  1.0694  1.3890  1.7213
12139TIP3   OH257907   6.155   0.140   3.459  0.0350 -0.2581 -0.1806
12139TIP3    H157908   6.128   0.066   3.514 -0.3330 -0.3424 -0.4735
12139TIP3    H257909   6.250   0.133   3.455 -0.1401 -2.2550 -2.3300
12140TIP3   OH257910   1.287   0.062   5.382  0.5827  0.6827 -0.2627
12140TIP3    H157911   1.224   0.133   5.367 -0.2299 -0.1466 -0.7922
12140TIP3    H257912   1.272   0.001   5.310  2.9152  1.1046 -1.1635
12141TIP3   OH257913   5.804   4.304  11.463  0.4132 -0.2654  0.1348
12141TIP3    H157914   5.732   4.327  11.405 -0.5229  0.2960  1.4737
12141TIP3    H257915   5.807   4.208  11.460 -0.5747 -0.3062  0.2689
12142TIP3   OH257916   4.321   6.693  14.953  0.1405  0.3668 -0.1270
12142TIP3    H157917   4.230   6.705  14.980  0.0659 -0.4287  0.0036
12142TIP3    H257918   4.358   6.634  15.019  0.5642  0.1651 -0.5383
12143TIP3   OH257919   2.240   5.276  16.862  0.4922 -0.4965  0.2773
12143TIP3    H157920   2.250   5.351  16.921 -0.1975 -1.6037  1.7975
12143TIP3    H257921   2.318   5.223  16.878  0.3015 -0.8022  0.1895
12144TIP3   OH257922   1.843   5.206   0.693 -0.6878  0.0856 -0.1012
12144TIP3    H157923   1.781   5.169   0.630 -1.0079  1.1720 -0.4209
12144TIP3    H257924   1.859   5.295   0.663 -0.2088  0.3452  0.8894
12145TIP3   OH257925   2.143   5.718  16.439 -0.6178  0.0809 -0.2784
12145TIP3    H157926   2.089   5.759  16.506  0.7016  0.6770  0.4387
12145TIP3    H257927   2.082   5.697  16.368 -2.6252 -3.2758  2.2605
12146TIP3   OH257928   6.166   1.820   0.732  0.0229  0.7996  0.4671
12146TIP3    H157929   6.117   1.738   0.733  0.2112  0.6846  1.7371
12146TIP3    H257930   6.187   1.835   0.640 -0.8180 -0.0949  0.1225
12147TIP3   OH257931   2.422   1.914   3.204  0.0845  0.5401 -0.1702
12147TIP3    H157932   2.512   1.943   3.188 -0.2565  3.0226  2.0181
12147TIP3    H257933   2.411   1.838   3.147  3.3501  0.5633 -0.9566
12148TIP3   OH257934   3.546   5.908   6.078 -0.5118 -0.1805 -0.1368
12148TIP3    H157935   3.632   5.912   6.120 -0.0738 -2.7185 -0.7110
12148TIP3    H257936   3.499   5.839   6.124 -1.4150 -0.3761 -1.3101
12149TIP3   OH257937   1.288   3.832  17.140  0.6672 -0.5486  0.6239
12149TIP3    H157938   1.284   3.903  17.203  2.2336 -0.1981  0.3580
12149TIP3    H257939   1.378   3.835  17.106  0.0211 -1.1162 -1.1724
12150TIP3   OH257940   6.329   6.026   4.837 -0.1957  0.3395 -0.1443
12150TIP3    H157941   6.288   6.052   4.920  0.6042  0.8501  0.1062
12150TIP3    H257942   6.389   6.098   4.817  0.1255 -0.1053 -0.8146
12151TIP3   OH257943   0.672   2.398  14.023 -0.2572  0.2757 -0.2444
12151TIP3    H157944   0.660   2.417  13.930  1.1496  1.0939 -0.2605
12151TIP3    H257945   0.745   2.453  14.050 -2.4688  2.1487  2.0354
12152TIP3   OH257946   6.710   5.447   2.645 -0.1444 -0.3258 -0.7664
12152TIP3    H157947   6.651   5.406   2.707 -0.4437  0.1871 -0.7104
12152TIP3    H257948   6.654   5.500   2.589  0.1627 -0.5051 -1.2495
12153TIP3   OH257949   4.288   4.720   5.325 -0.9909 -0.1244  0.8524
12153TIP3    H157950   4.251   4.758   5.245 -1.0659 -2.0155 -0.0493
12153TIP3    H257951   4.290   4.792   5.387  1.8746  2.1969 -1.7441
12154TIP3   OH257952   6.734   5.431   3.564 -0.1029 -0.9987 -0.0411
12154TIP3    H157953   6.813   5.390   3.529  0.6675 -0.2543  0.7974
12154TIP3    H257954   6.727   5.514   3.517 -0.1994 -0.9190  0.1124
12155TIP3   OH257955   6.533   4.440   5.262  0.2122 -0.2486 -0.6989
12155TIP3    H157956   6.555   4.361   5.310 -0.2521 -1.1151 -1.9008
12155TIP3    H257957   6.437   4.445   5.265  0.3282  1.5933  1.4531
12156TIP3   OH257958   5.168   2.887  16.511  0.8768 -0.6799  0.8886
12156TIP3    H157959   5.140   2.914  16.599  4.3129  0.2481  1.8010
12156TIP3    H257960   5.103   2.925  16.453 -0.8157 -0.2742  2.9690
12157TIP3   OH257961   6.576   4.140  11.865  0.1763  0.2676  0.0228
12157TIP3    H157962   6.612   4.214  11.816 -0.9392  0.7259 -0.1099
12157TIP3    H257963   6.503   4.108  11.812  2.5285 -2.9151 -1.4673
12158TIP3   OH257964   0.077   3.866   2.930  0.6123 -0.1378  0.3029
12158TIP3    H157965   0.157   3.835   2.973  1.7554  0.0365 -1.6548
12158TIP3    H257966   0.101   3.874   2.838 -1.3947  0.8627 -0.1485
12159TIP3   OH257967   0.088   2.031   1.948  0.7754  0.4581 -0.5814
12159TIP3    H157968   0.056   2.044   1.859 -0.8872 -0.0498 -0.0633
12159TIP3    H257969   0.042   2.096   2.000  0.3078 -0.5058  0.2288
12160TIP3   OH257970   1.216   1.598   5.501  0.2000 -0.5857  0.2415
12160TIP3    H157971   1.310   1.584   5.489  0.5585  0.1503  2.0537
12160TIP3    H257972   1.177   1.513   5.481  1.0575 -0.4221 -2.3054
12161TIP3   OH257973   5.108   4.409  12.760  0.4390 -0.5336 -0.6743
12161TIP3    H157974   5.187   4.379  12.804  0.7420 -1.0542 -1.5586
12161TIP3    H257975   5.036   4.365  12.806  0.7546 -1.1063 -0.7271
12162TIP3   OH257976   0.105   3.879  12.581 -0.4648 -0.2449  0.5961
12162TIP3    H157977   0.164   3.943  12.620  0.9092 -0.5509 -0.9246
12162TIP3    H257978   0.080   3.821  12.653 -0.1211  0.8060  1.5580
12163TIP3   OH257979   6.209   1.308  13.498 -0.0618  0.1297  0.0835
12163TIP3    H157980   6.138   1.273  13.445 -0.9214  1.2030  0.5109
12163TIP3    H257981   6.169   1.378  13.549  0.6041 -1.2491  2.5897
12164TIP3   OH257982   4.833   4.290  13.192 -0.7255 -0.1087  0.3094
12164TIP3    H157983   4.786   4.207  13.181 -0.2078 -0.4987  1.0510
12164TIP3    H257984   4.782   4.339  13.256  0.8519 -1.2884  2.5413
12165TIP3   OH257985   4.317   5.811  13.774 -0.2789  0.1072  0.3778
12165TIP3    H157986   4.359   5.744  13.719  1.6198  1.2503  0.3868
12165TIP3    H257987   4.389   5.848  13.826 -1.4063  1.6947  0.8480
12166TIP3   OH257988   1.812   3.848   6.121 -0.0979  0.5948 -0.0784
12166TIP3    H157989   1.906   3.846   6.105 -0.1109  0.1630 -0.1237
12166TIP3    H257990   1.789   3.756   6.136 -0.2608  0.8609  1.3707
12167TIP3   OH257991   2.073   4.637   0.051 -0.6498  0.1137  0.1811
12167TIP3    H157992   1.997   4.611  -0.002 -1.3303 -0.5333  1.4692
12167TIP3    H257993   2.039   4.644   0.140  0.9592 -0.7953  0.8674
12168TIP3   OH257994   2.734   0.861   0.267  0.2080  0.6105 -0.3046
12168TIP3    H157995   2.771   0.890   0.350  0.0518 -1.2332  0.4293
12168TIP3    H257996   2.737   0.765   0.271 -1.0627  0.4788 -1.8384
12169TIP3   OH257997   3.784   1.089   2.177  0.4509 -0.2000  0.1810
12169TIP3    H157998   3.879   1.095   2.181  0.4645 -0.9536  1.3345
12169TIP3    H257999   3.752   1.171   2.214  0.6535 -0.0766  0.0770
12170TIP3   OH258000   2.322   6.798  16.360 -0.2546  0.3831  0.4637
12170TIP3    H158001   2.315   6.880  16.407 -0.1182  0.2087  0.7873
12170TIP3    H258002   2.338   6.824  16.269 -0.7301  0.7189  0.4738
12171TIP3   OH258003   5.069   0.483  13.675  0.3570 -0.1031 -0.3322
12171TIP3    H158004   5.011   0.558  13.690  3.0222  1.8092  0.8889
12171TIP3    H258005   5.012   0.406  13.686 -1.8446  1.6748  1.2049
12172TIP3   OH258006   1.667   5.819  13.719  0.6977 -0.7171  0.0749
12172TIP3    H158007   1.748   5.815  13.771  2.6947  0.0439 -2.8814
12172TIP3    H258008   1.602   5.855  13.780  2.4469 -1.6818  2.6246
12173TIP3   OH258009   4.697   3.653  11.502 -0.1759 -0.0997 -0.6639
12173TIP3    H158010   4.660   3.625  11.418  2.9537 -0.5610 -1.9469
12173TIP3    H258011   4.746   3.577  11.533  1.6808  1.2411 -0.2253
12174TIP3   OH258012   5.271   6.657   4.164 -0.0763  0.0110 -0.0275
12174TIP3    H158013   5.316   6.596   4.221  1.5332  0.7605 -0.4525
12174TIP3    H258014   5.199   6.607   4.126 -2.1082 -0.0929  3.7447
12175TIP3   OH258015   4.641   2.470   2.697  0.1111 -0.5641 -0.7159
12175TIP3    H158016   4.713   2.409   2.708 -0.4287 -1.4211 -1.8591
12175TIP3    H258017   4.671   2.531   2.630 -0.1687 -0.8094 -1.0600
12176TIP3   OH258018   4.533   2.996   5.108  0.3642  1.1278  0.6205
12176TIP3    H158019   4.611   2.951   5.077  0.1892  1.6598 -0.6308
12176TIP3    H258020   4.495   3.036   5.030 -1.6802  0.1076  1.0318
12177TIP3   OH258021   2.416   5.333   0.941 -0.1013  0.4626 -0.8169
12177TIP3    H158022   2.438   5.381   1.020 -0.0983 -0.3587 -0.3067
12177TIP3    H258023   2.373   5.253   0.973  0.2855 -0.0799 -1.6230
12178TIP3   OH258024   2.403   5.726   0.907  0.2474  0.1644  0.7377
12178TIP3    H158025   2.309   5.718   0.921  0.2627  0.6624  1.1615
12178TIP3    H258026   2.419   5.680   0.825 -0.7992  2.4055 -0.7953
12179TIP3   OH258027   2.177   5.889  14.880 -0.3472 -0.2019  0.1362
12179TIP3    H158028   2.172   5.850  14.793 -1.7527  1.0885 -0.4005
12179TIP3    H258029   2.204   5.818  14.938  0.7268 -1.0408 -1.3695
12180TIP3   OH258030   6.703   4.849  14.292  0.0910  0.3215 -0.2717
12180TIP3    H158031   6.715   4.939  14.264 -0.8942  0.1869 -1.1724
12180TIP3    H258032   6.619   4.849  14.338 -1.4355 -0.7202 -2.9713
12181TIP3   OH258033   1.869   0.121   5.423  0.0423 -0.0518 -0.0971
12181TIP3    H158034   1.835   0.032   5.423  3.3438 -1.3647 -0.1969
12181TIP3    H258035   1.957   0.114   5.386  0.3300  3.2728 -0.2407
12182TIP3   OH258036   2.888   6.756   4.150 -0.2062  0.1518 -0.2049
12182TIP3    H158037   2.836   6.836   4.151  1.6795  1.4304 -1.1302
12182TIP3    H258038   2.850   6.704   4.078 -0.2534  1.0310 -0.8239
12183TIP3   OH258039   1.765   1.834   5.453  0.0152  0.7140  0.7590
12183TIP3    H158040   1.787   1.899   5.387 -0.1140  0.0307  0.0430
12183TIP3    H258041   1.719   1.884   5.521 -1.9282  1.0297 -0.7504
12184TIP3   OH258042   4.131   3.173   0.452 -0.6921  0.6498 -0.3819
12184TIP3    H158043   4.157   3.247   0.396 -1.2797  1.2569  0.1342
12184TIP3    H258044   4.212   3.126   0.470  0.1134  2.6555  1.4268
12185TIP3   OH258045   3.307   6.195   4.190  0.3358  0.6168 -0.5505
12185TIP3    H158046   3.298   6.237   4.104  1.4669  0.5744 -0.6949
12185TIP3    H258047   3.400   6.201   4.210  0.1020  0.4759  0.6064
12186TIP3   OH258048   0.945   5.157  12.005 -0.3446 -0.1852 -0.1977
12186TIP3    H158049   0.936   5.186  12.095 -0.7018  0.8924 -0.5750
12186TIP3    H258050   1.036   5.128  11.998 -0.5209 -0.9772  0.7002
12187TIP3   OH258051   6.367   3.716   4.390  0.6512 -0.0492  0.1364
12187TIP3    H158052   6.365   3.739   4.483 -1.9271 -0.9734  0.3309
12187TIP3    H258053   6.276   3.703   4.366  1.3954 -1.2109 -2.2051
12188TIP3   OH258054   5.050   3.105  13.834 -0.0681 -0.1975  0.0144
12188TIP3    H158055   5.069   3.119  13.927  0.2709 -0.8182  0.0403
12188TIP3    H258056   5.053   3.010  13.823 -2.5268 -0.2960 -0.1227
12189TIP3   OH258057   2.311   3.021   4.364 -0.7448  0.1770 -0.4605
12189TIP3    H158058   2.401   3.054   4.361 -0.5544 -0.4055 -1.2065
12189TIP3    H258059   2.262   3.090   4.408 -0.2518  1.2249 -1.5477
12190TIP3   OH258060   1.020   0.758   4.287  0.4012 -0.8304 -0.4676
12190TIP3    H158061   1.074   0.790   4.360 -1.9229 -0.8143  1.2868
12190TIP3    H258062   1.055   0.804   4.211  0.5083  2.0048  1.2154
12191TIP3   OH258063   1.353   6.807   0.997 -0.6461  0.6421  0.2307
12191TIP3    H158064   1.441   6.773   1.010 -0.6666  0.1131 -0.9729
12191TIP3    H258065   1.358   6.859   0.917 -1.9249 -1.2470 -1.1188
12192TIP3   OH258066   0.932   3.666   5.868  0.3544  0.2822  0.3360
12192TIP3    H158067   0.942   3.629   5.956  0.7826  0.3000  0.2941
12192TIP3    H258068   1.021   3.685   5.840  0.1159  1.7518  0.5361
12193TIP3   OH258069   1.232   3.979  16.003  0.2598  0.3895 -0.0203
12193TIP3    H158070   1.309   3.993  16.058  0.1540  2.7368 -0.4155
12193TIP3    H258071   1.209   4.066  15.970 -1.5259 -0.5181 -1.3098
12194TIP3   OH258072   5.849   5.001  15.716  0.3867  0.7612 -0.1446
12194TIP3    H158073   5.794   5.006  15.638 -0.9331  0.5927  0.7587
12194TIP3    H258074   5.791   4.967  15.784  2.2905 -2.0508  0.1721
12195TIP3   OH258075   5.403   5.708   0.735  0.1156  0.1184  0.1453
12195TIP3    H158076   5.369   5.788   0.695 -1.2357  0.4354  1.8977
12195TIP3    H258077   5.338   5.641   0.714  0.9510 -0.4171 -0.8042
12196TIP3   OH258078   4.957   2.716  17.093  0.0131 -0.0025  0.3919
12196TIP3    H158079   4.973   2.632  17.049  0.2038  0.6212 -0.7549
12196TIP3    H258080   5.026   2.721  17.159  0.7063 -0.2319 -0.3010
12197TIP3   OH258081   3.986   0.530   5.947  0.5860 -0.7376 -0.1734
12197TIP3    H158082   3.902   0.575   5.939  2.3834  2.7923 -0.2184
12197TIP3    H258083   4.007   0.536   6.040  1.6119  0.0857 -0.4423
12198TIP3   OH258084   0.604   5.064  15.853  0.2703  0.2181  0.7855
12198TIP3    H158085   0.692   5.027  15.846 -0.6752 -1.9888  0.0389
12198TIP3    H258086   0.604   5.139  15.792  1.7475  0.5007  1.1235
12199TIP3   OH258087   0.780   6.464  11.689  0.2862 -0.2170  0.2941
12199TIP3    H158088   0.722   6.532  11.654 -1.3857 -0.8161  1.8240
12199TIP3    H258089   0.794   6.488  11.780  2.5470 -0.0553 -0.0564
12200TIP3   OH258090   1.028   4.326   5.493  0.0864 -0.0510 -0.0513
12200TIP3    H158091   1.111   4.359   5.461  0.5601 -1.8345 -0.7021
12200TIP3    H258092   1.050   4.246   5.540 -1.4293 -1.4851 -1.7132
12201TIP3   OH258093   0.715   4.004  12.341 -0.3304 -0.2966  0.1485
12201TIP3    H158094   0.764   4.042  12.414  0.9245 -0.0453 -0.8056
12201TIP3    H258095   0.778   4.001  12.269 -1.3445 -1.2158 -0.7153
12202TIP3   OH258096   0.989   2.506  10.671 -0.1020  0.2151  0.1069
12202TIP3    H158097   0.905   2.466  10.651 -0.0674  0.4464 -0.5211
12202TIP3    H258098   1.036   2.507  10.587  0.5755 -0.0367  0.4756
12203TIP3   OH258099   6.660   1.481  11.272  0.5103 -0.5937  0.1640
12203TIP3    H158100   6.582   1.516  11.315  0.8091  0.3521 -0.0382
12203TIP3    H258101   6.723   1.470  11.344  0.8498  0.5387  0.0541
12204TIP3   OH258102   2.654   6.372   2.274  0.3203 -0.5507  0.1327
12204TIP3    H158103   2.749   6.381   2.266  0.0946  2.7018  0.4481
12204TIP3    H258104   2.631   6.426   2.349 -1.9761  0.1516 -1.0381
12205TIP3   OH258105   1.230   0.635   0.115 -0.4064  0.3630  0.4366
12205TIP3    H158106   1.147   0.677   0.092 -0.7318 -0.7286 -0.4148
12205TIP3    H258107   1.297   0.694   0.082 -0.8633  0.3666 -0.4909
12206TIP3   OH258108   4.345   4.201   3.405  0.0693 -0.1701  0.6357
12206TIP3    H158109   4.252   4.178   3.400  0.7795 -2.9612 -1.1606
12206TIP3    H258110   4.374   4.204   3.314  2.1138 -1.1073  1.2215
12207TIP3   OH258111   1.865   1.783   6.204 -0.5641 -0.4775  0.8279
12207TIP3    H158112   1.955   1.811   6.217 -0.0383 -0.7394 -1.8393
12207TIP3    H258113   1.871   1.693   6.173 -1.4094  0.6591 -3.0569
12208TIP3   OH258114   1.330   3.287   2.551 -0.4727  0.1218  0.0211
12208TIP3    H158115   1.319   3.326   2.637 -0.4779 -0.4721  0.2867
12208TIP3    H258116   1.248   3.305   2.505  0.1731  1.9828 -0.4781
12209TIP3   OH258117   2.494   4.651   2.050  0.1010 -0.5678  0.3950
12209TIP3    H158118   2.537   4.648   1.964  0.2478 -1.5072  0.4972
12209TIP3    H258119   2.566   4.650   2.113  0.1105  2.6487  0.5346
12210TIP3   OH258120   0.656   3.851   4.813 -0.4648  0.1592 -0.2973
12210TIP3    H158121   0.669   3.766   4.853 -0.8234  0.6348  0.8612
12210TIP3    H258122   0.621   3.906   4.884  0.2074  1.3889 -0.9008
12211TIP3   OH258123   3.918   4.171   3.649 -0.1743 -0.2374  0.6302
12211TIP3    H158124   3.846   4.143   3.705 -0.8615  0.6835  0.2181
12211TIP3    H258125   3.920   4.266   3.657  0.0955 -0.1432 -0.4474
12212TIP3   OH258126   6.337   0.982   2.844 -0.6045 -0.2706  0.3367
12212TIP3    H158127   6.296   0.974   2.757 -1.2559 -1.3551  0.7303
12212TIP3    H258128   6.402   1.051   2.833 -0.6203 -0.4475 -1.0461
12213TIP3   OH258129   2.719   4.141   1.021  0.9367 -0.6748 -0.2002
12213TIP3    H158130   2.651   4.191   1.066  0.9589  0.1335 -1.0485
12213TIP3    H258131   2.733   4.065   1.076 -0.1731 -0.5006  0.3408
12214TIP3   OH258132   0.558   4.870  11.494  0.0712 -0.0053  0.2683
12214TIP3    H158133   0.615   4.894  11.567 -0.1060  1.1794  0.0289
12214TIP3    H258134   0.618   4.842  11.425  0.2199 -1.5475  1.0008
12215TIP3   OH258135   2.992   1.308   4.958  0.1036 -0.1890 -0.2908
12215TIP3    H158136   2.910   1.277   4.997  0.7604 -1.3793  0.1387
12215TIP3    H258137   3.059   1.291   5.024  1.1166 -1.6222 -1.6544
12216TIP3   OH258138   3.935   5.298   4.480 -0.0978 -0.5170  0.0216
12216TIP3    H158139   4.024   5.283   4.448  0.3147  1.8236  0.0283
12216TIP3    H258140   3.879   5.274   4.406  0.6541  0.2940 -0.8247
12217TIP3   OH258141   6.601   4.828  12.775 -0.5091 -0.0819  0.2264
12217TIP3    H158142   6.553   4.908  12.797  0.0068  0.5146 -0.8052
12217TIP3    H258143   6.539   4.778  12.721  0.1782  0.9242 -1.5491
12218TIP3   OH258144   6.304   0.501   0.785  0.3121  0.0380  0.1966
12218TIP3    H158145   6.366   0.551   0.838  1.6655 -0.2620 -1.0664
12218TIP3    H258146   6.263   0.567   0.729  2.0862 -0.2364 -1.4595
12219TIP3   OH258147   2.453   1.339  12.113 -0.1172 -0.2210 -0.0226
12219TIP3    H158148   2.424   1.430  12.108  0.4985  0.0569  1.3415
12219TIP3    H258149   2.377   1.288  12.082 -1.1309  0.6533  0.9612
12220TIP3   OH258150   6.679   4.065   6.458 -0.3107 -0.5736  0.3482
12220TIP3    H158151   6.601   4.121   6.460  0.5870  0.6983  1.2061
12220TIP3    H258152   6.677   4.023   6.372 -1.6788 -0.1781  0.1745
12221TIP3   OH258153   5.787   3.693  16.918  0.7037  0.7318 -0.2151
12221TIP3    H158154   5.819   3.608  16.886 -0.0287 -0.1698  1.3787
12221TIP3    H258155   5.827   3.702  17.004 -1.1383  0.8516  0.6588
12222TIP3   OH258156   0.269   6.523  16.702  0.1472  0.6053 -0.3596
12222TIP3    H158157   0.331   6.549  16.770  1.3237  2.4694 -2.0885
12222TIP3    H258158   0.284   6.585  16.630 -1.7271 -0.7042 -1.9527
12223TIP3   OH258159   2.848   6.528  11.491 -0.3304  0.1619 -0.2542
12223TIP3    H158160   2.804   6.479  11.422  0.5775  0.1272 -0.8083
12223TIP3    H258161   2.777   6.572  11.538 -0.9545  0.1436 -1.1705
12224TIP3   OH258162   4.673   2.295   1.350 -0.6572 -0.1550 -0.5343
12224TIP3    H158163   4.600   2.239   1.375  0.7088 -0.7334  2.3966
12224TIP3    H258164   4.678   2.360   1.419  0.9589  0.4999 -1.2386
12225TIP3   OH258165   4.830   3.289   5.007  0.1543  0.1654  0.8348
12225TIP3    H158166   4.922   3.317   5.019 -0.0632  1.5889 -0.6293
12225TIP3    H258167   4.836   3.210   4.954  0.4596  1.6132 -1.3715
12226TIP3   OH258168   3.070   4.211   0.030 -0.1211 -0.2857  0.0567
12226TIP3    H158169   2.998   4.274   0.032  0.2132  0.1273 -0.5245
12226TIP3    H258170   3.028   4.128   0.006 -0.3691  0.0047 -0.5318
12227TIP3   OH258171   6.306   6.632   4.578  0.3930  0.2266 -0.4994
12227TIP3    H158172   6.348   6.575   4.513  1.5907  2.3591 -1.6637
12227TIP3    H258173   6.314   6.584   4.660  0.8957 -1.5172 -1.5357
12228TIP3   OH258174   2.913   6.511   1.138 -0.2600 -0.2161 -0.3951
12228TIP3    H158175   2.897   6.517   1.232  0.5066 -1.8331 -0.1537
12228TIP3    H258176   2.876   6.592   1.102  1.1811  1.3293  1.5324
12229TIP3   OH258177   3.764   1.962   0.426 -0.2329  0.2497  0.2205
12229TIP3    H158178   3.852   1.980   0.393 -0.3786  0.3924 -0.0930
12229TIP3    H258179   3.761   2.007   0.511 -0.4522  1.3623 -0.3669
12230TIP3   OH258180   0.376   5.104   5.685 -0.0695  0.6165 -0.2022
12230TIP3    H158181   0.383   5.124   5.778  2.0754 -0.0578 -0.2131
12230TIP3    H258182   0.448   5.152   5.644  0.5749 -1.1300 -1.1722
12231TIP3   OH258183   4.479   6.450   3.072 -0.1358  0.4052 -0.0584
12231TIP3    H158184   4.540   6.474   3.143  0.2940  1.9159 -0.9207
12231TIP3    H258185   4.424   6.527   3.061 -1.1295 -0.3493 -0.4257
12232TIP3   OH258186   5.173   0.725   5.367  0.1512 -0.6627 -0.2042
12232TIP3    H158187   5.181   0.629   5.363 -0.9878 -0.8187  0.9049
12232TIP3    H258188   5.150   0.743   5.458 -0.5043  0.6032 -0.6128
12233TIP3   OH258189   3.031   2.506   1.944  0.1033 -0.2162  0.0372
12233TIP3    H158190   2.944   2.505   1.904  0.6702 -0.3136 -1.2461
12233TIP3    H258191   3.062   2.416   1.937  0.9918  0.1651 -1.0985
12234TIP3   OH258192   3.095   2.406  15.435 -0.2149  0.2598  0.0613
12234TIP3    H158193   3.184   2.409  15.398 -1.0324  1.3917 -1.9196
12234TIP3    H258194   3.039   2.393  15.359 -1.9945  2.8597  0.8600
12235TIP3   OH258195   4.178   3.783   2.435  1.1648  0.9748 -0.3944
12235TIP3    H158196   4.266   3.791   2.399  0.9318  0.2185 -1.1657
12235TIP3    H258197   4.124   3.760   2.359  0.9475 -2.4216  0.7142
12236TIP3   OH258198   2.054   4.573   4.596  0.1041 -0.4673  0.0824
12236TIP3    H158199   2.034   4.615   4.512 -2.0021 -2.4626 -0.4596
12236TIP3    H258200   2.070   4.481   4.573 -1.2177 -1.1734  1.9624
12237TIP3   OH258201   4.635   6.333  11.447  0.0321  0.0129 -0.0759
12237TIP3    H158202   4.674   6.246  11.456 -1.7087 -0.8708 -0.7690
12237TIP3    H258203   4.702   6.393  11.479  0.2450 -1.7673  3.0500
12238TIP3   OH258204   3.320   1.864   1.188 -0.0370  0.2822  0.2719
12238TIP3    H158205   3.244   1.830   1.140  1.2730  0.3937 -1.9714
12238TIP3    H258206   3.345   1.793   1.247 -0.0680 -0.9114 -1.1309
12239TIP3   OH258207   4.777   0.728   2.012 -0.4322  0.3631  0.1772
12239TIP3    H158208   4.767   0.654   2.071 -0.3211 -0.6096 -1.0158
12239TIP3    H258209   4.737   0.802   2.060 -0.5968 -0.4581  1.3356
12240TIP3   OH258210   1.216   2.681  11.670 -0.6179  0.2715 -0.2762
12240TIP3    H158211   1.131   2.640  11.687 -0.7786  0.7403  0.0649
12240TIP3    H258212   1.226   2.678  11.575 -1.6724  1.5131 -0.4387
12241TIP3   OH258213   1.102   4.480  11.117 -0.7327  0.1135  0.0981
12241TIP3    H158214   1.015   4.471  11.078 -0.2977  2.4146 -1.4359
12241TIP3    H258215   1.161   4.439  11.054 -0.3055  1.7426 -0.5829
12242TIP3   OH258216   0.910   1.985   5.644 -0.0605 -0.5646 -0.2483
12242TIP3    H158217   0.946   1.944   5.566 -0.6384 -0.1254 -0.7455
12242TIP3    H258218   0.983   2.036   5.680 -0.5584  1.4426 -2.0248
12243TIP3   OH258219   3.254   2.754  17.071 -0.1705  0.2698 -0.5852
12243TIP3    H158220   3.172   2.718  17.037 -0.0103  0.5398 -1.2456
12243TIP3    H258221   3.277   2.694  17.143 -0.0966 -0.7511 -1.4488
12244TIP3   OH258222   0.590   1.892   5.505  0.6410 -0.3898  0.1648
12244TIP3    H158223   0.621   1.892   5.414  1.3367 -0.8955  0.3938
12244TIP3    H258224   0.636   1.818   5.545  1.2129  0.5352  1.2171
12245TIP3   OH258225   4.775   4.186  16.701 -0.1405  0.0012 -0.3946
12245TIP3    H158226   4.712   4.152  16.638 -1.1640  1.3885 -0.1366
12245TIP3    H258227   4.725   4.247  16.755  0.9794 -0.3422  1.0580
12246TIP3   OH258228   6.502   2.465  11.800 -0.5019 -0.3257  0.2496
12246TIP3    H158229   6.586   2.445  11.840  0.4735  1.0423 -1.0451
12246TIP3    H258230   6.437   2.440  11.866  0.9446 -0.5091  1.6389
12247TIP3   OH258231   3.341   5.281   4.743 -0.0619  0.2481  0.3030
12247TIP3    H158232   3.313   5.300   4.653  0.6223 -1.7757 -0.3653
12247TIP3    H258233   3.373   5.365   4.776 -0.1556  0.9907 -1.4193
12248TIP3   OH258234   6.317   3.731   1.491 -0.5210 -0.6650 -0.2402
12248TIP3    H158235   6.299   3.802   1.553  0.0823  1.3361 -2.2595
12248TIP3    H258236   6.382   3.676   1.535 -0.7729  0.1939  1.2454
12249TIP3   OH258237   5.191   6.350  14.261 -0.1138  0.2656  0.8752
12249TIP3    H158238   5.114   6.294  14.256  0.7307 -0.9091  0.8490
12249TIP3    H258239   5.265   6.291  14.245  0.7377  1.5163  0.0938
12250TIP3   OH258240   5.280   6.102  12.379  0.2640 -0.0202 -0.2768
12250TIP3    H158241   5.226   6.165  12.425 -1.4400 -1.1453 -0.6849
12250TIP3    H258242   5.306   6.039  12.447 -2.0310 -1.5328 -0.7567
12251TIP3   OH258243   1.410   4.362  11.937 -0.5547 -0.6253  0.0681
12251TIP3    H158244   1.356   4.294  11.978 -0.3311 -0.1255  1.2206
12251TIP3    H258245   1.496   4.353  11.980 -0.6614  0.6801  0.5796
12252TIP3   OH258246   2.574   3.835  13.117  0.0897 -0.1555 -0.4735
12252TIP3    H158247   2.511   3.813  13.185 -0.5939  0.6959 -0.8091
12252TIP3    H258248   2.581   3.756  13.063 -0.3033 -0.4220 -0.1303
12253TIP3   OH258249   4.544   4.932  14.702  0.2987  0.3371  0.0050
12253TIP3    H158250   4.609   4.950  14.770 -1.2761  1.7823  1.1733
12253TIP3    H258251   4.585   4.962  14.621  1.8506 -0.5869  0.4425
12254TIP3   OH258252   0.204   2.608   2.231  0.2117 -0.2353  0.2490
12254TIP3    H158253   0.228   2.615   2.139  0.2975 -0.3748  0.2606
12254TIP3    H258254   0.276   2.560   2.271  1.3672  1.9136  0.8539
12255TIP3   OH258255   0.023   3.635  13.885 -0.0346  0.3601  0.3984
12255TIP3    H158256  -0.041   3.600  13.823  0.1257 -0.7445  0.8336
12255TIP3    H258257   0.008   3.585  13.966 -0.4059  1.9500  1.3272
12256TIP3   OH258258   3.788   1.138   5.839 -0.1423  0.4252 -0.5735
12256TIP3    H158259   3.746   1.125   5.923  1.2397 -2.0287 -0.2136
12256TIP3    H258260   3.730   1.098   5.775  0.2594 -0.4092 -0.4182
12257TIP3   OH258261   0.166   1.648  13.291 -0.1249 -0.1016  0.0104
12257TIP3    H158262   0.148   1.742  13.294 -1.7949 -0.3534 -1.0156
12257TIP3    H258263   0.222   1.631  13.366 -0.3618  1.6084  0.5810
12258TIP3   OH258264   5.063   5.749  11.612 -0.6037  0.1642  0.4029
12258TIP3    H158265   4.991   5.713  11.561  0.4446  1.8877 -2.3632
12258TIP3    H258266   5.058   5.843  11.599  0.4336  0.5577  2.5474
12259TIP3   OH258267   3.992   0.595  11.855 -1.0988  0.3568 -0.6435
12259TIP3    H158268   4.083   0.624  11.845 -0.9194  0.3860  0.9419
12259TIP3    H258269   3.951   0.665  11.907 -1.2254 -1.1255  1.3144
12260TIP3   OH258270   3.776   5.659   4.372  0.0324 -0.1056 -0.2072
12260TIP3    H158271   3.683   5.637   4.359 -0.2331  1.1593 -0.5147
12260TIP3    H258272   3.779   5.696   4.460  0.4736 -1.3327  0.2982
12261TIP3   OH258273   3.878   1.397   4.158 -0.4493  0.2841  0.8883
12261TIP3    H158274   3.842   1.315   4.124 -0.7808  0.3626  1.0494
12261TIP3    H258275   3.952   1.416   4.100 -1.7365  1.0311 -0.5182
12262TIP3   OH258276   2.956   0.838   1.684 -0.1424 -0.7257  0.4571
12262TIP3    H158277   3.026   0.887   1.728 -0.9863  0.1705  0.7975
12262TIP3    H258278   2.943   0.761   1.739 -1.6402  0.7063  2.1490
12263TIP3   OH258279   2.515   2.902   2.759 -0.2127  0.2203  0.0458
12263TIP3    H158280   2.492   2.934   2.846 -1.0360 -1.5289  0.4965
12263TIP3    H258281   2.446   2.935   2.702  0.1570  1.1085  0.1143
12264TIP3   OH258282   4.769   1.960   1.383  0.2397 -0.5218  0.2499
12264TIP3    H158283   4.858   1.957   1.417  0.2391 -2.1819  0.1469
12264TIP3    H258284   4.777   2.001   1.296  0.5873  1.3318  1.1389
12265TIP3   OH258285   2.253   5.816   4.197 -0.1743  0.5692 -0.0404
12265TIP3    H158286   2.323   5.846   4.255  0.0512 -1.5141  0.8226
12265TIP3    H258287   2.173   5.826   4.249  0.0315 -1.3283  0.6750
12266TIP3   OH258288   4.794   4.102   2.708  0.3077  0.3665  0.1845
12266TIP3    H158289   4.704   4.125   2.731  0.9776  0.4619  2.8409
12266TIP3    H258290   4.803   4.011   2.737  0.9289  0.2126 -0.4883
12267TIP3   OH258291   6.640   2.710   4.708  0.2233  0.4716 -0.3446
12267TIP3    H158292   6.591   2.686   4.787 -0.0809  0.5289 -0.5150
12267TIP3    H258293   6.641   2.631   4.655  2.2646 -0.1876  0.6593
12268TIP3   OH258294   6.734   1.994  16.978  0.9680 -0.5187 -0.2022
12268TIP3    H158295   6.827   2.014  16.966  1.1154 -2.0877 -1.9083
12268TIP3    H258296   6.688   2.058  16.924  1.0387  0.2177  0.5920
12269TIP3   OH258297   6.425   5.685  15.207 -0.4005 -0.1581  0.2998
12269TIP3    H158298   6.358   5.707  15.272 -1.1647 -0.3715 -0.4030
12269TIP3    H258299   6.482   5.622  15.251 -1.0968 -0.5422  0.6688
12270TIP3   OH258300   6.745   1.739  11.893 -0.0131  0.0046 -0.2725
12270TIP3    H158301   6.785   1.661  11.931  1.7950  0.2536 -1.5684
12270TIP3    H258302   6.651   1.720  11.890  0.2013 -1.3322  1.1762
12271TIP3   OH258303   6.696   3.519  16.906 -0.8484  0.0560  0.1755
12271TIP3    H158304   6.783   3.501  16.940 -1.2667 -0.6585  0.8851
12271TIP3    H258305   6.642   3.448  16.939 -1.7014  0.4868 -0.2661
12272TIP3   OH258306   6.108   2.780   5.597 -0.3379  0.9610  0.2775
12272TIP3    H158307   6.052   2.737   5.662 -0.6507  1.3312  0.2558
12272TIP3    H258308   6.083   2.740   5.514  2.4177 -1.9679  0.7555
12273TIP3   OH258309   6.210   4.044   2.121 -0.3822 -0.2182  0.0085
12273TIP3    H158310   6.262   4.089   2.054  0.5547 -1.5139 -0.1539
12273TIP3    H258311   6.274   4.012   2.184 -0.8969 -2.4526 -0.5665
12274TIP3   OH258312   2.085   0.015  15.247  0.1272  0.6845 -0.2333
12274TIP3    H158313   2.012  -0.045  15.238 -0.0727  0.8883  0.0074
12274TIP3    H258314   2.128  -0.013  15.328 -0.1531  1.0667  0.0472
12275TIP3   OH258315   4.719   3.335  16.343  0.0329 -0.1123 -0.6273
12275TIP3    H158316   4.676   3.374  16.267  0.6283 -0.6059 -1.2161
12275TIP3    H258317   4.669   3.256  16.362 -1.4204  1.1178  0.8132
12276TIP3   OH258318   0.795   6.208   6.695 -0.0709  0.2187 -0.5639
12276TIP3    H158319   0.738   6.273   6.736  0.4093  0.4035 -0.1710
12276TIP3    H258320   0.751   6.124   6.709 -0.9152  0.5147 -1.4685
12277TIP3   OH258321   0.320   1.775   0.103 -0.1285  0.6336  0.6402
12277TIP3    H158322   0.393   1.754   0.046 -0.0399 -0.4052  1.1221
12277TIP3    H258323   0.242   1.764   0.048  0.0490  1.3705  0.2365
12278TIP3   OH258324   6.814   0.510  13.878  0.0143 -0.1867 -0.4516
12278TIP3    H158325   6.803   0.584  13.818 -0.4356  1.7311  1.9008
12278TIP3    H258326   6.894   0.467  13.848  0.1870  1.1358 -1.9769
12279TIP3   OH258327   2.333   0.993   2.787  0.4410  0.5887 -0.0612
12279TIP3    H158328   2.291   1.050   2.722  0.6699 -0.0846 -0.8063
12279TIP3    H258329   2.426   1.013   2.780  0.3107  1.6626  1.1851
12280TIP3   OH258330   3.859   5.599   4.116  0.2920  0.2875  0.2080
12280TIP3    H158331   3.952   5.585   4.131  0.3484  1.0906  0.6038
12280TIP3    H258332   3.823   5.616   4.203 -0.2676 -0.2741  0.0892
12281TIP3   OH258333   6.622   1.718   2.154  0.5312 -0.5457  0.0179
12281TIP3    H158334   6.557   1.762   2.099  0.4200 -1.9027 -0.9621
12281TIP3    H258335   6.636   1.779   2.227 -0.2976  0.6888 -0.8216
12282TIP3   OH258336   0.246   6.248  14.386  0.0505 -0.2911 -0.1473
12282TIP3    H158337   0.248   6.286  14.474  1.9504 -0.9423  0.1214
12282TIP3    H258338   0.198   6.166  14.396  0.5279 -0.5139  0.3570
12283TIP3   OH258339   0.799   2.337   3.513  0.0723 -0.2193 -0.3257
12283TIP3    H158340   0.748   2.290   3.579 -0.9287 -0.9375 -1.5946
12283TIP3    H258341   0.875   2.281   3.497 -1.2882 -1.6045 -2.0843
12284TIP3   OH258342   2.023   1.092   0.518  0.1852  0.0503  0.6054
12284TIP3    H158343   2.005   1.018   0.460 -2.2383  1.4795 -0.5345
12284TIP3    H258344   2.108   1.126   0.488 -0.2124 -0.3074 -0.9949
12285TIP3   OH258345   3.396   5.227   1.994  0.1272  0.1066  0.9546
12285TIP3    H158346   3.432   5.250   2.080  0.4418  0.6878  0.6805
12285TIP3    H258347   3.462   5.168   1.956  0.7611  1.0818  0.4985
12286TIP3   OH258348   3.176   4.681   3.580 -0.0907 -0.1401 -0.5823
12286TIP3    H158349   3.098   4.629   3.565  0.3972 -1.3423  0.8695
12286TIP3    H258350   3.240   4.619   3.616  0.0753  1.6605  2.4706
12287TIP3   OH258351   6.670   3.094  11.875  0.8730 -0.8869 -0.3566
12287TIP3    H158352   6.724   3.016  11.887 -0.3118 -1.9351 -1.6853
12287TIP3    H258353   6.668   3.135  11.962  2.1631 -1.8935  0.1619
12288TIP3   OH258354   1.241   3.321  13.384  0.1962  0.1254  0.0129
12288TIP3    H158355   1.297   3.274  13.323 -0.0808  0.0214 -0.1611
12288TIP3    H258356   1.295   3.331  13.463  0.0340 -1.0541  0.2862
12289TIP3   OH258357   1.473   6.641  11.813 -0.3997  0.0206  0.5126
12289TIP3    H158358   1.414   6.715  11.823 -1.4764 -0.9027  1.0065
12289TIP3    H258359   1.475   6.624  11.719  3.1718  3.3462 -0.1271
12290TIP3   OH258360   4.182   3.541   3.474 -0.3083 -0.1695  0.4198
12290TIP3    H158361   4.117   3.489   3.426  2.4530 -1.0831 -2.5042
12290TIP3    H258362   4.248   3.478   3.502  0.5636  1.0823  1.2654
12291TIP3   OH258363   3.837   5.894  15.768 -0.2422  0.2558 -0.4178
12291TIP3    H158364   3.915   5.949  15.766  1.4029 -2.0619 -1.1301
12291TIP3    H258365   3.869   5.806  15.789 -2.5417 -0.9297 -1.6442
12292TIP3   OH258366   4.441   4.088  11.869  0.2319 -0.0589  0.4595
12292TIP3    H158367   4.376   4.062  11.802 -0.0379  0.5225  0.4929
12292TIP3    H258368   4.390   4.138  11.933  0.9733  1.6152 -0.2349
12293TIP3   OH258369   6.744   0.190  13.938  0.2764 -0.0555 -0.0698
12293TIP3    H158370   6.813   0.228  13.993 -0.2230 -0.0320  0.5507
12293TIP3    H258371   6.747   0.241  13.857 -0.8831  1.8267  1.0360
12294TIP3   OH258372   2.794   1.381   2.235 -0.9733 -0.2752 -0.6181
12294TIP3    H158373   2.741   1.307   2.204 -1.6642  0.3629 -0.9608
12294TIP3    H258374   2.865   1.389   2.171  0.4245 -2.0766  0.6323
12295TIP3   OH258375   0.190   2.861  16.978  0.4029 -0.4011  0.0691
12295TIP3    H158376   0.232   2.831  16.897  0.3562 -0.6486  0.1348
12295TIP3    H258377   0.213   2.794  17.042 -0.2935 -0.6628  0.0498
12296TIP3   OH258378   2.859   3.676   3.028  0.8714  0.0106  0.7488
12296TIP3    H158379   2.802   3.630   2.967  0.7765  0.8979  0.1673
12296TIP3    H258380   2.890   3.608   3.088  0.1611 -0.6782  0.3332
12297TIP3   OH258381   1.993   0.551  11.563  0.2060  0.5191  0.0683
12297TIP3    H158382   2.003   0.549  11.658 -0.9355  0.0448  0.1828
12297TIP3    H258383   1.977   0.460  11.539 -0.0905  0.7238 -0.5121
12298TIP3   OH258384   1.062   6.798   2.120 -0.1603  0.2058 -0.8651
12298TIP3    H158385   0.987   6.759   2.076 -0.9050 -0.1363  0.6983
12298TIP3    H258386   1.077   6.743   2.197  0.1189  1.7453  0.1970
12299TIP3   OH258387   4.563   6.175  10.979  0.0871 -0.2233 -0.2073
12299TIP3    H158388   4.510   6.098  10.960 -0.5418  0.2395 -0.3640
12299TIP3    H258389   4.511   6.248  10.947 -0.1129  0.4264  1.5270
12300TIP3   OH258390   5.982   6.416   4.195 -0.0994 -0.2305  0.2853
12300TIP3    H158391   5.973   6.323   4.173 -1.9251 -0.4319  1.8104
12300TIP3    H258392   5.924   6.461   4.133 -1.8101 -0.4188  1.7161
12301TIP3   OH258393   0.059   3.036   2.532 -0.7577 -0.2761 -0.1151
12301TIP3    H158394   0.114   3.007   2.605 -2.1716 -2.4811  0.1352
12301TIP3    H258395   0.074   2.971   2.464 -1.5294  0.2365 -0.7778
12302TIP3   OH258396   0.141   0.888  13.996  0.4242 -0.1907 -0.0474
12302TIP3    H158397   0.147   0.946  13.920  0.4296 -0.7581 -0.4786
12302TIP3    H258398   0.063   0.918  14.043  0.7232  0.5019  0.0155
12303TIP3   OH258399   3.198   5.800   3.757  0.2410 -0.5781 -0.1494
12303TIP3    H158400   3.106   5.777   3.744  0.4723 -1.3164 -0.5164
12303TIP3    H258401   3.239   5.720   3.789  0.7202 -0.2005  0.1863
12304TIP3   OH258402   5.151   3.572  11.866 -0.0969  0.4390 -0.0203
12304TIP3    H158403   5.241   3.566  11.898  0.0444  1.4818 -0.2212
12304TIP3    H258404   5.158   3.624  11.786 -0.5700 -1.3027 -1.2479
12305TIP3   OH258405   4.266   0.126  11.514  0.1362  0.3638 -0.7380
12305TIP3    H158406   4.203   0.059  11.539 -0.5967  0.9931 -0.8888
12305TIP3    H258407   4.245   0.145  11.422 -1.0022  2.2718 -0.1109
12306TIP3   OH258408   4.020   0.050  13.777  0.1454  0.7033 -0.3056
12306TIP3    H158409   4.072   0.130  13.786 -1.2246  1.2785  3.8016
12306TIP3    H258410   4.073  -0.018  13.816 -0.5823  0.5546  0.4463
12307TIP3   OH258411   6.363   3.024   3.380 -0.4674 -0.1831  0.1388
12307TIP3    H158412   6.315   3.068   3.309  0.1991  0.8447  0.3077
12307TIP3    H258413   6.389   3.095   3.439 -0.1836 -0.9221  0.9196
12308TIP3   OH258414   6.458   0.357  11.610  0.5949  0.0301  0.6123
12308TIP3    H158415   6.456   0.300  11.687  1.8509 -1.3536 -0.3476
12308TIP3    H258416   6.541   0.336  11.566  0.8920  2.3066 -0.0006
12309TIP3   OH258417   1.742   0.674  14.684  0.3647  0.3567 -0.0272
12309TIP3    H158418   1.728   0.769  14.685  2.7468  0.7370  0.3143
12309TIP3    H258419   1.831   0.663  14.719  0.9483 -1.8355 -2.0960
12310TIP3   OH258420   1.776   0.307  10.838  0.0548  0.1903  0.0488
12310TIP3    H158421   1.704   0.342  10.891 -0.4983 -0.2215 -0.4242
12310TIP3    H258422   1.812   0.383  10.794 -0.6906  0.2642 -0.4332
12311TIP3   OH258423   0.823   3.704  13.836  0.4192 -0.5292 -0.3587
12311TIP3    H158424   0.912   3.737  13.845  0.5067 -0.9038  0.1999
12311TIP3    H258425   0.805   3.708  13.742 -0.1108  2.4705 -0.1662
12312TIP3   OH258426   0.527   6.208   2.562 -0.0733  0.1703  0.1800
12312TIP3    H158427   0.473   6.181   2.488  0.1445  0.4781 -0.0979
12312TIP3    H258428   0.465   6.235   2.629 -0.2773 -0.4596  0.2440
12313TIP3   OH258429   3.359   2.480   3.399  0.3112  0.0576  0.4523
12313TIP3    H158430   3.428   2.544   3.415 -1.2091  1.7031  0.5115
12313TIP3    H258431   3.279   2.532   3.389 -0.9501 -1.8196  0.4789
12314TIP3   OH258432   5.747   2.176  13.893  0.1248  0.6821  0.5178
12314TIP3    H158433   5.816   2.128  13.848  0.0389  0.9403  0.1038
12314TIP3    H258434   5.792   2.222  13.964  0.3344  0.6401  0.4121
12315TIP3   OH258435   4.943   3.575   1.806  0.4010  0.0512  0.4045
12315TIP3    H158436   5.022   3.574   1.753  1.3617  1.5472  1.7680
12315TIP3    H258437   4.888   3.643   1.768 -0.1867 -0.8822 -0.4473
12316TIP3   OH258438   6.323   4.453  13.072  0.0695 -0.5078 -0.1190
12316TIP3    H158439   6.322   4.518  13.001  0.6803 -0.8575 -0.4507
12316TIP3    H258440   6.232   4.446  13.099  0.1479  1.3210  0.6664
12317TIP3   OH258441   1.467   3.020  14.919 -0.2548  0.1848  0.0871
12317TIP3    H158442   1.386   3.011  14.868 -0.3052 -0.1122  0.2164
12317TIP3    H258443   1.470   3.112  14.943 -0.3581  0.2765 -0.2469
12318TIP3   OH258444   5.585   2.413  15.283 -0.2206  0.3398 -0.3918
12318TIP3    H158445   5.658   2.475  15.281 -0.6891  0.9051  0.4326
12318TIP3    H258446   5.579   2.381  15.192  3.0243 -2.0155  0.1192
12319TIP3   OH258447   4.183   5.226  13.338  0.4201  0.6044  0.0325
12319TIP3    H158448   4.223   5.311  13.320 -0.8285  1.4548  1.2023
12319TIP3    H258449   4.216   5.202  13.425 -0.1122  0.4229  0.1848
12320TIP3   OH258450   5.500   4.917   4.770 -0.7724 -0.1350  0.2207
12320TIP3    H158451   5.434   4.857   4.733 -1.1331  0.5374 -0.2396
12320TIP3    H258452   5.508   4.986   4.704 -0.0880  0.1287  0.5860
12321TIP3   OH258453   1.517   6.154  11.280 -0.7265  0.1980 -0.0495
12321TIP3    H158454   1.481   6.215  11.216  0.3636  0.2083 -0.6718
12321TIP3    H258455   1.532   6.073  11.230  0.8523  0.4526 -0.0093
12322TIP3   OH258456   5.351   3.631  14.213  0.5293  0.6483 -0.1809
12322TIP3    H158457   5.418   3.594  14.155  0.6735  1.2246 -0.3837
12322TIP3    H258458   5.368   3.725  14.212  1.0180  0.5889  1.3947
12323TIP3   OH258459   5.954   3.551   4.041  0.6417 -0.0546  0.2836
12323TIP3    H158460   5.868   3.568   4.080  0.9375  2.3089 -0.0027
12323TIP3    H258461   5.934   3.512   3.956 -0.0737 -1.9464  1.2894
12324TIP3   OH258462   6.614   1.532  15.252 -0.0443  1.0657  1.0819
12324TIP3    H158463   6.694   1.577  15.279  1.0826 -0.5072  0.4592
12324TIP3    H258464   6.555   1.602  15.224  1.1043  2.2457  1.5762
12325TIP3   OH258465   4.907   2.392  17.237  0.4788 -0.6247 -0.1187
12325TIP3    H158466   4.931   2.341  17.315  0.1399  1.9365  1.7236
12325TIP3    H258467   4.991   2.410  17.194  0.9439  0.0506  1.0314
12326TIP3   OH258468   3.627   0.955  16.439  0.3223  0.4026  0.3641
12326TIP3    H158469   3.544   0.928  16.401 -0.1483  1.0330  0.9344
12326TIP3    H258470   3.685   0.967  16.364  0.0569 -0.5530  0.0037
12327TIP3   OH258471   0.442   4.659  13.226  0.3957 -0.1978 -0.5802
12327TIP3    H158472   0.445   4.611  13.308 -0.1851  0.0236 -0.4265
12327TIP3    H258473   0.375   4.726  13.240 -0.5952 -0.9561 -1.6714
12328TIP3   OH258474   0.310   5.879   1.202  0.4056 -0.0247 -0.2477
12328TIP3    H158475   0.287   5.926   1.282 -0.7622 -0.3243 -0.4017
12328TIP3    H258476   0.311   5.947   1.134  2.0885  0.3542  0.1254
12329TIP3   OH258477   3.199   1.224  16.790  0.1803  0.5221  0.0169
12329TIP3    H158478   3.174   1.226  16.698  1.6917  2.8486 -0.4023
12329TIP3    H258479   3.265   1.155  16.795 -0.8469 -0.4860 -0.3916
12330TIP3   OH258480   5.001   0.081   0.173 -0.0237  0.3901 -0.2886
12330TIP3    H158481   4.988   0.002   0.225 -0.9076  1.4132  1.1205
12330TIP3    H258482   5.084   0.068   0.129  1.2996 -0.0967  2.2312
12331TIP3   OH258483   2.687   5.531  15.274 -0.2480  0.3153  0.0382
12331TIP3    H158484   2.610   5.519  15.330  0.6769 -1.0419  1.0550
12331TIP3    H258485   2.762   5.525  15.334  0.7442 -0.5592 -1.2528
12332TIP3   OH258486   6.322   1.077  11.059 -0.0291  0.1283  0.7210
12332TIP3    H158487   6.293   0.987  11.044  1.3086 -0.6393  2.5869
12332TIP3    H258488   6.241   1.127  11.069 -0.8041 -0.6635 -1.2991
12333TIP3   OH258489   6.115   4.511  15.193 -0.2794  0.3936  0.4908
12333TIP3    H158490   6.195   4.470  15.228 -0.2051 -0.4061 -0.6125
12333TIP3    H258491   6.111   4.483  15.102 -1.1194  1.5115  0.1674
12334TIP3   OH258492   2.413   2.256  12.816  1.1015  0.0286 -0.5633
12334TIP3    H158493   2.377   2.320  12.877  0.4541 -0.9721  0.1009
12334TIP3    H258494   2.398   2.295  12.729 -1.2618 -0.2162 -0.2865
12335TIP3   OH258495   1.904   2.977  15.830  0.0842 -0.3385 -0.1110
12335TIP3    H158496   1.864   3.003  15.912  3.3086 -0.2361  1.5038
12335TIP3    H258497   1.890   2.882  15.825 -1.1032 -0.1768 -0.0341
12336TIP3   OH258498   3.282   4.261  11.432  0.8357  0.2107 -0.0484
12336TIP3    H158499   3.268   4.290  11.522 -0.6370 -1.0002  0.1322
12336TIP3    H258500   3.214   4.195  11.417  1.3282  0.0926 -1.9074
12337TIP3   OH258501   0.905   6.056   3.906  0.4187  0.4384  0.3238
12337TIP3    H158502   0.981   6.106   3.874 -0.9375  1.1049 -1.9829
12337TIP3    H258503   0.869   6.110   3.977  0.5343  1.4392 -0.3664
12338TIP3   OH258504   1.720   1.086   4.239  0.5356  0.2768 -0.4135
12338TIP3    H158505   1.807   1.105   4.203  0.2971  0.4801 -0.8861
12338TIP3    H258506   1.720   1.129   4.324  1.0983 -0.1903 -0.1708
12339TIP3   OH258507   3.438   1.742   0.524  0.1228  0.3713  0.0983
12339TIP3    H158508   3.419   1.836   0.533  0.4164  0.5045 -0.6197
12339TIP3    H258509   3.494   1.737   0.447  1.4309 -0.2140  1.0627
12340TIP3   OH258510   1.407   1.784  16.682  0.4326  0.8311 -0.4278
12340TIP3    H158511   1.339   1.777  16.615  2.0403 -0.5226 -1.9847
12340TIP3    H258512   1.365   1.828  16.756 -2.0905  0.0650 -1.3815
12341TIP3   OH258513   5.137   4.675   3.274 -0.2863 -0.0430  0.2922
12341TIP3    H158514   5.156   4.611   3.204 -2.6609 -0.6082  0.1367
12341TIP3    H258515   5.220   4.682   3.322  1.6849  0.9736 -3.0294
12342TIP3   OH258516   4.748   1.043  11.944 -0.1974 -0.3627  0.0883
12342TIP3    H158517   4.732   1.136  11.929 -1.2826 -0.6854 -0.7910
12342TIP3    H258518   4.752   1.004  11.857 -0.5956 -1.2777  0.4721
12343TIP3   OH258519   4.999   1.294  13.318  0.3211  0.2753  0.0042
12343TIP3    H158520   4.904   1.291  13.309  0.4192 -1.1816 -0.5243
12343TIP3    H258521   5.017   1.244  13.397  0.6249  1.0194  0.4190
12344TIP3   OH258522   5.400   2.940   2.081 -0.3680  0.2580 -0.0272
12344TIP3    H158523   5.362   2.885   2.150 -0.0346 -0.3399 -0.3141
12344TIP3    H258524   5.370   2.900   1.999 -0.3483  0.6655 -0.2308
12345TIP3   OH258525   1.998   0.764  13.114  0.1008  0.3600  0.5144
12345TIP3    H158526   1.931   0.699  13.092  1.1551 -0.3951 -0.5238
12345TIP3    H258527   1.969   0.801  13.197 -2.9970  1.8992 -1.1429
12346TIP3   OH258528   4.271   0.799   1.135  0.4994  0.2835  0.2734
12346TIP3    H158529   4.362   0.786   1.108  0.6755 -0.4391  1.1756
12346TIP3    H258530   4.219   0.774   1.059  1.0564  0.7075 -0.2501
12347TIP3   OH258531   1.456   4.290   6.544 -0.2120 -0.0335  0.4162
12347TIP3    H158532   1.472   4.355   6.476 -2.3970  0.7595  0.6340
12347TIP3    H258533   1.397   4.226   6.504  0.3209 -0.8083  0.8490
12348TIP3   OH258534   2.789   0.232  14.216 -0.7572  0.3241 -0.3084
12348TIP3    H158535   2.733   0.304  14.243  1.7551  1.2136  2.7687
12348TIP3    H258536   2.871   0.273  14.189  0.6115 -1.3170  1.2137
12349TIP3   OH258537   2.737   3.182   0.635 -0.0102  0.3091  0.2502
12349TIP3    H158538   2.807   3.184   0.569  0.1453  0.4101  0.4185
12349TIP3    H258539   2.779   3.147   0.714 -0.3221 -0.2925  0.1505
12350TIP3   OH258540   5.161   4.455   3.087  0.7123 -0.9199 -0.1541
12350TIP3    H158541   5.245   4.486   3.052  0.1813 -0.1747 -0.7503
12350TIP3    H258542   5.156   4.364   3.057  0.5047 -0.4460 -1.5621
12351TIP3   OH258543   4.011   5.581   2.086  0.1684 -0.6740 -0.2263
12351TIP3    H158544   4.072   5.615   2.151  0.4316 -0.4840 -0.5676
12351TIP3    H258545   4.057   5.506   2.047  0.1199 -0.6244 -0.3781
12352TIP3   OH258546   6.392   2.234  12.950  0.3622 -0.5577  0.4629
12352TIP3    H158547   6.362   2.229  13.040  0.0570 -0.1877  0.3803
12352TIP3    H258548   6.321   2.196  12.898 -1.1625  2.8014  0.0108
12353TIP3   OH258549   6.695   2.900   2.191 -0.1673 -0.0827  0.0828
12353TIP3    H158550   6.657   2.835   2.132 -2.9323  1.0931  0.5019
12353TIP3    H258551   6.705   2.978   2.137 -2.3741  0.8889  1.0125
12354TIP3   OH258552   3.338   2.513  15.344 -0.2153  0.0991 -0.3820
12354TIP3    H158553   3.427   2.478  15.348 -0.1684 -0.4540 -4.0598
12354TIP3    H258554   3.316   2.533  15.434  2.4302 -2.8083  1.0223
12355TIP3   OH258555   4.149   3.937   2.664 -0.2220  0.3531  0.1446
12355TIP3    H158556   4.203   3.869   2.704  1.7649  1.6484 -0.2108
12355TIP3    H258557   4.121   3.900   2.580 -0.0536 -0.4274  0.4300
12356TIP3   OH258558   5.458   6.267  15.447  0.0231 -0.0853  0.2289
12356TIP3    H158559   5.448   6.173  15.466 -0.2243  0.0119  0.5717
12356TIP3    H258560   5.411   6.311  15.517  0.4238  0.3062  0.2499
12357TIP3   OH258561   3.488   5.175  13.159 -0.0958 -0.4895 -1.0569
12357TIP3    H158562   3.571   5.149  13.198  0.3059 -1.7148 -2.6644
12357TIP3    H258563   3.423   5.155  13.227  0.8343 -0.2152 -0.0753
12358TIP3   OH258564   4.976   2.564   0.265  0.0042 -0.0094  0.9973
12358TIP3    H158565   5.026   2.559   0.346  0.4139  1.0684  0.8151
12358TIP3    H258566   5.042   2.572   0.196 -0.3412 -0.9335  0.5444
12359TIP3   OH258567   1.736   5.734  12.524 -0.1453  0.9863  0.5674
12359TIP3    H158568   1.814   5.779  12.556 -0.8231  2.7504 -0.2235
12359TIP3    H258569   1.663   5.786  12.556 -0.9740 -0.0504  0.3809
12360TIP3   OH258570   3.118   1.106   5.714 -0.0903  0.1589 -0.5265
12360TIP3    H158571   3.070   1.059   5.646 -0.5254  1.0356 -0.8254
12360TIP3    H258572   3.051   1.144   5.770  0.2556  0.6640 -0.4485
12361TIP3   OH258573   3.226   5.986  15.173  0.0663  0.2690 -0.0943
12361TIP3    H158574   3.210   6.070  15.130  1.1167  0.9936  0.8933
12361TIP3    H258575   3.156   5.929  15.141 -2.2201  2.2350  1.2113
12362TIP3   OH258576   0.756   4.373  15.388  0.0672  0.0694  0.0760
12362TIP3    H158577   0.808   4.430  15.444 -1.1896  1.2545  0.0626
12362TIP3    H258578   0.701   4.322  15.448 -0.0776  0.1469  0.0117
12363TIP3   OH258579   5.847   3.137  16.829 -0.0787  0.0374 -0.1326
12363TIP3    H158580   5.919   3.187  16.792 -1.2624  0.9085 -1.3088
12363TIP3    H258581   5.876   3.046  16.824  0.6618  0.3251 -1.2159
12364TIP3   OH258582   0.509   0.492  14.388  0.0520 -0.3474  0.2027
12364TIP3    H158583   0.425   0.465  14.349 -0.7305 -0.1885  1.7628
12364TIP3    H258584   0.488   0.510  14.479  2.3188 -2.8389  1.2618
12365TIP3   OH258585   2.643   5.056   0.908  0.0982 -0.5147  0.1765
12365TIP3    H158586   2.663   5.105   0.987  2.4157  0.4513 -0.9713
12365TIP3    H258587   2.578   5.110   0.862 -1.6974 -1.3576  1.6430
12366TIP3   OH258588   0.271   5.446  16.741 -0.5957  0.3472 -0.0411
12366TIP3    H158589   0.202   5.468  16.678 -0.8407 -1.6988 -0.5144
12366TIP3    H258590   0.246   5.361  16.776  2.0437 -0.7905 -0.7575
12367TIP3   OH258591   4.820   5.256  17.258 -0.1911 -0.7932  0.1813
12367TIP3    H158592   4.829   5.280  17.350  0.5030 -1.0408  0.1869
12367TIP3    H258593   4.903   5.284  17.218  0.4744 -2.7712  0.0962
12368TIP3   OH258594   2.191   6.202  13.729  0.0744 -0.2022 -0.2625
12368TIP3    H158595   2.219   6.252  13.652  0.6927  2.8585  1.8425
12368TIP3    H258596   2.273   6.183  13.775 -0.5287  1.0435  1.3786
12369TIP3   OH258597   5.818   0.276   6.278  0.3414 -0.0809 -0.3369
12369TIP3    H158598   5.894   0.333   6.291  1.5389 -2.0202  1.3683
12369TIP3    H258599   5.848   0.210   6.216  0.5019 -1.5986  1.3070
12370TIP3   OH258600   2.170   0.155  11.418 -0.4800 -0.3475 -0.6967
12370TIP3    H158601   2.242   0.161  11.481 -1.8477  1.8208  0.6984
12370TIP3    H258602   2.097   0.200  11.460 -1.3941  1.2351 -3.8541
12371TIP3   OH258603   1.904   6.443   4.011  0.0203  0.4403  0.1918
12371TIP3    H158604   1.860   6.465   3.929 -1.6296  2.8724  1.6327
12371TIP3    H258605   1.972   6.510   4.020  0.0234  0.3512  0.8888
12372TIP3   OH258606   2.430   0.745   2.197 -0.0636  0.0106 -0.3373
12372TIP3    H158607   2.479   0.693   2.261  0.8847 -0.4417 -1.4252
12372TIP3    H258608   2.481   0.738   2.116 -1.7304 -0.1492 -1.3880
12373TIP3   OH258609   1.188   1.394  14.516 -0.1695  0.1603  0.0556
12373TIP3    H158610   1.152   1.349  14.440  0.7915 -0.9357  0.2271
12373TIP3    H258611   1.211   1.481  14.485 -0.6664  0.0346 -0.6646
12374TIP3   OH258612   0.551   0.397  13.057  0.2984  0.2038  0.7665
12374TIP3    H158613   0.484   0.406  13.125  0.0938  1.5488  0.4023
12374TIP3    H258614   0.530   0.314  13.014  0.2502 -0.5091  2.1492
12375TIP3   OH258615   2.774   6.049  16.410 -0.2923  0.1221  0.3034
12375TIP3    H158616   2.780   6.132  16.364 -0.9977  0.0226  0.0232
12375TIP3    H258617   2.686   6.017  16.390 -1.4331  1.0908  3.4620
12376TIP3   OH258618   1.258   1.009   5.469  0.1033 -0.2322  0.7111
12376TIP3    H158619   1.301   0.968   5.544  0.2608 -0.4537  0.5011
12376TIP3    H258620   1.298   0.968   5.393  0.1683  0.2268  0.4980
12377TIP3   OH258621   6.266   3.888   1.197 -0.4143 -0.8250  0.3157
12377TIP3    H158622   6.284   3.830   1.271 -0.2384  0.5605  1.4038
12377TIP3    H258623   6.352   3.915   1.166 -0.4861  0.5191  1.2108
12378TIP3   OH258624   1.333   1.649   4.758 -0.1708  0.2933  0.0875
12378TIP3    H158625   1.414   1.693   4.731 -0.5768  0.1488 -1.3702
12378TIP3    H258626   1.329   1.664   4.853 -0.1994  3.2886 -0.3378
12379TIP3   OH258627   5.532   1.346   3.684  0.3740 -0.2418 -0.0681
12379TIP3    H158628   5.461   1.297   3.726 -0.4104  1.0687  0.1335
12379TIP3    H258629   5.564   1.286   3.616 -1.1944 -0.6954 -0.4407
12380TIP3   OH258630   6.268   5.746   6.010 -0.0240  0.5173 -0.2985
12380TIP3    H158631   6.331   5.807   6.046 -0.0439  1.3426 -1.6427
12380TIP3    H258632   6.187   5.765   6.057  0.1552  1.0093 -0.1856
12381TIP3   OH258633   4.966   5.913   2.912 -0.3248 -0.2056 -0.3964
12381TIP3    H158634   4.912   5.860   2.970 -2.4280 -0.2999 -2.3741
12381TIP3    H258635   4.973   5.998   2.956  0.4181 -1.1420  1.2895
12382TIP3   OH258636   3.901   6.009   2.473 -0.3361 -0.6793 -0.4244
12382TIP3    H158637   3.966   5.953   2.516 -0.0716 -0.1121 -0.0773
12382TIP3    H258638   3.879   6.075   2.538  0.2546  0.3449 -1.2389
12383TIP3   OH258639   4.984   1.021  14.364 -0.2950  0.0913 -0.1640
12383TIP3    H158640   4.997   1.106  14.322 -1.5361  1.6615  2.4654
12383TIP3    H258641   5.046   1.022  14.437 -1.7090 -0.4071  1.0635
12384TIP3   OH258642   3.003   5.190   0.232  0.0594 -0.4544  0.1870
12384TIP3    H158643   2.960   5.176   0.317 -0.1243  1.5826  0.4479
12384TIP3    H258644   2.935   5.170   0.168 -0.8647  1.2424  0.5857
12385TIP3   OH258645   3.256   6.205  16.364 -0.6152 -0.6070  0.0192
12385TIP3    H158646   3.164   6.182  16.357 -0.7995 -0.1779  0.9318
12385TIP3    H258647   3.256   6.295  16.397  0.1169 -0.0850 -1.3625
12386TIP3   OH258648   6.417   3.261   1.507  0.2888 -0.3796  0.3023
12386TIP3    H158649   6.392   3.175   1.540  1.3710 -0.6805  0.3468
12386TIP3    H258650   6.353   3.279   1.437  0.7674 -1.7358 -0.5123
12387TIP3   OH258651   1.242   0.151  13.632  0.2448  0.0904 -0.1882
12387TIP3    H158652   1.234   0.157  13.537 -1.2493 -1.0828 -0.1592
12387TIP3    H258653   1.331   0.120  13.647  0.1522 -0.7154 -1.2499
12388TIP3   OH258654   0.676   1.783  14.484  0.1921  0.4382 -0.3324
12388TIP3    H158655   0.681   1.762  14.391 -0.8247  0.2356 -0.3496
12388TIP3    H258656   0.619   1.715  14.521  3.3847 -1.6312  1.0929
12389TIP3   OH258657   4.524   1.450  10.291  0.0893 -0.7036 -0.4084
12389TIP3    H158658   4.605   1.434  10.339 -1.6759 -0.8925  2.6504
12389TIP3    H258659   4.525   1.544  10.273  0.7669 -0.6290  0.0193
12390TIP3   OH258660   3.901   2.921  10.497  0.0095  0.1961  0.3421
12390TIP3    H158661   3.853   2.974  10.433 -0.1462  0.1362  0.4106
12390TIP3    H258662   3.918   2.838  10.452  0.7315  0.5023  0.0307
12391TIP3   OH258663   5.222   2.296   1.232  0.1070 -0.0637  0.3819
12391TIP3    H158664   5.280   2.345   1.290 -0.8707  1.5545  0.0283
12391TIP3    H258665   5.188   2.362   1.171 -1.9865 -0.9877  0.5192
12392TIP3   OH258666   5.222   2.902   2.689  0.1329  0.1285  0.3847
12392TIP3    H158667   5.268   2.903   2.773  0.9268  1.0491 -0.0490
12392TIP3    H258668   5.159   2.973   2.696  0.1384  0.1472  0.2244
12393TIP3   OH258669   1.677   4.844  13.421  0.6745 -0.0016  0.2080
12393TIP3    H158670   1.641   4.815  13.505  0.2109  1.0551  0.3804
12393TIP3    H258671   1.669   4.939  13.423  1.8907  0.1227 -0.4851
12394TIP3   OH258672   4.744   0.011   4.806 -0.0064 -0.3741 -0.2203
12394TIP3    H158673   4.762   0.049   4.720  0.6702  0.6103  0.3423
12394TIP3    H258674   4.812   0.047   4.863 -0.4578 -0.9985  0.7339
12395TIP3   OH258675   4.658   2.412   0.307  0.7792  0.6306  0.6191
12395TIP3    H158676   4.697   2.481   0.361 -0.5958 -0.1364  2.6206
12395TIP3    H258677   4.696   2.331   0.341  2.4226  0.3553 -1.7522
12396TIP3   OH258678   6.117   1.496   3.353  0.3922 -0.0797 -0.1298
12396TIP3    H158679   6.071   1.487   3.436  0.1187 -0.9102 -0.3593
12396TIP3    H258680   6.047   1.512   3.289  0.6371  0.9315 -0.1436
12397TIP3   OH258681   5.152   6.075  15.202 -0.2557  0.4266  0.0088
12397TIP3    H158682   5.117   6.097  15.288  0.1711  1.3011 -0.0268
12397TIP3    H258683   5.189   6.158  15.170  0.7107 -0.1815 -0.4780
12398TIP3   OH258684   4.144   5.467   2.477 -0.5296 -1.0011 -0.5418
12398TIP3    H158685   4.068   5.430   2.432  0.0769 -1.4516 -1.2229
12398TIP3    H258686   4.212   5.401   2.467 -0.1613 -0.7667  0.3979
12399TIP3   OH258687   6.659   5.213   2.459 -0.1181  0.2222 -0.3922
12399TIP3    H158688   6.643   5.295   2.411 -0.7335  1.6444  2.1574
12399TIP3    H258689   6.738   5.230   2.509 -1.6574  0.1832  2.1111
12400TIP3   OH258690   6.627   4.438  11.082  0.3120 -0.1783  0.1756
12400TIP3    H158691   6.596   4.432  10.992 -0.5878 -0.7087  0.5098
12400TIP3    H258692   6.713   4.480  11.076  1.7925 -3.2547 -1.2759
12401TIP3   OH258693   0.497   1.272   3.669 -0.2045 -0.1767 -0.1126
12401TIP3    H158694   0.423   1.227   3.629 -0.0672  1.0562 -1.8284
12401TIP3    H258695   0.495   1.360   3.632  0.4828  0.7453  1.9530
12402TIP3   OH258696   6.546   1.311   1.023 -0.7798 -0.6913 -0.2795
12402TIP3    H158697   6.586   1.389   0.983 -0.8294 -1.4226 -1.7819
12402TIP3    H258698   6.523   1.256   0.949 -0.3921 -2.3182  0.7937
12403TIP3   OH258699   5.731   0.726   0.959  0.5574 -0.1624  0.1557
12403TIP3    H158700   5.647   0.699   0.922  0.5398  0.9413 -0.6222
12403TIP3    H258701   5.739   0.818   0.936  2.7257 -0.6534 -1.2290
12404TIP3   OH258702   2.506   0.600   6.110 -0.2544 -0.3174 -0.5578
12404TIP3    H158703   2.422   0.632   6.080 -0.6711 -0.5512  0.3562
12404TIP3    H258704   2.558   0.590   6.030 -1.3449 -0.9066 -1.1979
12405TIP3   OH258705   0.002   4.726  13.974 -0.2767  0.4894  0.2009
12405TIP3    H158706   0.009   4.668  14.049 -1.0670  1.3859  0.9875
12405TIP3    H258707  -0.085   4.709  13.938 -0.0989  0.4277 -0.2047
12406TIP3   OH258708   5.617   4.560  11.618  0.2082 -0.6570  0.5290
12406TIP3    H158709   5.602   4.595  11.530 -1.6028  2.3128  1.9216
12406TIP3    H258710   5.547   4.496  11.631 -1.2344  0.9354  0.7973
12407TIP3   OH258711   4.009   3.607  11.479  0.1234  0.2752 -0.0129
12407TIP3    H158712   3.914   3.621  11.485  0.1294  0.0107  0.7732
12407TIP3    H258713   4.019   3.512  11.473  0.3457  0.2968  0.0295
12408TIP3   OH258714   6.273   1.414   1.283 -0.0648 -0.6043  0.2712
12408TIP3    H158715   6.273   1.480   1.214 -0.6846 -0.0403  0.8076
12408TIP3    H258716   6.330   1.344   1.250  0.5924  0.1985 -0.2958
12409TIP3   OH258717   0.354   5.462   6.114  0.0518 -0.0545 -0.4745
12409TIP3    H158718   0.328   5.374   6.140 -1.6452  0.9746  1.4072
12409TIP3    H258719   0.284   5.519   6.146  0.2733  1.8307 -3.1293
12410TIP3   OH258720   4.397   1.229   5.797 -0.1793 -0.1084  0.4233
12410TIP3    H158721   4.448   1.281   5.860  1.2899 -0.2095 -0.6613
12410TIP3    H258722   4.333   1.290   5.762  0.9369  0.7511 -0.1597
12411TIP3   OH258723   5.128   3.221  13.274  0.2386 -0.2412 -0.1281
12411TIP3    H158724   5.166   3.157  13.334 -0.2942 -1.0673 -0.6487
12411TIP3    H258725   5.141   3.306  13.317  1.8992 -0.5906  0.0718
12412TIP3   OH258726   4.845   6.315   4.371 -0.1952 -0.3960  0.5030
12412TIP3    H158727   4.831   6.221   4.375 -1.8603 -0.1619  0.6016
12412TIP3    H258728   4.931   6.329   4.411 -0.4896 -1.7367  1.6274
12413TIP3   OH258729   0.458   2.787   2.584 -0.6718  0.2126 -0.4689
12413TIP3    H158730   0.527   2.805   2.521 -1.1564 -2.2213 -1.7713
12413TIP3    H258731   0.499   2.800   2.670  0.9174  0.4014 -1.2437
12414TIP3   OH258732   4.801   4.306   5.689 -0.3946 -0.0139  0.2279
12414TIP3    H158733   4.876   4.337   5.741  0.2030 -1.1377  0.0525
12414TIP3    H258734   4.779   4.222   5.729 -0.5620 -0.4208 -0.7325
12415TIP3   OH258735   2.135   0.501  15.784 -0.2512  0.5463 -0.6872
12415TIP3    H158736   2.072   0.547  15.729 -1.2597 -1.3043 -1.1179
12415TIP3    H258737   2.215   0.498  15.732 -0.6066  0.5557 -1.2397
12416TIP3   OH258738   2.626   4.244  15.513  0.2385  0.1100 -0.1206
12416TIP3    H158739   2.670   4.230  15.429  0.8984  0.3623  0.1789
12416TIP3    H258740   2.540   4.279  15.489  0.1791 -0.4285 -0.7132
12417TIP3   OH258741   6.687   5.115  12.809  0.2929  0.4986  0.0652
12417TIP3    H158742   6.702   5.029  12.770  0.4443 -0.5862  2.4112
12417TIP3    H258743   6.729   5.177  12.748 -0.9329 -0.9401 -2.2965
12418TIP3   OH258744   2.606   3.096  13.739 -0.5330  0.3452 -0.1036
12418TIP3    H158745   2.621   3.003  13.724 -0.4917  0.2265  0.6773
12418TIP3    H258746   2.664   3.140  13.677 -0.6040 -0.1498 -0.5229
12419TIP3   OH258747   0.380   6.308  13.531  0.3556  0.2263 -0.0853
12419TIP3    H158748   0.352   6.313  13.439 -0.1747  1.7434  0.1366
12419TIP3    H258749   0.341   6.385  13.572  4.5226  2.3129  0.3223
12420TIP3   OH258750   3.890   2.016   2.889 -0.6836  0.0090  0.2181
12420TIP3    H158751   3.949   1.941   2.882 -1.2514 -0.3317 -1.0672
12420TIP3    H258752   3.947   2.090   2.910 -0.0682 -0.6863  1.0621
12421TIP3   OH258753   0.417   1.350  12.783 -0.2186 -0.3069 -0.2155
12421TIP3    H158754   0.475   1.426  12.780 -2.4357  1.5643  1.4297
12421TIP3    H258755   0.386   1.340  12.693  0.8259  0.1696 -0.6291
12422TIP3   OH258756   0.086   2.746   0.628 -0.7318  0.2366 -0.3979
12422TIP3    H158757   0.091   2.736   0.533  0.6794  1.2425 -0.4416
12422TIP3    H258758   0.144   2.820   0.648  2.3450 -2.5855  1.6868
12423TIP3   OH258759   2.168   4.641  14.746  0.1247 -0.2387 -0.7201
12423TIP3    H158760   2.087   4.601  14.713 -0.5930  0.5224  0.0802
12423TIP3    H258761   2.174   4.611  14.837 -1.7531  3.3376  0.7128
12424TIP3   OH258762   2.660   1.619  13.216  0.3147  0.9604  0.2225
12424TIP3    H158763   2.664   1.622  13.311  0.1073 -0.8479  0.3054
12424TIP3    H258764   2.751   1.609  13.187  0.1336 -1.3882  0.3784
12425TIP3   OH258765   1.456   1.706  15.019  0.6316 -0.1770  0.2184
12425TIP3    H158766   1.552   1.702  15.011  0.6428 -1.1175  0.7678
12425TIP3    H258767   1.424   1.685  14.932  0.9334  1.6195 -0.3640
12426TIP3   OH258768   6.804   1.181  14.172 -0.2478  0.7212  0.1536
12426TIP3    H158769   6.871   1.148  14.232  0.2440  0.4016 -0.5595
12426TIP3    H258770   6.788   1.271  14.199 -0.1336  0.5292  0.8532
12427TIP3   OH258771   4.191   1.906   4.223 -0.3801 -0.3898 -0.2279
12427TIP3    H158772   4.258   1.866   4.278 -1.1010 -0.9942  0.2010
12427TIP3    H258773   4.237   1.927   4.141  1.0858  1.9222  1.1193
12428TIP3   OH258774   6.617   3.472   1.857  0.7222  0.3185 -0.1138
12428TIP3    H158775   6.640   3.412   1.927  1.5776  1.4093  0.5631
12428TIP3    H258776   6.571   3.544   1.900  1.7215  1.2594 -0.5672
12429TIP3   OH258777   3.660   0.107   2.025 -0.0860 -0.0148  0.2585
12429TIP3    H158778   3.604   0.184   2.020  0.4227  0.2338 -2.6335
12429TIP3    H258779   3.611   0.039   1.978  1.2278 -0.3052 -0.7026
12430TIP3   OH258780   0.185   3.253  13.421 -0.4084 -0.5629  0.3833
12430TIP3    H158781   0.126   3.309  13.472  0.6849  1.5875 -0.6616
12430TIP3    H258782   0.261   3.241  13.477 -0.4589 -0.6729  0.4293
12431TIP3   OH258783   0.575   3.762   4.133  0.9923  0.0281  0.0534
12431TIP3    H158784   0.668   3.788   4.136  0.1965  3.4762 -1.8085
12431TIP3    H258785   0.555   3.759   4.039 -1.1295  0.7682  0.4704
12432TIP3   OH258786   1.573   5.363  15.557  0.3324  0.5263 -0.2642
12432TIP3    H158787   1.499   5.421  15.576 -0.0030  0.1354 -0.3832
12432TIP3    H258788   1.581   5.307  15.634 -2.5346 -2.6743 -2.1529
12433TIP3   OH258789   0.725   4.204  11.543  0.0942 -0.6667 -0.0693
12433TIP3    H158790   0.686   4.275  11.593  1.8053  0.4050 -0.2317
12433TIP3    H258791   0.759   4.245  11.464  1.5798 -1.5698  0.0876
12434TIP3   OH258792   3.360   4.898  16.838  0.3416 -0.3323 -0.1067
12434TIP3    H158793   3.271   4.870  16.820  0.0391 -1.3112  2.6680
12434TIP3    H258794   3.353   4.993  16.850 -0.2010 -0.3165 -0.5310
12435TIP3   OH258795   0.300   5.054   2.104  0.1310 -0.0115  0.0829
12435TIP3    H158796   0.344   4.971   2.121 -0.4224 -0.2109  0.5454
12435TIP3    H258797   0.268   5.047   2.014  0.0549 -0.3126  0.1343
12436TIP3   OH258798   1.319   2.997   6.721 -0.3469 -0.1708  0.1954
12436TIP3    H158799   1.413   3.015   6.715 -0.3998 -0.1715 -0.6801
12436TIP3    H258800   1.293   3.035   6.804  0.7414 -1.5492  1.2024
12437TIP3   OH258801   4.619   5.389  14.153  0.4018  0.5165 -0.1322
12437TIP3    H158802   4.581   5.400  14.065 -1.4997 -1.0768  0.4442
12437TIP3    H258803   4.543   5.383  14.211  1.6432  1.1667  1.5773
12438TIP3   OH258804   4.647   3.722   5.230  0.1260  0.4956 -0.1793
12438TIP3    H158805   4.688   3.805   5.251  0.2838  0.6217 -0.9976
12438TIP3    H258806   4.572   3.744   5.175 -0.4718  0.1858  0.4948
12439TIP3   OH258807   5.808   5.655  15.406  0.8042 -0.2536 -0.1718
12439TIP3    H158808   5.862   5.734  15.403 -1.6101  1.3797 -2.5573
12439TIP3    H258809   5.815   5.618  15.318 -1.3223 -0.4279 -0.2914
12440TIP3   OH258810   6.174   4.504  11.394  0.1578  0.3411  0.0740
12440TIP3    H158811   6.259   4.473  11.364  2.0780  3.0067  2.4936
12440TIP3    H258812   6.136   4.428  11.440  2.1014 -0.3042  0.6812
12441TIP3   OH258813   5.860   6.254   1.531  0.3792 -0.0518  0.1879
12441TIP3    H158814   5.941   6.276   1.578  0.7749 -0.5349 -0.2547
12441TIP3    H258815   5.841   6.164   1.558 -0.5637  0.3990  1.0567
12442TIP3   OH258816   0.910   5.878  17.209  0.0743 -0.1904  0.4147
12442TIP3    H158817   0.933   5.806  17.150  0.4932  0.7039 -0.5307
12442TIP3    H258818   0.989   5.895  17.260 -0.0181 -0.3995  0.6241
12443TIP3   OH258819   5.357   6.523  14.380 -0.2574  0.6181 -0.2448
12443TIP3    H158820   5.444   6.497  14.351 -0.0548  2.2832 -1.1758
12443TIP3    H258821   5.298   6.460  14.337  0.3456  0.7166 -1.2375
12444TIP3   OH258822   5.639   3.216  14.501 -0.1754 -0.9686  0.5334
12444TIP3    H158823   5.570   3.182  14.558 -0.2387 -1.3276  0.2429
12444TIP3    H258824   5.718   3.169  14.528 -0.1631 -0.9849  0.4685
12445TIP3   OH258825   0.970   2.256  12.478 -0.4875  0.5344 -0.2767
12445TIP3    H158826   1.002   2.276  12.390 -1.7439  0.5586 -0.7395
12445TIP3    H258827   0.889   2.306  12.486 -2.2873 -2.2831 -0.4617
12446TIP3   OH258828   4.133   0.571   3.899 -0.1343  0.3977  0.5207
12446TIP3    H158829   4.138   0.639   3.831 -3.1013  1.2602  1.0934
12446TIP3    H258830   4.192   0.601   3.968  0.4120  1.1657 -0.2667
12447TIP3   OH258831   3.266   0.958   3.684 -0.3777  0.1926 -0.4237
12447TIP3    H158832   3.283   0.963   3.590  1.1860 -1.3759 -0.2378
12447TIP3    H258833   3.256   1.049   3.711  0.7589  0.7463 -1.8111
12448TIP3   OH258834   0.271   1.176  17.189  0.0418  0.2354  0.8583
12448TIP3    H158835   0.306   1.265  17.194  0.6740  0.1653 -1.6030
12448TIP3    H258836   0.187   1.180  17.235  0.1193  2.0735  0.8567
12449TIP3   OH258837   6.105   4.667  13.660  0.3351 -0.5634 -0.7996
12449TIP3    H158838   6.018   4.659  13.621 -0.1138 -2.1487  0.4523
12449TIP3    H258839   6.099   4.618  13.743  0.8921  3.6023  1.8618
12450TIP3   OH258840   4.971   5.494   0.993  0.5215 -0.5290  0.5687
12450TIP3    H158841   4.986   5.523   1.083  0.7299  0.4862  0.2138
12450TIP3    H258842   5.059   5.484   0.956  0.4470 -1.5021  0.6535
12451TIP3   OH258843   0.312   0.545   4.508  0.0087 -0.2217  0.0062
12451TIP3    H158844   0.365   0.499   4.443 -0.1345 -0.1310 -0.1729
12451TIP3    H258845   0.240   0.584   4.459 -0.8258 -1.2494  0.3952
12452TIP3   OH258846   5.500   6.107   2.073 -0.2135  0.1195  0.0015
12452TIP3    H158847   5.494   6.073   1.984 -1.6518  0.4052 -0.0228
12452TIP3    H258848   5.477   6.200   2.064  3.6235  1.1418  0.0627
12453TIP3   OH258849   6.305   4.714  12.154  0.5336 -0.1810 -0.4593
12453TIP3    H158850   6.228   4.659  12.140 -0.5395  0.6974  1.6684
12453TIP3    H258851   6.298   4.782  12.087 -0.7348  0.0697 -0.0881
12454TIP3   OH258852   0.079   1.249   0.481  0.1114  0.5571 -0.0876
12454TIP3    H158853   0.133   1.325   0.503  1.0843 -0.2685  0.4397
12454TIP3    H258854   0.004   1.254   0.540  1.9783 -0.8592  2.5136
12455TIP3   OH258855   5.265   6.326  11.149  0.0858 -0.2545 -0.9536
12455TIP3    H158856   5.237   6.246  11.193  0.4781 -0.3996 -0.9697
12455TIP3    H258857   5.289   6.297  11.061 -0.8585  0.0574 -1.3265
12456TIP3   OH258858   1.303   2.568   5.431 -0.1037 -0.3003 -0.1589
12456TIP3    H158859   1.284   2.629   5.360  0.7431 -0.8040 -0.8153
12456TIP3    H258860   1.388   2.531   5.410 -0.1456 -0.9558  0.7727
12457TIP3   OH258861   2.601   0.055  12.591 -0.6552  0.0837  0.0723
12457TIP3    H158862   2.548  -0.025  12.584 -0.0248 -0.3102 -0.2424
12457TIP3    H258863   2.563   0.115  12.527 -0.5894 -0.2700 -0.2969
12458TIP3   OH258864   5.344   5.974  12.587  0.2574  0.3337  0.4506
12458TIP3    H158865   5.321   5.881  12.587  1.3604  0.0579 -0.1998
12458TIP3    H258866   5.383   5.989  12.673 -0.2454  0.2849  0.6914
12459TIP3   OH258867   5.455   2.079  12.617  0.1377  0.2088 -0.2305
12459TIP3    H158868   5.544   2.108  12.594 -0.0018  0.4916 -0.4290
12459TIP3    H258869   5.422   2.148  12.674  0.3726 -0.3474  0.5840
12460TIP3   OH258870   6.222   1.895   5.880 -0.3474 -0.0856 -0.6085
12460TIP3    H158871   6.202   1.802   5.870  3.1154 -0.9313 -0.4040
12460TIP3    H258872   6.243   1.905   5.973 -1.3013  1.0366 -0.5095
12461TIP3   OH258873   0.995   1.465  14.158  0.0245  0.1506  0.1647
12461TIP3    H158874   0.964   1.451  14.068 -2.0618 -0.0414  0.8868
12461TIP3    H258875   1.043   1.385  14.179 -0.0379 -0.0838 -0.5505
12462TIP3   OH258876   4.546   3.111  13.717  0.2729 -0.5727 -0.6173
12462TIP3    H158877   4.568   3.161  13.639  0.7741  0.5826  0.2578
12462TIP3    H258878   4.593   3.028  13.706  1.4655  0.1221 -0.8968
12463TIP3   OH258879   0.260   5.045  13.827  0.0828 -0.6685  0.0497
12463TIP3    H158880   0.215   5.045  13.911 -0.7910 -0.0279 -0.4077
12463TIP3    H258881   0.317   4.968  13.830 -0.9041 -1.3837  0.7135
12464TIP3   OH258882   4.413   6.297   6.062 -0.0882 -0.7389  0.2322
12464TIP3    H158883   4.335   6.337   6.101 -0.9481 -2.5293  0.3583
12464TIP3    H258884   4.463   6.264   6.137 -0.0600 -1.1443  0.0347
12465TIP3   OH258885   3.755   6.620   6.226 -0.1254  0.4072 -0.0741
12465TIP3    H158886   3.794   6.547   6.179 -1.7518 -0.8054  0.4146
12465TIP3    H258887   3.707   6.579   6.298 -1.1195  1.9479  0.1590
12466TIP3   OH258888   3.121   0.464   0.655  0.5600 -0.0632 -0.8176
12466TIP3    H158889   3.190   0.413   0.612 -0.5490 -0.4259 -2.2192
12466TIP3    H258890   3.040   0.418   0.631 -0.2460  0.9983 -0.1163
12467TIP3   OH258891   6.445   6.609  15.623 -0.8135 -0.1712  0.0189
12467TIP3    H158892   6.386   6.684  15.621  0.2027  0.6690  0.9430
12467TIP3    H258893   6.389   6.534  15.643 -1.3622  0.8274  2.3171
12468TIP3   OH258894   4.331   1.495  17.255 -0.1287 -0.6403 -0.1758
12468TIP3    H158895   4.424   1.505  17.275 -0.5779  1.7341  0.7868
12468TIP3    H258896   4.296   1.584  17.255 -2.5425 -1.5486  0.1380
12469TIP3   OH258897   6.435   5.247   5.693 -0.1118 -0.6525  0.1053
12469TIP3    H158898   6.432   5.167   5.746 -0.1216  0.0768  1.2186
12469TIP3    H258899   6.348   5.286   5.702 -0.6387 -1.3445 -1.7602
12470TIP3   OH258900   1.384   5.565  15.587  0.0541 -0.5032 -0.0064
12470TIP3    H158901   1.368   5.612  15.506  1.2546 -1.8037 -1.0322
12470TIP3    H258902   1.298   5.557  15.628 -0.0832  3.0501  0.5088
12471TIP3   OH258903   1.267   0.176  16.713 -0.3226 -0.3469  0.0159
12471TIP3    H158904   1.359   0.150  16.704 -0.4828 -1.7432  2.0993
12471TIP3    H258905   1.248   0.224  16.632  2.2777  0.1099 -0.3892
12472TIP3   OH258906   6.625   2.590  16.693  0.8233  0.0897 -0.3615
12472TIP3    H158907   6.717   2.583  16.720  0.7220 -2.7456 -0.6057
12472TIP3    H258908   6.629   2.591  16.597  0.6469  0.8017 -0.3610
12473TIP3   OH258909   3.774   2.609   4.091  0.2704  0.3349 -0.3278
12473TIP3    H158910   3.759   2.664   4.168 -2.3571  0.0383 -0.5868
12473TIP3    H258911   3.867   2.622   4.070  0.3014  2.7466  1.0984
12474TIP3   OH258912   5.756   0.855  17.050  0.3410 -0.1076 -0.0451
12474TIP3    H158913   5.833   0.907  17.071 -1.0183  2.3115 -0.8820
12474TIP3    H258914   5.783   0.764  17.065  3.1506  0.7437  0.2084
12475TIP3   OH258915   0.957   5.614  15.836  0.2444  0.0242 -0.4737
12475TIP3    H158916   0.944   5.519  15.842 -0.2277  0.0578 -0.8478
12475TIP3    H258917   1.004   5.626  15.753 -0.5099  0.1844 -0.8854
12476TIP3   OH258918   0.307   3.893   0.822  0.1021 -0.1080  0.2421
12476TIP3    H158919   0.280   3.872   0.733  0.3628 -0.9969  0.3739
12476TIP3    H258920   0.367   3.823   0.847 -0.1492  0.0064  1.2022
12477TIP3   OH258921   6.147   2.791   1.749 -0.0661  0.1620  0.3362
12477TIP3    H158922   6.148   2.832   1.662 -0.3426 -1.8064 -0.6465
12477TIP3    H258923   6.095   2.850   1.803 -1.2118  0.6572 -1.2499
12478TIP3   OH258924   1.651   0.436  12.900  0.2326  0.6287  0.5046
12478TIP3    H158925   1.721   0.439  12.834 -0.3668  1.6341 -0.0884
12478TIP3    H258926   1.661   0.350  12.941  0.8284  0.1326 -0.6582
12479TIP3   OH258927   5.572   6.466  14.620  0.5912 -0.0168 -0.4624
12479TIP3    H158928   5.654   6.493  14.662  0.1151  1.6268 -0.5251
12479TIP3    H258929   5.512   6.540  14.635 -0.6642 -0.9023 -1.0005
12480TIP3   OH258930   5.561   4.283   2.902  0.0075  0.3165 -0.1724
12480TIP3    H158931   5.641   4.241   2.933 -1.2909 -1.9695  0.2383
12480TIP3    H258932   5.546   4.246   2.815 -0.2411  1.2406 -0.5308
12481TIP3   OH258933   0.467   3.615   2.659  0.5223 -0.1317  0.1388
12481TIP3    H158934   0.425   3.603   2.744  1.5209 -0.1335  0.6477
12481TIP3    H258935   0.556   3.642   2.681  0.3203  1.4234 -0.9314
12482TIP3   OH258936   4.292   0.159  16.307  0.3613 -0.4363 -0.1074
12482TIP3    H158937   4.228   0.117  16.250 -0.2065  0.2369  0.0285
12482TIP3    H258938   4.240   0.214  16.365  0.8988 -1.3550  1.2918
12483TIP3   OH258939   3.702   2.796  12.775  0.1408  0.0323  0.3542
12483TIP3    H158940   3.738   2.725  12.829  0.1334  0.0666  0.4028
12483TIP3    H258941   3.612   2.769  12.758  0.4867 -0.5408 -0.6047
12484TIP3   OH258942   0.105   6.211  10.115 -0.3920 -0.5557  0.3671
12484TIP3    H158943   0.014   6.234  10.097 -0.4953 -0.1640  1.3985
12484TIP3    H258944   0.100   6.141  10.180 -0.0091 -2.1125 -1.2134
12485TIP3   OH258945   2.542   4.063   3.277  0.1799 -0.2512  0.4676
12485TIP3    H158946   2.559   4.157   3.270 -0.4320 -0.0400  1.6452
12485TIP3    H258947   2.626   4.022   3.256  0.8442  0.6177  1.3764
12486TIP3   OH258948   0.275   0.364   5.482  0.0353 -0.2627 -0.3316
12486TIP3    H158949   0.296   0.423   5.410  0.6045 -0.2018 -0.1177
12486TIP3    H258950   0.239   0.421   5.550  2.7519  0.1983  0.7828
12487TIP3   OH258951   5.719   6.170  11.799  0.0975 -0.0054  0.0200
12487TIP3    H158952   5.666   6.133  11.870  0.4934  0.6382  0.6557
12487TIP3    H258953   5.655   6.211  11.740 -0.2341 -0.5805 -0.0200
12488TIP3   OH258954   4.677   1.661  11.901 -0.7460  0.1085  0.0193
12488TIP3    H158955   4.679   1.722  11.975  0.6156 -0.3005  0.3264
12488TIP3    H258956   4.764   1.622  11.899 -1.0226 -0.4699 -1.3228
12489TIP3   OH258957   6.574   2.884   1.582 -0.5595 -0.9244 -0.2613
12489TIP3    H158958   6.641   2.816   1.574 -1.1069 -1.6189  0.8982
12489TIP3    H258959   6.602   2.953   1.522  1.9011 -0.6385  1.1749
12490TIP3   OH258960   2.856   1.929   4.233  0.3061 -0.5437 -0.6991
12490TIP3    H158961   2.878   1.903   4.143  1.6208  0.9334 -0.8414
12490TIP3    H258962   2.873   2.023   4.235  0.9434 -0.6716  1.2897
12491TIP3   OH258963   2.117   2.332   0.872 -0.5300  0.3521 -0.1895
12491TIP3    H158964   2.186   2.265   0.873 -0.6464  0.1709 -2.2483
12491TIP3    H258965   2.153   2.404   0.924  1.1777  0.1873 -1.0799
12492TIP3   OH258966   2.300   3.425  10.758  0.0637 -0.3364  0.0581
12492TIP3    H158967   2.390   3.414  10.790  0.0634  0.8030  0.4648
12492TIP3    H258968   2.260   3.338  10.769  0.9320 -0.6985  0.4268
12493TIP3   OH258969   4.765   6.236  11.132 -0.4960  0.0705 -0.9306
12493TIP3    H158970   4.797   6.311  11.083  1.7674 -1.3137 -1.6459
12493TIP3    H258971   4.694   6.201  11.078 -0.9551  1.1564 -1.0331
12494TIP3   OH258972   1.500   1.164   3.293  0.0560  0.4331  0.2590
12494TIP3    H158973   1.485   1.242   3.240 -1.4790  0.5227  0.8069
12494TIP3    H258974   1.584   1.181   3.337  0.0530  1.4878 -0.1255
12495TIP3   OH258975   5.411   1.617  17.207 -0.3335 -0.3887 -0.6947
12495TIP3    H158976   5.416   1.692  17.266  0.6787 -1.7215  0.9322
12495TIP3    H258977   5.345   1.643  17.142 -0.5271  1.6023  0.2553
12496TIP3   OH258978   0.253   2.595  11.344 -0.5083  0.2488  0.3919
12496TIP3    H158979   0.215   2.671  11.299 -0.8616 -0.0912  0.1102
12496TIP3    H258980   0.284   2.630  11.427  1.7223  1.2427 -0.8257
12497TIP3   OH258981   3.791   2.643   6.252 -0.3479  0.4606 -0.0042
12497TIP3    H158982   3.839   2.620   6.331 -0.8789  0.3334  0.2817
12497TIP3    H258983   3.708   2.678   6.283  0.3733  2.6434 -0.4224
12498TIP3   OH258984   5.882   3.229   0.071 -0.2301  0.2475 -0.1719
12498TIP3    H158985   5.906   3.152   0.020 -0.4646 -1.6144  2.4337
12498TIP3    H258986   5.930   3.219   0.153 -1.5003  2.0641  0.8214
12499TIP3   OH258987   3.944   4.678   0.205  0.2387 -0.0973  0.5512
12499TIP3    H158988   3.951   4.586   0.180 -0.5048 -0.4502  1.5992
12499TIP3    H258989   4.035   4.707   0.214  0.4823 -0.5450 -0.4298
12500TIP3   OH258990   3.007   1.448  15.956 -0.0526  0.5595  0.2730
12500TIP3    H158991   3.064   1.459  15.879  2.7764 -1.8122  1.9127
12500TIP3    H258992   2.938   1.388  15.926  1.8610 -1.5494 -0.0966
12501TIP3   OH258993   2.177   5.933   5.436 -0.1407 -0.0605 -0.3110
12501TIP3    H158994   2.229   5.943   5.356 -1.7992  0.6476 -1.3419
12501TIP3    H258995   2.087   5.952   5.408 -0.6661  0.8385  1.8666
12502TIP3   OH258996   3.003   2.741  11.428  0.6157  0.8704 -0.5151
12502TIP3    H158997   3.005   2.681  11.354 -3.2670  0.2394 -0.1857
12502TIP3    H258998   3.040   2.690  11.501  0.0559 -0.1190 -0.9138
12503TIP3   OH258999   2.276   6.049   3.930  0.1463  0.0137 -0.2348
12503TIP3    H159000   2.221   6.121   3.961 -0.6866 -0.2847 -0.9831
12503TIP3    H259001   2.361   6.063   3.972 -0.5745  0.3333  1.1442
12504TIP3   OH259002   3.278   5.315   4.135  0.4526 -0.4048 -0.2947
12504TIP3    H159003   3.277   5.310   4.231  0.8970  2.1214 -0.1138
12504TIP3    H259004   3.367   5.344   4.114  0.2668 -0.6775 -1.4658
12505TIP3   OH259005   2.553   1.869   3.500  0.7972  0.0509  0.1362
12505TIP3    H159006   2.632   1.909   3.536  1.6352 -0.9223 -0.6327
12505TIP3    H259007   2.539   1.915   3.417  0.1300  0.7324  0.6164
12506TIP3   OH259008   1.603   2.452  13.285 -0.3553  0.0304  0.6963
12506TIP3    H159009   1.550   2.448  13.206 -2.1113  0.1628  1.8279
12506TIP3    H259010   1.573   2.531  13.330 -0.0477 -0.5503  1.9385
12507TIP3   OH259011   6.524   1.845   4.479  0.1052 -0.1536  0.0574
12507TIP3    H159012   6.600   1.824   4.534  0.7563 -0.3521 -0.8922
12507TIP3    H259013   6.479   1.761   4.468 -0.7661  0.1308  1.3615
12508TIP3   OH259014   4.353   1.286   5.399 -0.9456  0.6200 -0.1386
12508TIP3    H159015   4.436   1.315   5.436 -1.9682  1.9035  1.2091
12508TIP3    H259016   4.375   1.207   5.350  0.9280  0.5200  0.8184
12509TIP3   OH259017   5.196   6.473  16.430 -0.0480  0.2924 -0.9043
12509TIP3    H159018   5.113   6.494  16.388  0.4567  1.6411 -1.2324
12509TIP3    H259019   5.229   6.397  16.382 -1.1021 -0.2853 -0.7380
12510TIP3   OH259020   0.042   4.541   5.712 -0.2763  0.1597 -0.4610
12510TIP3    H159021   0.018   4.453   5.742  0.5882  0.0488 -0.0624
12510TIP3    H259022   0.131   4.553   5.744 -0.3763  1.1699 -0.5484
12511TIP3   OH259023   5.690   2.841   0.751 -0.5045  0.4644 -0.0680
12511TIP3    H159024   5.731   2.764   0.791  0.6781  1.0678 -0.0862
12511TIP3    H259025   5.695   2.908   0.819 -0.7221  0.7738 -0.3568
12512TIP3   OH259026   1.964   0.895  15.227 -0.0543 -0.1492 -0.3968
12512TIP3    H159027   2.040   0.877  15.173 -0.3539 -1.3842 -0.4241
12512TIP3    H259028   1.890   0.860  15.177 -0.4514 -0.3401  0.3078
12513TIP3   OH259029   6.699   6.013  10.846 -0.2042  0.5746 -0.2182
12513TIP3    H159030   6.716   6.107  10.841 -0.0174  0.5350 -0.2941
12513TIP3    H259031   6.680   5.987  10.756 -0.0705  0.5025 -0.2252
12514TIP3   OH259032   2.341   0.507   3.847  0.1737  0.0955 -0.2012
12514TIP3    H159033   2.265   0.462   3.884  0.2706 -0.2553 -0.4190
12514TIP3    H259034   2.416   0.455   3.876  0.1220 -1.4546 -2.6345
12515TIP3   OH259035   0.371   0.116  14.473  0.1560  0.1923 -0.0188
12515TIP3    H159036   0.369   0.094  14.566 -1.2038 -2.6779 -0.6660
12515TIP3    H259037   0.457   0.086  14.444 -0.4575 -1.4251 -0.2211
12516TIP3   OH259038   3.996   6.233  14.001 -0.0737  0.1473  0.6850
12516TIP3    H159039   4.057   6.235  14.075  0.6584 -0.5267  0.1138
12516TIP3    H259040   3.909   6.227  14.042  0.2601  0.7138  1.4991
12517TIP3   OH259041   5.935   2.712   2.160 -0.5828 -0.1394  0.3253
12517TIP3    H159042   5.887   2.719   2.242  0.3063  1.2299  0.7562
12517TIP3    H259043   5.870   2.732   2.092 -1.2777 -1.1086  0.6970
12518TIP3   OH259044   1.103   1.465  16.002 -0.0082 -0.2728  0.0673
12518TIP3    H159045   1.112   1.370  16.005  0.5706 -0.2158  0.2318
12518TIP3    H259046   1.032   1.480  15.940  1.1131 -0.7583 -1.3759
12519TIP3   OH259047   0.395   3.363   0.064 -0.7018 -0.0266 -0.0221
12519TIP3    H159048   0.364   3.453   0.051 -0.7396 -0.0292  0.0482
12519TIP3    H259049   0.399   3.326  -0.024 -0.0259  0.2625 -0.1209
12520TIP3   OH259050   6.304   1.134  16.583  0.2468  0.4257  0.0321
12520TIP3    H159051   6.227   1.082  16.559  0.7025  0.8435 -2.4346
12520TIP3    H259052   6.270   1.198  16.646 -0.7813 -1.3432  1.3452
12521TIP3   OH259053   5.798   5.961  17.277  0.5475  0.1066  0.6771
12521TIP3    H159054   5.823   5.934  17.188 -1.2866 -0.3229  0.2737
12521TIP3    H259055   5.865   6.024  17.302  1.6927 -0.5535 -0.5936
12522TIP3   OH259056   4.535   1.461   5.267 -0.3877  0.0605 -0.2552
12522TIP3    H159057   4.528   1.503   5.353  0.5923  1.6464 -0.9335
12522TIP3    H259058   4.550   1.369   5.286  2.0234  0.7435  1.2943
12523TIP3   OH259059   2.770   1.759   4.832 -0.3513  0.3072  0.1737
12523TIP3    H159060   2.853   1.803   4.853 -0.2206  0.2617 -0.2528
12523TIP3    H259061   2.780   1.671   4.868 -0.4599  0.4983  0.6789
12524TIP3   OH259062   4.662   5.872   2.364 -0.2856  0.6562 -0.5531
12524TIP3    H159063   4.728   5.805   2.382 -0.4720  0.3224 -1.0928
12524TIP3    H259064   4.711   5.954   2.366 -0.3254  0.6433  1.5643
12525TIP3   OH259065   5.870   1.601  16.640  0.0035  0.5564 -0.2133
12525TIP3    H159066   5.796   1.597  16.579  0.0837  1.5592 -0.3905
12525TIP3    H259067   5.837   1.653  16.713  1.4398  3.5601 -1.6165
12526TIP3   OH259068   2.337   4.968  16.645  0.0821 -0.3608 -0.0270
12526TIP3    H159069   2.348   5.051  16.599  1.4934 -0.8409 -0.5783
12526TIP3    H259070   2.342   4.991  16.738 -2.4258  0.5631 -0.0836
12527TIP3   OH259071   5.163   1.214  16.276  0.1324  0.2588 -0.3201
12527TIP3    H159072   5.168   1.202  16.181 -1.0822  1.8737 -0.6248
12527TIP3    H259073   5.253   1.206  16.307  0.5314 -0.3027 -1.6119
12528TIP3   OH259074   5.922   6.109  14.672 -0.6757 -0.0199  0.1539
12528TIP3    H159075   5.837   6.138  14.640 -0.1927  2.9148  1.3208
12528TIP3    H259076   5.979   6.186  14.661  2.0208 -2.1300 -1.2798
12529TIP3   OH259077   3.841   2.831   4.270 -0.1970  0.5332 -0.3724
12529TIP3    H159078   3.792   2.835   4.352 -1.7776 -2.9850 -1.0212
12529TIP3    H259079   3.933   2.830   4.297 -0.7151 -1.5895  1.4527
12530TIP3   OH259080   6.224   2.699   4.455 -0.1435  0.1677 -0.2276
12530TIP3    H159081   6.257   2.629   4.511 -0.5922 -0.5684 -0.8700
12530TIP3    H259082   6.169   2.752   4.513 -0.3994 -0.4393  0.0897
12531TIP3   OH259083   1.159   1.274   0.205 -0.0904 -0.2459 -0.2760
12531TIP3    H159084   1.175   1.187   0.242 -0.6550  0.3130  1.3474
12531TIP3    H259085   1.077   1.265   0.157 -0.6158 -0.3825  0.6440
12532TIP3   OH259086   5.772   5.544  10.358 -0.4327  0.2682 -0.1957
12532TIP3    H159087   5.717   5.577  10.286  1.0581  1.8681 -0.6355
12532TIP3    H259088   5.742   5.591  10.435  0.1916  1.0179 -0.4040
12533TIP3   OH259089   2.296   1.964  12.668  0.0906 -0.5026  0.1422
12533TIP3    H159090   2.381   1.968  12.625 -0.1675  0.8431 -0.2651
12533TIP3    H259091   2.306   2.017  12.747 -0.6256  0.4062 -0.3682
12534TIP3   OH259092   5.530   0.152  14.964  0.2103 -0.2209 -0.1376
12534TIP3    H159093   5.499   0.062  14.962  0.4062 -0.3199  0.8777
12534TIP3    H259094   5.466   0.201  14.913 -0.5856 -0.7267  0.3731
12535TIP3   OH259095   4.176   2.120  13.384 -0.0608  0.4012  0.1602
12535TIP3    H159096   4.136   2.133  13.298 -0.4424  0.2496  0.3134
12535TIP3    H259097   4.116   2.061  13.430 -1.2721  2.5851  1.4873
12536TIP3   OH259098   0.035   4.884  13.489 -0.1924  0.4073  0.0823
12536TIP3    H159099   0.028   4.815  13.555 -0.8791  1.1695  0.8223
12536TIP3    H259100   0.062   4.961  13.538  2.3834  0.2706 -1.0108
12537TIP3   OH259101   4.969   2.697   5.336  0.3700  0.2746 -0.0734
12537TIP3    H159102   4.927   2.624   5.382 -0.9038  0.5069 -0.8212
12537TIP3    H259103   4.908   2.770   5.347  0.8319  0.7644 -0.7468
12538TIP3   OH259104   5.255   5.390   4.544  0.3088  0.6004 -0.1218
12538TIP3    H159105   5.250   5.305   4.590  1.3015  0.3414 -0.4916
12538TIP3    H259106   5.270   5.454   4.614 -1.0387  0.5584  0.2305
12539TIP3   OH259107   5.322   1.170   5.446 -0.2160  0.1749 -0.4746
12539TIP3    H159108   5.387   1.101   5.457 -0.5382  0.1085  1.2418
12539TIP3    H259109   5.373   1.250   5.434  0.2474  0.3699  2.4328
12540TIP3   OH259110   4.394   1.692  15.630 -0.1504  0.0685 -0.4393
12540TIP3    H159111   4.360   1.648  15.553 -4.2444  1.4149  0.4420
12540TIP3    H259112   4.320   1.693  15.692  3.1782 -1.6147  3.8297
12541TIP3   OH259113   5.480   5.356  15.934  0.5197  1.1659  0.5745
12541TIP3    H159114   5.404   5.405  15.966 -0.4796  0.2585 -0.3559
12541TIP3    H259115   5.460   5.265  15.956  0.3431  0.6662 -1.5470
12542TIP3   OH259116   1.933   2.922   4.853  0.2902  0.4737 -0.7372
12542TIP3    H159117   1.894   2.940   4.768  0.1762  0.9091 -0.5954
12542TIP3    H259118   1.877   2.968   4.916  2.6444  3.5216 -0.7722
12543TIP3   OH259119   2.979   2.815   5.341  0.0389 -0.2029 -0.1081
12543TIP3    H159120   3.062   2.823   5.295 -0.4207  1.5498 -0.6826
12543TIP3    H259121   2.964   2.721   5.348  1.7590 -0.5205 -0.5471
12544TIP3   OH259122   4.472   6.031   4.282  0.1096 -0.0342 -0.1528
12544TIP3    H159123   4.523   6.091   4.337 -0.6360  0.3761  0.0945
12544TIP3    H259124   4.525   5.951   4.279  0.4888  0.1828  0.5865
12545TIP3   OH259125   1.094   2.068  14.252  0.8255 -0.2928  0.4987
12545TIP3    H159126   0.999   2.076  14.252  0.7319 -1.0621 -2.0350
12545TIP3    H259127   1.123   2.130  14.185  2.0108 -1.0873  0.2592
12546TIP3   OH259128   0.630   2.503   2.144 -0.0386  0.1993  0.3994
12546TIP3    H159129   0.637   2.597   2.126 -1.7174  0.3758  0.5718
12546TIP3    H259130   0.616   2.464   2.058 -3.0466  0.5187  0.6963
12547TIP3   OH259131   0.323   4.168   4.384 -0.1659 -0.0644  0.0422
12547TIP3    H159132   0.384   4.151   4.312 -0.8535 -2.2482 -0.0319
12547TIP3    H259133   0.372   4.146   4.463  0.4986  2.0876  0.2864
12548TIP3   OH259134   5.298   1.944   2.336 -0.5362  0.4480  0.5583
12548TIP3    H159135   5.278   1.958   2.428 -0.6925 -1.1302  0.7719
12548TIP3    H259136   5.308   1.850   2.327  0.7645  0.6822 -0.7811
12549TIP3   OH259137   4.516   3.500  13.404 -0.2511  0.4424  0.1408
12549TIP3    H159138   4.452   3.562  13.372  0.4636  1.5768  0.8714
12549TIP3    H259139   4.595   3.517  13.352  0.2241  0.7717  0.9599
12550TIP3   OH259140   6.551   6.610   6.108 -0.2439 -0.0962  0.1370
12550TIP3    H159141   6.498   6.670   6.160 -0.8518 -0.9034  0.4781
12550TIP3    H259142   6.574   6.540   6.169  0.4618 -0.1956 -0.2467
12551TIP3   OH259143   2.282   4.452  13.562 -0.0846  0.4387  0.6224
12551TIP3    H159144   2.344   4.386  13.593 -0.5441  0.4342  1.5664
12551TIP3    H259145   2.222   4.465  13.636 -0.7369  1.0128  0.0048
12552TIP3   OH259146   5.560   1.549   4.808  0.5237 -0.5453  0.1266
12552TIP3    H159147   5.621   1.565   4.736  1.1194  1.6726  1.0810
12552TIP3    H259148   5.607   1.489   4.867  1.7817  1.0366  0.7859
12553TIP3   OH259149   2.175   4.512  14.164  0.5895  0.5078  0.1853
12553TIP3    H159150   2.187   4.446  14.232  0.4359 -0.5624 -0.8091
12553TIP3    H259151   2.105   4.567  14.197  0.5073 -0.0043  0.8900
12554TIP3   OH259152   1.652   1.931   0.227 -0.0655 -0.0818 -0.0920
12554TIP3    H159153   1.731   1.982   0.247 -0.4574  0.6451 -0.3862
12554TIP3    H259154   1.580   1.993   0.237 -0.5550 -0.6002 -0.3663
12555TIP3   OH259155   2.125   5.477   3.834 -0.0098  0.2362 -0.3614
12555TIP3    H159156   2.134   5.395   3.785 -4.6235 -0.3568 -0.4403
12555TIP3    H259157   2.115   5.544   3.767  0.4586  0.3928 -0.2740
12556TIP3   OH259158   4.710   5.572  16.052  0.2596 -0.3645  0.4653
12556TIP3    H159159   4.715   5.667  16.058 -0.6131 -0.3423  0.8245
12556TIP3    H259160   4.800   5.542  16.066  1.0499  0.5452 -2.3338
12557TIP3   OH259161   4.211   3.531  14.215  0.2946  0.7215  0.3834
12557TIP3    H159162   4.209   3.468  14.287 -1.9060  0.6451  0.2912
12557TIP3    H259163   4.278   3.497  14.155  0.3948 -0.5499  1.1918
12558TIP3   OH259164   3.527   1.812   0.969 -0.1908 -0.5238  0.8466
12558TIP3    H159165   3.475   1.836   1.045 -0.6866  1.4261 -0.0735
12558TIP3    H259166   3.608   1.864   0.977 -0.9134  0.9054 -0.7330
12559TIP3   OH259167   1.403   6.711   3.764 -0.5642  0.0695 -0.1429
12559TIP3    H159168   1.407   6.781   3.829 -0.5191  0.5690 -0.6810
12559TIP3    H259169   1.430   6.633   3.812  1.8852  0.8551 -0.1277
12560TIP3   OH259170   4.760   4.741  14.521 -0.2859 -0.3030 -0.3385
12560TIP3    H159171   4.706   4.672  14.480  1.0744 -1.5528 -0.0895
12560TIP3    H259172   4.714   4.762  14.602 -0.6557 -1.0267 -0.3491
12561TIP3   OH259173   4.940   2.940   3.301 -0.2277 -0.2520 -0.4359
12561TIP3    H159174   4.990   2.865   3.268 -0.5244  0.0351 -1.5779
12561TIP3    H259175   4.859   2.938   3.250 -1.3422 -0.6559  1.3277
12562TIP3   OH259176   1.552   0.376  10.970 -0.3916 -0.5095 -0.1734
12562TIP3    H159177   1.496   0.454  10.975  0.5937  0.2133 -0.2102
12562TIP3    H259178   1.575   0.357  11.060 -1.6371 -1.5213 -0.0469
12563TIP3   OH259179   4.563   0.531  15.094 -0.1800  0.7770  0.1429
12563TIP3    H159180   4.631   0.493  15.151 -0.6133 -0.4064 -0.1103
12563TIP3    H259181   4.569   0.625  15.109  1.7989  0.7240 -0.1741
12564TIP3   OH259182   6.596   2.763  12.707  0.1105  0.4778 -0.2315
12564TIP3    H159183   6.681   2.724  12.684  0.6350  1.2728  0.3227
12564TIP3    H259184   6.587   2.746  12.800 -0.0353  0.9743 -0.1548
12565TIP3   OH259185   5.845   5.339   4.735 -0.4917 -0.4437 -0.1825
12565TIP3    H159186   5.862   5.251   4.769  2.1373 -0.3364 -1.0742
12565TIP3    H259187   5.778   5.375   4.793  0.9102 -1.7615  2.3705
12566TIP3   OH259188   3.564   5.151  17.171  1.2417  0.4582 -0.0970
12566TIP3    H159189   3.551   5.239  17.208 -0.7929 -0.4899  1.5554
12566TIP3    H259190   3.556   5.164  17.077 -0.1988  1.8917  0.1885
12567TIP3   OH259191   2.365   1.346   3.897 -0.8210 -0.2124 -0.3497
12567TIP3    H159192   2.457   1.321   3.897 -0.5006  0.9014 -2.4857
12567TIP3    H259193   2.360   1.418   3.959 -0.7730 -1.9788  1.7684
12568TIP3   OH259194   0.722   5.545   4.908 -0.1164 -0.0252 -0.4050
12568TIP3    H159195   0.631   5.557   4.935  0.1511 -0.5978  0.7583
12568TIP3    H259196   0.718   5.540   4.812 -1.2778  0.1641 -0.3711
12569TIP3   OH259197   2.528   2.140   3.730  0.1169  0.4024 -0.6500
12569TIP3    H159198   2.580   2.063   3.753  0.3394  1.3200  2.1120
12569TIP3    H259199   2.525   2.139   3.634 -0.3214 -3.2835 -0.6741
12570TIP3   OH259200   2.613   0.120  12.090 -0.5456  0.0477  0.3769
12570TIP3    H159201   2.545   0.136  12.155  1.8207 -1.0443  3.2068
12570TIP3    H259202   2.631   0.206  12.052 -1.1097  0.9028  2.0243
12571TIP3   OH259203   6.720   2.988  11.116  0.8422  0.2574 -0.4533
12571TIP3    H159204   6.668   3.042  11.057  0.2119 -0.3461 -0.4628
12571TIP3    H259205   6.711   3.030  11.201 -0.0099 -0.0781 -0.3738
12572TIP3   OH259206   5.304   2.336   5.305  0.2320  0.8504  0.0961
12572TIP3    H159207   5.343   2.335   5.392  0.1619  0.3592  0.1212
12572TIP3    H259208   5.296   2.244   5.281  0.6940  0.9971 -0.6336
12573TIP3   OH259209   4.394   4.719  14.482  0.3769  0.3275 -0.3603
12573TIP3    H159210   4.320   4.658  14.482  0.0229  0.7340  1.0632
12573TIP3    H259211   4.412   4.735  14.575  1.1299  1.5895 -0.7113
12574TIP3   OH259212   0.357   0.263   3.879  0.0933  0.1322 -0.3075
12574TIP3    H159213   0.279   0.319   3.874 -0.3059 -0.2732  1.1064
12574TIP3    H259214   0.430   0.322   3.865 -0.3636  0.8621  0.3638
12575TIP3   OH259215   1.842   5.433   6.074 -0.3205 -0.2985  0.2776
12575TIP3    H159216   1.918   5.376   6.062 -1.1716 -1.6844  1.3250
12575TIP3    H259217   1.837   5.446   6.168  0.0849  1.8484  0.0247
12576TIP3   OH259218   3.775   5.200   4.237 -0.6040  0.0134 -0.1773
12576TIP3    H159219   3.686   5.228   4.257 -1.1130 -2.7093  1.7379
12576TIP3    H259220   3.774   5.181   4.144 -1.7654  0.9677 -0.3641
12577TIP3   OH259221   2.234   5.207   5.060  0.0424  0.1955  0.1837
12577TIP3    H159222   2.233   5.159   5.144  0.1337  0.5275  0.3742
12577TIP3    H259223   2.325   5.201   5.030 -0.2466 -0.9565 -0.4872
12578TIP3   OH259224   1.833   3.578  14.772  0.3697 -0.1207  0.1295
12578TIP3    H159225   1.792   3.506  14.821 -1.3616 -0.5221 -1.8147
12578TIP3    H259226   1.857   3.642  14.838 -2.1285 -0.5393  1.4790
12579TIP3   OH259227   3.995   6.050   3.431 -0.3077  0.0904 -0.0221
12579TIP3    H159228   3.913   6.008   3.406 -0.2433 -0.1896  0.2309
12579TIP3    H259229   4.006   6.122   3.369 -1.5100  1.0677  0.8908
12580TIP3   OH259230   3.577   0.758   5.649  0.1557  0.4210 -0.1972
12580TIP3    H159231   3.498   0.705   5.659  0.8467 -0.3523  1.1445
12580TIP3    H259232   3.610   0.736   5.562 -0.0710 -0.6569 -0.0094
12581TIP3   OH259233   6.232   3.940  15.871 -0.1016 -0.1811 -0.1109
12581TIP3    H159234   6.252   3.915  15.781 -0.7839 -0.8464 -0.0862
12581TIP3    H259235   6.305   3.995  15.898 -0.5767  1.1895 -1.5349
12582TIP3   OH259236   3.224   4.282   0.652  0.1452 -0.2259 -0.0861
12582TIP3    H159237   3.181   4.207   0.612 -1.1374 -0.8935  2.4166
12582TIP3    H259238   3.307   4.248   0.684  0.3077 -0.1597 -0.4327
12583TIP3   OH259239   4.015   0.571   6.204  0.2508 -0.2670  0.0344
12583TIP3    H159240   3.923   0.559   6.227  0.3956  1.7713  1.9730
12583TIP3    H259241   4.062   0.509   6.260  0.2270  0.8149  1.2833
12584TIP3   OH259242   5.180   2.264   2.716  0.2830 -0.3364 -1.0723
12584TIP3    H159243   5.161   2.240   2.625  1.7299  1.8572 -1.9940
12584TIP3    H259244   5.240   2.338   2.709 -0.9030  0.9533  1.6885
12585TIP3   OH259245   5.547   2.785   3.835  0.3439 -0.2679 -0.3334
12585TIP3    H159246   5.488   2.748   3.769 -0.8970  0.2898  0.4535
12585TIP3    H259247   5.617   2.720   3.843 -0.3556 -1.1238 -1.0011
12586TIP3   OH259248   3.490   1.538   0.865 -0.1513 -0.1127 -0.0175
12586TIP3    H159249   3.471   1.482   0.940 -0.8042 -1.3509 -1.0980
12586TIP3    H259250   3.514   1.622   0.904  0.7674 -1.1004  1.6215
12587TIP3   OH259251   0.537   3.860  11.377  0.2972 -1.2521 -0.1023
12587TIP3    H159252   0.477   3.807  11.325  1.2076 -2.5446  0.1294
12587TIP3    H259253   0.556   3.805  11.454  0.0441  0.0575  0.9071
12588TIP3   OH259254   1.498   0.604   1.265  0.7609  0.1054 -0.3480
12588TIP3    H159255   1.592   0.611   1.285  0.3729  1.9318  0.9147
12588TIP3    H259256   1.457   0.582   1.349 -0.0119  0.0112 -0.7481
12589TIP3   OH259257   4.885   0.075  10.987  0.3425  0.0832  0.1413
12589TIP3    H159258   4.871  -0.002  10.931 -0.4808  1.7410 -1.9761
12589TIP3    H259259   4.966   0.113  10.955 -0.0756  0.9831  0.1548
12590TIP3   OH259260   5.107   6.232   4.877  0.4157 -0.5010 -0.4563
12590TIP3    H159261   5.041   6.164   4.866 -1.5357  1.3343 -0.3195
12590TIP3    H259262   5.095   6.290   4.802  0.5626  0.9128  0.5863
12591TIP3   OH259263   3.765   1.487  12.385  0.3249  0.6626  0.2581
12591TIP3    H159264   3.703   1.442  12.329  1.0124  1.4543 -1.1566
12591TIP3    H259265   3.720   1.568  12.410  0.3155  0.6600  0.2498
12592TIP3   OH259266   4.927   5.139  13.848  0.0368 -0.1970 -0.0654
12592TIP3    H159267   4.949   5.228  13.819 -0.1690  0.5459  1.9680
12592TIP3    H259268   4.852   5.151  13.907  0.3920 -1.6401  0.7068
12593TIP3   OH259269   3.569   2.849  17.097 -0.2859  0.1225  0.6856
12593TIP3    H159270   3.477   2.831  17.118 -0.2904 -3.1113 -1.8194
12593TIP3    H259271   3.618   2.785  17.149  0.5182  1.0107  1.0449
12594TIP3   OH259272   3.935   5.596   4.906  0.1370  0.9192  0.0142
12594TIP3    H159273   3.927   5.536   4.981 -1.0545  0.5926 -0.3685
12594TIP3    H259274   4.028   5.591   4.882 -0.3703 -2.6944 -1.5434
12595TIP3   OH259275   4.544   2.970   4.396  0.0989  0.3439 -0.2777
12595TIP3    H159276   4.560   2.945   4.487  0.0270 -1.5726 -0.7803
12595TIP3    H259277   4.511   3.060   4.402  0.5761  0.4212  1.5460
12596TIP3   OH259278   5.497   1.464  15.815 -0.1689  0.2892  0.3341
12596TIP3    H159279   5.496   1.560  15.818 -0.2807  0.2737  0.9110
12596TIP3    H259280   5.509   1.438  15.907 -1.7349 -0.2738  0.3872
12597TIP3   OH259281   1.093   6.358  14.637 -0.5989 -0.3477 -0.8248
12597TIP3    H159282   1.042   6.302  14.579  1.2963  0.9514 -3.8212
12597TIP3    H259283   1.090   6.444  14.596 -1.4096  1.2414  2.4241
12598TIP3   OH259284   4.610   5.195   3.905 -0.2196  0.0970  0.4989
12598TIP3    H159285   4.607   5.136   3.830 -0.4142  1.6309 -0.7185
12598TIP3    H259286   4.552   5.155   3.969  1.1017 -2.0004  0.4176
12599TIP3   OH259287   0.100   4.288  11.804  0.0374  0.0004 -0.1258
12599TIP3    H159288   0.090   4.208  11.752 -0.2036  0.6506 -1.1045
12599TIP3    H259289   0.012   4.308  11.835  0.2353 -0.5675  0.8208
12600TIP3   OH259290   2.039   2.535   1.350 -0.1695 -0.2838 -0.1624
12600TIP3    H159291   2.064   2.487   1.429 -0.3536 -1.0548 -0.5709
12600TIP3    H259292   2.033   2.626   1.379  2.7302 -0.0948  0.0505
12601TIP3   OH259293   0.699   0.994  12.729  0.0174  0.2674  0.0029
12601TIP3    H159294   0.651   1.044  12.796  1.8649  0.9553  0.8427
12601TIP3    H259295   0.789   1.026  12.735  0.4360 -0.4501 -2.0885
12602TIP3   OH259296   3.498   1.354  16.380  0.0667 -0.9203  0.2653
12602TIP3    H159297   3.442   1.431  16.386 -0.8154 -1.5360  0.0695
12602TIP3    H259298   3.553   1.358  16.458 -0.2825 -0.3339  0.4846
12603TIP3   OH259299   3.801   5.568   5.217 -0.4727 -0.0296  0.1044
12603TIP3    H159300   3.848   5.636   5.264  1.1820 -1.0644 -0.0175
12603TIP3    H259301   3.712   5.601   5.210 -0.1814  1.1890  1.8674
12604TIP3   OH259302   0.215   0.454   2.735 -0.1223  0.4818  0.0228
12604TIP3    H159303   0.147   0.438   2.801 -1.1192 -0.3887 -1.1880
12604TIP3    H259304   0.184   0.408   2.657  1.2131  1.1969 -0.9526
12605TIP3   OH259305   2.961   1.929  13.455  0.0282  0.2426 -0.3623
12605TIP3    H159306   3.040   1.926  13.402 -0.9584  0.4935 -1.8782
12605TIP3    H259307   2.986   1.887  13.538  1.9254  0.9856 -0.5441
12606TIP3   OH259308   6.198   1.745  10.922 -0.7290  0.1914 -0.2755
12606TIP3    H159309   6.243   1.661  10.912  1.3857  1.0643  1.6911
12606TIP3    H259310   6.151   1.737  11.005  1.2468  1.6953  1.0370
12607TIP3   OH259311   2.417   2.395  16.798  0.1683 -0.5969  0.4544
12607TIP3    H159312   2.491   2.343  16.829  0.1939 -0.9828 -0.2485
12607TIP3    H259313   2.407   2.371  16.706 -0.0725  0.3479  0.2254
12608TIP3   OH259314   2.640   0.221  16.810  0.1508 -0.2934 -0.2291
12608TIP3    H159315   2.706   0.236  16.743 -0.3906 -0.4832 -0.8132
12608TIP3    H259316   2.570   0.283  16.790 -0.8653 -1.6534 -1.0075
12609TIP3   OH259317   6.327   5.147   4.443 -0.2029 -0.1951  0.1782
12609TIP3    H159318   6.260   5.214   4.460 -0.6360 -0.3712 -0.7798
12609TIP3    H259319   6.408   5.196   4.432 -0.1538  0.0206  1.3876
12610TIP3   OH259320   6.456   6.701  10.712 -0.2773  0.2621  0.0573
12610TIP3    H159321   6.385   6.762  10.696 -1.1199 -0.5383  0.7016
12610TIP3    H259322   6.452   6.640  10.638 -0.4003  0.0994  0.1959
12611TIP3   OH259323   5.093   3.139  11.920 -0.2687 -0.6543  0.0471
12611TIP3    H159324   5.106   3.048  11.947 -1.2801 -0.1561  2.2643
12611TIP3    H259325   5.057   3.183  11.997  1.5662  1.9807 -0.5095
12612TIP3   OH259326   4.021   6.283  11.920  0.5107 -0.2046 -0.3752
12612TIP3    H159327   3.975   6.315  11.843  0.3283  1.5602  0.4292
12612TIP3    H259328   3.956   6.229  11.966  0.5447 -1.0542 -1.3262
12613TIP3   OH259329   3.295   3.159   0.275  0.0835  0.3052 -0.6266
12613TIP3    H159330   3.280   3.253   0.287  0.8503  0.1530  1.7549
12613TIP3    H259331   3.361   3.154   0.205  0.4150  1.5495 -0.4143
12614TIP3   OH259332   1.942   3.811   0.920 -0.3661  0.1701 -0.1168
12614TIP3    H159333   1.974   3.863   0.993 -0.6101 -1.3844  1.1364
12614TIP3    H259334   1.952   3.867   0.843  1.4741  1.2028  0.8632
12615TIP3   OH259335   0.402   1.979   0.279 -0.3937  0.7157 -1.1558
12615TIP3    H159336   0.391   1.891   0.242  0.5708 -0.2494  0.8208
12615TIP3    H259337   0.390   1.968   0.373 -0.4215  2.7510 -0.8868
12616TIP3   OH259338   5.197   2.407  11.856 -0.5293 -0.9313 -0.5266
12616TIP3    H159339   5.149   2.468  11.800 -1.6665 -1.5867 -0.2866
12616TIP3    H259340   5.166   2.320  11.828  0.5216 -1.3645 -0.3642
12617TIP3   OH259341   2.259   4.083  16.863  0.2527  0.6362 -0.2238
12617TIP3    H159342   2.262   3.988  16.873  0.3833  0.4817 -1.6688
12617TIP3    H259343   2.216   4.114  16.943  0.2893 -0.6262  0.2959
12618TIP3   OH259344   0.283   3.805   4.762 -0.0821  0.0535 -0.1458
12618TIP3    H159345   0.225   3.834   4.692 -1.4975 -1.8755  0.1840
12618TIP3    H259346   0.359   3.863   4.755 -0.7585  0.7447 -2.4311
12619TIP3   OH259347   6.656   3.768   4.720  0.3154  0.7689 -0.2110
12619TIP3    H159348   6.662   3.691   4.776 -0.9225 -0.8249 -2.2237
12619TIP3    H259349   6.684   3.737   4.634  0.6062  2.7772 -0.8592
12620TIP3   OH259350   5.254   2.946   3.615 -0.6175  0.1037  0.3599
12620TIP3    H159351   5.290   2.937   3.527 -1.4395  1.2267 -0.0860
12620TIP3    H259352   5.175   2.893   3.615 -0.8209  0.4093  0.3164
12621TIP3   OH259353   5.106   2.093  12.283  0.1183  0.0006 -0.1187
12621TIP3    H159354   5.117   2.128  12.194 -0.9588 -1.8096 -0.9970
12621TIP3    H259355   5.157   2.012  12.283  0.5019  0.2428  1.0730
12622TIP3   OH259356   1.452   0.996   2.857 -0.2611  0.6212  0.3692
12622TIP3    H159357   1.446   1.078   2.809 -0.3890  0.3034 -0.1623
12622TIP3    H259358   1.458   0.929   2.789  0.3098  0.2287  0.7993
12623TIP3   OH259359   3.176   2.770   4.011  0.6916 -0.4065 -0.2446
12623TIP3    H159360   3.258   2.742   4.052  0.6717 -1.8795 -1.1873
12623TIP3    H259361   3.119   2.794   4.084  1.7988  0.1876  0.4344
12624TIP3   OH259362   1.884   0.235   2.865  0.1275 -0.2180 -0.1433
12624TIP3    H159363   1.874   0.275   2.779 -1.4609 -2.4906 -1.0370
12624TIP3    H259364   1.962   0.180   2.857  1.0038  0.9151  0.4218
12625TIP3   OH259365   2.863   6.054   1.828 -0.4367  0.1828 -0.1853
12625TIP3    H159366   2.866   6.022   1.738  0.1946 -1.1228  0.2929
12625TIP3    H259367   2.776   6.093   1.837 -1.2109 -1.3852 -0.7801
12626TIP3   OH259368   0.633   2.005   3.235 -0.0033  0.4467  0.2430
12626TIP3    H159369   0.726   2.013   3.259  0.2354  1.1847 -0.8582
12626TIP3    H259370   0.597   2.092   3.254 -0.4688  0.1624  0.6555
12627TIP3   OH259371   2.762   2.431   3.422 -0.4488  0.2596 -0.4020
12627TIP3    H159372   2.849   2.396   3.404 -0.8524 -1.2721  0.5448
12627TIP3    H259373   2.712   2.412   3.342  0.7518  3.5358 -2.0355
12628TIP3   OH259374   0.274   4.301   2.954 -0.0428 -0.2381 -0.0496
12628TIP3    H159375   0.228   4.276   3.034 -1.8177 -0.5220 -1.1371
12628TIP3    H259376   0.230   4.382   2.926  1.0381  0.2503 -0.3613
12629TIP3   OH259377   1.455   5.703   0.537  0.1159 -0.5905 -0.0816
12629TIP3    H159378   1.530   5.717   0.596  0.2644  1.5855 -0.7576
12629TIP3    H259379   1.380   5.733   0.587  0.3143  1.8330 -1.1870
12630TIP3   OH259380   4.419   0.978  11.015  0.0580 -0.9253  0.0283
12630TIP3    H159381   4.386   0.948  11.100 -1.7514  0.9408  0.0253
12630TIP3    H259382   4.340   0.993  10.963  1.0392  0.5308 -1.0709
12631TIP3   OH259383   5.255   6.355  14.612  0.1790 -0.2074 -0.1468
12631TIP3    H159384   5.254   6.399  14.527  2.5493 -1.6054 -0.9573
12631TIP3    H259385   5.301   6.415  14.670  2.1971 -0.9581 -0.9098
12632TIP3   OH259386   1.041   3.605  11.319 -0.3456 -0.2705 -0.2878
12632TIP3    H159387   1.064   3.634  11.231 -0.8114 -1.4546 -0.8094
12632TIP3    H259388   0.947   3.621  11.326 -0.2483  0.1363  0.1194
12633TIP3   OH259389   5.454   1.764   4.609  0.1614  0.2059  0.0303
12633TIP3    H159390   5.380   1.707   4.588  0.1663  0.9394 -2.1006
12633TIP3    H259391   5.507   1.712   4.670 -0.4495 -1.5885 -0.9109
12634TIP3   OH259392   3.080   4.015  16.929  0.0992  0.2667 -0.3684
12634TIP3    H159393   3.064   3.944  16.868 -1.4508  1.4974 -1.4480
12634TIP3    H259394   3.059   3.978  17.015 -0.0502 -0.7610 -0.8379
12635TIP3   OH259395   6.298   4.247   5.478  0.1773  0.2363  0.2889
12635TIP3    H159396   6.227   4.213   5.424  2.4953 -1.4571 -1.7758
12635TIP3    H259397   6.311   4.180   5.545  2.0893 -1.1169 -1.3993
12636TIP3   OH259398   6.042   0.956  15.451 -0.1377  0.0705 -0.7737
12636TIP3    H159399   6.039   0.891  15.521 -0.2526 -0.6027 -1.3963
12636TIP3    H259400   6.071   1.037  15.494 -0.3615 -0.2985  0.0723
12637TIP3   OH259401   5.923   4.193  11.908 -0.1481 -0.0186  0.1001
12637TIP3    H159402   5.829   4.185  11.892 -0.2389 -2.7812  1.6238
12637TIP3    H259403   5.929   4.235  11.994 -0.0118 -0.4284  0.2909
12638TIP3   OH259404   1.695   0.413   1.033 -0.5541 -0.3424 -0.0434
12638TIP3    H159405   1.616   0.386   1.080 -0.7821 -0.3990 -0.4586
12638TIP3    H259406   1.730   0.485   1.086  0.4543 -1.8993  1.4676
12639TIP3   OH259407   4.978   5.564  16.095  0.2839  0.0697  0.0388
12639TIP3    H159408   5.018   5.482  16.066 -0.9829 -0.1193 -1.1964
12639TIP3    H259409   5.000   5.569  16.188 -0.1641 -1.9820  0.2800
12640TIP3   OH259410   0.825   1.642  15.329  0.4132 -0.2069 -0.1124
12640TIP3    H159411   0.836   1.716  15.270  0.4859 -1.3751 -1.6038
12640TIP3    H259412   0.734   1.647  15.358  0.6227  0.8672  0.3630
12641TIP3   OH259413   3.463   1.132   3.094 -0.5102  0.4775 -0.4556
12641TIP3    H159414   3.432   1.060   3.038  0.4089 -0.8435  0.7124
12641TIP3    H259415   3.476   1.091   3.180  1.8973  1.6091 -0.2665
12642TIP3   OH259416   6.671   4.204   2.459 -0.1940 -0.4517  0.9508
12642TIP3    H159417   6.710   4.178   2.376 -1.6390  1.7362 -0.4818
12642TIP3    H259418   6.721   4.281   2.486  0.4465 -1.3080  2.2843
12643TIP3   OH259419   3.040   3.849  13.140 -1.1581 -0.3975 -0.1135
12643TIP3    H159420   3.012   3.888  13.223 -1.4666  1.4874 -1.0836
12643TIP3    H259421   3.134   3.835  13.151 -1.1599  0.0439  0.4683
12644TIP3   OH259422   5.549   5.589  12.796 -0.2913  0.7376  0.1393
12644TIP3    H159423   5.613   5.570  12.728  0.9598 -0.4799  1.5996
12644TIP3    H259424   5.597   5.573  12.878 -1.9672  1.4592  1.2774
12645TIP3   OH259425   4.726   2.683   0.229  0.1393  0.3872  0.3148
12645TIP3    H159426   4.656   2.632   0.190 -0.9965  0.1630  2.5523
12645TIP3    H259427   4.800   2.623   0.236 -1.0486 -0.8704  2.5277
12646TIP3   OH259428   3.977   5.937  13.460  0.1008  0.3754  0.2259
12646TIP3    H159429   3.930   6.021  13.458 -0.1854  0.2832  2.5777
12646TIP3    H259430   4.031   5.941  13.539  2.3383 -0.4776 -1.2066
12647TIP3   OH259431   5.272   5.493  13.541  0.1958 -0.5842  0.2172
12647TIP3    H159432   5.318   5.523  13.620  0.6223  0.4222 -0.4053
12647TIP3    H259433   5.247   5.403  13.561  0.2951 -0.3374  1.5106
12648TIP3   OH259434   5.141   0.218   4.311  0.1509 -0.0305 -0.4076
12648TIP3    H159435   5.185   0.151   4.258 -1.4820 -0.3762 -1.3683
12648TIP3    H259436   5.102   0.277   4.246 -0.0580  0.7543  0.4288
12649TIP3   OH259437   3.897   2.382   0.452 -0.3262  0.1405  0.1669
12649TIP3    H159438   3.965   2.448   0.436 -1.4607  1.2321 -0.2029
12649TIP3    H259439   3.946   2.303   0.475  1.1477  0.4187 -1.8604
12650TIP3   OH259440   4.571   6.223   0.350 -0.3963 -0.6023  0.4503
12650TIP3    H159441   4.634   6.155   0.375  1.4663  0.9593  0.1869
12650TIP3    H259442   4.609   6.304   0.385 -1.9255  0.4732 -0.3361
12651TIP3   OH259443   4.250   3.769  16.051 -0.4666 -0.2428 -0.2881
12651TIP3    H159444   4.300   3.688  16.063  0.8251  0.7738  1.2775
12651TIP3    H259445   4.287   3.809  15.972 -1.1905 -1.2102 -1.1409
12652TIP3   OH259446   1.659   0.253  11.220  0.1354 -0.2322  0.4189
12652TIP3    H159447   1.733   0.203  11.188  0.0469  0.1636 -0.4131
12652TIP3    H259448   1.664   0.245  11.315  0.7844 -0.8578  0.3332
12653TIP3   OH259449   4.987   4.885   3.337 -0.1582 -0.0876  0.6382
12653TIP3    H159450   5.049   4.814   3.318  0.1339  0.1158  0.8174
12653TIP3    H259451   4.932   4.851   3.407  0.0515 -0.0999  0.7992
12654TIP3   OH259452   3.812   2.369   3.371 -0.2413  0.0773 -0.8929
12654TIP3    H159453   3.725   2.335   3.347 -0.6255 -0.7873  1.5446
12654TIP3    H259454   3.808   2.462   3.350 -1.9829  0.1573 -0.3109
12655TIP3   OH259455   1.196   0.434   3.824 -0.1073 -0.5398  0.2529
12655TIP3    H159456   1.199   0.347   3.783 -0.1363  0.1647 -1.2979
12655TIP3    H259457   1.128   0.480   3.775 -1.4761 -0.2676  2.3653
12656TIP3   OH259458   6.323   2.975   4.533  0.1631  0.4238  0.5283
12656TIP3    H159459   6.245   3.010   4.490  0.2082  0.1140  0.1814
12656TIP3    H259460   6.373   2.935   4.461  0.5298  0.4277  0.7815
12657TIP3   OH259461   1.150   2.220  14.058 -0.0588 -0.3245 -0.5472
12657TIP3    H159462   1.127   2.312  14.073  1.4910  0.0338 -0.1860
12657TIP3    H259463   1.225   2.224  13.999 -0.7414 -1.4191 -1.5108
12658TIP3   OH259464   3.828   4.862   1.880 -0.2191 -0.1129  0.1442
12658TIP3    H159465   3.842   4.790   1.819  0.8390  0.6357 -0.5074
12658TIP3    H259466   3.888   4.845   1.952  0.3356  0.3427 -0.2096
12659TIP3   OH259467   1.260   0.190   1.970 -0.3387  0.0951  0.1012
12659TIP3    H159468   1.291   0.242   2.044  0.9616 -1.9751  1.0454
12659TIP3    H259469   1.291   0.238   1.893  3.1511 -0.5938  0.9839
12660TIP3   OH259470   5.009   2.811  14.595  0.3974 -0.3445  0.4298
12660TIP3    H159471   4.930   2.772  14.632  0.0370 -0.1377 -0.1069
12660TIP3    H259472   4.994   2.906  14.600  1.2882 -0.2789  1.7638
12661TIP3   OH259473   1.888   0.308   2.581  0.6300 -0.0476  0.8185
12661TIP3    H159474   1.823   0.320   2.513 -0.2354 -2.5051  1.1533
12661TIP3    H259475   1.967   0.279   2.535  0.3786 -0.6344  0.7591
12662TIP3   OH259476   3.776   0.197   6.470  0.0362  0.0163  0.1379
12662TIP3    H159477   3.799   0.211   6.378  0.2689 -0.9323  0.0557
12662TIP3    H259478   3.726   0.276   6.494 -1.5046 -0.4941 -1.2825
12663TIP3   OH259479   6.726   0.592   3.773  0.7153 -0.2215 -0.2326
12663TIP3    H159480   6.702   0.545   3.693  0.3265  2.0442 -1.4967
12663TIP3    H259481   6.741   0.682   3.744 -1.0530  1.0372  2.5130
12664TIP3   OH259482   4.754   5.087  12.286 -0.0374  0.0613  0.5640
12664TIP3    H159483   4.842   5.122  12.300  0.6048 -0.6229 -1.6003
12664TIP3    H259484   4.766   4.992  12.281 -0.8349 -0.0078 -0.1292
12665TIP3   OH259485   1.980   4.735  14.317 -0.6428 -0.3786 -0.1956
12665TIP3    H159486   2.074   4.749  14.328 -0.4390 -1.0864 -0.9933
12665TIP3    H259487   1.940   4.789  14.386  0.2735  1.0238 -0.7272
12666TIP3   OH259488   1.454   4.659   2.250  0.2592  0.1673 -0.1165
12666TIP3    H159489   1.427   4.751   2.255  1.0148  0.3340  1.0258
12666TIP3    H259490   1.542   4.662   2.213  0.0581 -0.1381 -0.6173
12667TIP3   OH259491   1.069   3.498   1.943 -0.7185 -0.0763  0.1049
12667TIP3    H159492   0.977   3.521   1.925 -0.4364 -0.0999 -1.4714
12667TIP3    H259493   1.111   3.582   1.960 -0.5483  0.2004 -1.5653
12668TIP3   OH259494   5.092   2.304  15.096 -0.1595  0.1274  0.3034
12668TIP3    H159495   5.069   2.286  15.187  1.1801 -0.9412  0.4483
12668TIP3    H259496   5.021   2.265  15.045  0.0736 -0.9828  0.8174
12669TIP3   OH259497   6.225   5.200   0.550  0.1694 -0.0005 -0.3967
12669TIP3    H159498   6.207   5.284   0.508 -0.7695 -0.4860 -0.9854
12669TIP3    H259499   6.142   5.174   0.589  0.5947 -0.3982  0.2440
12670TIP3   OH259500   2.366   5.383   3.653  0.3056 -0.1713 -0.1922
12670TIP3    H159501   2.358   5.476   3.673  1.3725 -0.1532  0.1344
12670TIP3    H259502   2.380   5.341   3.738 -0.6355 -0.6881 -0.2796
12671TIP3   OH259503   2.099   0.337   5.476 -0.3507 -1.2098 -0.1127
12671TIP3    H159504   2.188   0.371   5.468 -0.9606  0.4840  0.0930
12671TIP3    H259505   2.108   0.261   5.533  0.9809 -1.1024 -0.1497
12672TIP3   OH259506   5.291   4.544  16.149  0.2099  0.2150  0.2278
12672TIP3    H159507   5.330   4.471  16.102 -0.7329 -1.0862  1.4475
12672TIP3    H259508   5.337   4.621  16.115 -1.1980 -0.5435 -3.6292
12673TIP3   OH259509   4.618   1.186  17.081  0.3164  0.3895  0.1412
12673TIP3    H159510   4.675   1.226  17.147 -0.6194 -0.1588  1.3194
12673TIP3    H259511   4.556   1.134  17.132 -1.5937  1.4273 -1.0540
12674TIP3   OH259512   6.550   0.503   6.432 -0.0193  0.2883 -0.0361
12674TIP3    H159513   6.535   0.427   6.488 -1.7065  1.5079  1.2347
12674TIP3    H259514   6.645   0.515   6.431  0.1301 -0.7125  1.2880
12675TIP3   OH259515   6.416   6.012  10.934  0.1312  0.4338  0.8170
12675TIP3    H159516   6.351   6.041  10.998 -0.7469 -0.2593  0.2445
12675TIP3    H259517   6.376   6.032  10.849  0.3893 -0.6036  0.4514
12676TIP3   OH259518   1.528   5.426   3.583  0.2250 -0.0867  0.3385
12676TIP3    H159519   1.542   5.389   3.496 -1.1148 -1.5314  0.7128
12676TIP3    H259520   1.440   5.396   3.608 -0.6595  2.8538  0.9116
12677TIP3   OH259521   4.093   3.580  15.703  0.0654  0.5454 -0.5531
12677TIP3    H159522   4.034   3.527  15.651  1.1019 -0.4725 -0.7259
12677TIP3    H259523   4.046   3.597  15.785 -0.2334 -0.7211 -0.4635
12678TIP3   OH259524   4.431   2.575   0.711 -0.5523 -0.2612 -0.3093
12678TIP3    H159525   4.469   2.636   0.647 -0.1478  0.8965  1.0010
12678TIP3    H259526   4.470   2.490   0.690  0.3267  0.2959 -0.9895
12679TIP3   OH259527   6.691   6.300  14.675  0.2451 -0.7894  0.3672
12679TIP3    H159528   6.688   6.261  14.587  1.9847 -0.2556  0.0403
12679TIP3    H259529   6.670   6.228  14.734 -1.6489 -0.9944 -0.5264
12680TIP3   OH259530   3.482   3.932   5.011  0.3163  0.4080  0.3133
12680TIP3    H159531   3.448   4.003   5.065 -1.7005  0.0870 -0.4648
12680TIP3    H259532   3.408   3.906   4.956  1.2960 -1.6316 -0.1213
12681TIP3   OH259533   2.960   4.651  11.553 -0.2449 -0.1089  0.0656
12681TIP3    H159534   3.040   4.676  11.599  1.0709 -0.4854 -1.9501
12681TIP3    H259535   2.986   4.578  11.497 -2.1323 -0.6158 -0.1991
12682TIP3   OH259536   5.941   0.606  10.671 -0.1063 -0.4043  0.4377
12682TIP3    H159537   5.997   0.672  10.630 -0.0729 -1.1048 -0.6936
12682TIP3    H259538   5.890   0.570  10.598 -0.4925 -1.2626  1.1210
12683TIP3   OH259539   6.258   6.409   0.617 -0.2784 -0.0052 -0.3119
12683TIP3    H159540   6.238   6.326   0.575 -1.8895  0.4403 -0.4567
12683TIP3    H259541   6.250   6.474   0.547 -1.9736  0.6185  0.4240
12684TIP3   OH259542   6.627   2.128  15.484 -0.5371  0.2231 -0.0857
12684TIP3    H159543   6.706   2.120  15.537 -2.4490 -1.7508  2.6113
12684TIP3    H259544   6.647   2.080  15.403  1.7337  1.6362 -0.4286
12685TIP3   OH259545   1.098   3.160  12.459  0.6032  0.5861 -0.2022
12685TIP3    H159546   1.078   3.099  12.388 -2.0902  0.2132  0.8207
12685TIP3    H259547   1.143   3.107  12.525  0.8466  0.3685 -0.5440
12686TIP3   OH259548   0.299   5.433   0.464 -0.2603 -0.2194  0.5334
12686TIP3    H159549   0.330   5.399   0.548  0.9012  0.1522  0.2543
12686TIP3    H259550   0.230   5.496   0.488 -0.9926 -1.2371  1.1350
12687TIP3   OH259551   4.533   6.513  12.622  0.5140  0.0959 -0.0112
12687TIP3    H159552   4.540   6.576  12.695 -1.7486 -0.9447  1.1559
12687TIP3    H259553   4.505   6.566  12.548  0.1580  0.7209  0.5652
12688TIP3   OH259554   4.360   5.140  15.977  0.2605 -0.5277 -0.0471
12688TIP3    H159555   4.340   5.176  15.890 -0.6971 -0.4246  0.2096
12688TIP3    H259556   4.450   5.109  15.970  0.7243  0.8957 -0.6204
12689TIP3   OH259557   1.231   6.057   0.473 -0.0842  0.2634  0.1701
12689TIP3    H159558   1.320   6.033   0.501 -0.2863  0.8713  1.3483
12689TIP3    H259559   1.179   6.052   0.553 -0.6239  2.2776 -0.0435
12690TIP3   OH259560   2.691   5.064  15.747  0.0795 -0.3204 -0.2595
12690TIP3    H159561   2.719   5.013  15.823  4.1727  1.8480 -0.1499
12690TIP3    H259562   2.656   5.145  15.784  0.5180  0.0307 -0.6068
12691TIP3   OH259563   2.835   3.241   2.456 -0.3649  0.1574 -0.4690
12691TIP3    H159564   2.917   3.197   2.479 -0.9525 -1.6662 -1.7858
12691TIP3    H259565   2.845   3.329   2.492  1.7687 -0.3391  0.2473
12692TIP3   OH259566   1.158   4.926   2.680  0.1448 -0.5324 -0.1457
12692TIP3    H159567   1.115   4.875   2.612 -0.0595 -0.8650  0.2263
12692TIP3    H259568   1.086   4.962   2.732  0.3113 -1.6442  0.8840
12693TIP3   OH259569   5.064   0.279   5.215 -0.2081 -0.0416  0.3754
12693TIP3    H159570   5.056   0.223   5.292 -0.6696 -1.4294 -0.6579
12693TIP3    H259571   5.091   0.364   5.250  1.9580 -1.2903  1.8469
12694TIP3   OH259572   4.398   2.359  13.091  0.3103  0.2830  0.2125
12694TIP3    H159573   4.415   2.405  13.009 -0.3108  2.5200  1.3049
12694TIP3    H259574   4.357   2.424  13.147 -1.6762 -1.9427  1.4285
12695TIP3   OH259575   3.868   3.782   3.373  0.0085  0.4181 -0.1161
12695TIP3    H159576   3.898   3.708   3.320 -1.1906  0.5617 -1.0307
12695TIP3    H259577   3.787   3.750   3.413 -0.0180  0.9142  0.2207
12696TIP3   OH259578   2.707   5.504   4.333 -0.2031 -0.0134 -0.4667
12696TIP3    H159579   2.659   5.422   4.341 -1.2133  0.4034 -2.0528
12696TIP3    H259580   2.691   5.549   4.417  3.1933 -2.8619  1.8632
12697TIP3   OH259581   5.450   4.842   5.035  0.2057 -0.2570 -0.1665
12697TIP3    H159582   5.479   4.882   4.954  2.1261  1.2138  1.2038
12697TIP3    H259583   5.406   4.913   5.082  0.8758 -0.5678  0.9415
12698TIP3   OH259584   1.913   0.560  15.023 -0.5684  0.0837  0.1844
12698TIP3    H159585   1.845   0.627  15.027  0.2864  1.0870 -1.3794
12698TIP3    H259586   1.990   0.602  15.062 -0.6034 -0.7445  1.1558
12699TIP3   OH259587   4.349   4.168  17.077 -0.5481  0.2967 -0.1010
12699TIP3    H159588   4.380   4.230  17.143  1.4240 -2.8447  2.1155
12699TIP3    H259589   4.254   4.170  17.085 -0.5527  3.0938 -0.2354
12700TIP3   OH259590   5.732   1.154   3.598 -0.2368  0.0438  0.4911
12700TIP3    H159591   5.710   1.065   3.627 -1.2283  0.4796  1.0854
12700TIP3    H259592   5.823   1.166   3.626  0.4343 -1.3687 -1.0338
12701TIP3   OH259593   6.689   2.124   3.002 -0.2812  0.4920  0.1911
12701TIP3    H159594   6.594   2.139   2.999 -0.4420 -0.5536 -0.0168
12701TIP3    H259595   6.718   2.170   3.081 -1.0973  0.0706  0.7471
12702TIP3   OH259596   0.984   3.810   3.709 -0.7084  0.6164 -0.0125
12702TIP3    H159597   0.979   3.781   3.618 -0.7737  1.6312 -0.3333
12702TIP3    H259598   0.923   3.752   3.755  1.6389 -1.9974 -0.0518
12703TIP3   OH259599   3.277   6.669   1.816  0.0253 -0.7742  0.2147
12703TIP3    H159600   3.211   6.648   1.749  0.1487  1.1206 -0.5086
12703TIP3    H259601   3.232   6.726   1.877  0.6876 -0.3291  0.2929
12704TIP3   OH259602   0.988   2.259  14.607 -0.0774  0.0833 -0.6917
12704TIP3    H159603   0.959   2.170  14.588  0.4458  0.0027 -1.1202
12704TIP3    H259604   1.007   2.298  14.522  0.2572  0.4139 -0.4711
12705TIP3   OH259605   2.264   6.114  14.703  0.0065  0.0665  0.0439
12705TIP3    H159606   2.221   6.063  14.772 -0.5040  1.3895  0.7261
12705TIP3    H259607   2.344   6.066  14.684 -0.6638 -1.2120  0.3804
12706TIP3   OH259608   4.731   1.709   5.228 -0.1802 -0.3177 -0.4695
12706TIP3    H159609   4.736   1.758   5.310 -3.1201  0.8293 -0.8758
12706TIP3    H259610   4.722   1.617   5.254 -0.6486  0.0036  0.5066
12707TIP3   OH259611   1.971   4.478   2.235 -0.1109  0.1086  0.2075
12707TIP3    H159612   1.962   4.463   2.329 -0.7756  0.2890  0.1741
12707TIP3    H259613   2.013   4.398   2.202  0.1404  0.0554  0.6639
12708TIP3   OH259614   1.198   0.980  16.985  0.4641 -0.5359  0.2950
12708TIP3    H159615   1.124   0.986  16.925  0.3035  0.8556  0.6135
12708TIP3    H259616   1.249   1.060  16.968  0.7137 -0.4042  1.6050
12709TIP3   OH259617   0.138   2.397   5.754  0.4327  0.3595 -0.4220
12709TIP3    H159618   0.137   2.400   5.849  1.3440 -1.5230 -0.3243
12709TIP3    H259619   0.127   2.488   5.727 -0.9205  0.7869  1.4518
12710TIP3   OH259620   3.402   3.079   6.004 -0.3216 -0.3847 -0.0025
12710TIP3    H159621   3.468   3.141   6.035 -1.4212  1.5474 -1.3782
12710TIP3    H259622   3.395   3.014   6.073 -0.6723  2.2136  2.5239
12711TIP3   OH259623   3.193   2.021   2.265 -0.0300  0.7826  0.8074
12711TIP3    H159624   3.191   1.925   2.260 -0.2025  0.8695 -1.0270
12711TIP3    H259625   3.258   2.047   2.200 -0.6151  1.9495  0.6866
12712TIP3   OH259626   1.565   0.212  12.464 -0.1805 -0.2864  0.1306
12712TIP3    H159627   1.653   0.183  12.491 -0.3619 -0.5938  0.4004
12712TIP3    H259628   1.515   0.213  12.546 -0.3911  0.0167 -0.0038
12713TIP3   OH259629   2.975   3.484   0.837 -0.1137 -0.0071 -0.3145
12713TIP3    H159630   2.971   3.575   0.865 -1.6132 -0.3793  0.7825
12713TIP3    H259631   3.033   3.484   0.761 -0.4878  1.9290 -0.6229
12714TIP3   OH259632   6.628   2.943   5.404  0.0348  0.5678  0.2723
12714TIP3    H159633   6.638   2.921   5.311  1.1337  0.1276  0.4824
12714TIP3    H259634   6.538   2.918   5.425  0.3370 -1.0412 -0.2324
12715TIP3   OH259635   6.564   5.799   1.959  0.3908  0.0404 -0.1198
12715TIP3    H159636   6.527   5.806   1.871 -0.4586 -0.5151  0.1918
12715TIP3    H259637   6.554   5.887   1.996  0.3778  0.1726 -0.4389
12716TIP3   OH259638   4.381   1.000  11.444  0.4037  0.0745 -0.4925
12716TIP3    H159639   4.346   0.922  11.401  0.4154  0.0547 -0.4662
12716TIP3    H259640   4.303   1.046  11.478  0.5877 -1.7237  2.5616
12717TIP3   OH259641   1.267   1.323   5.686  0.0340  0.5274 -0.6391
12717TIP3    H159642   1.206   1.249   5.687 -0.1057  0.6378 -0.9295
12717TIP3    H259643   1.306   1.321   5.598  0.7469  0.2150 -0.3197
12718TIP3   OH259644   0.388   2.733   4.841 -0.0325  0.0927  0.0174
12718TIP3    H159645   0.443   2.796   4.795 -1.7097  2.7455  1.5118
12718TIP3    H259646   0.299   2.751   4.810 -0.7092 -0.5687  1.5000
12719TIP3   OH259647   6.113   2.986   5.408 -0.4670  0.1836 -0.4813
12719TIP3    H159648   6.151   3.074   5.409 -1.3447  0.5819 -1.6373
12719TIP3    H259649   6.150   2.943   5.485  0.2919  1.4265 -0.1445
12720TIP3   OH259650   1.127   6.124  12.110 -0.2526  0.1638 -0.1352
12720TIP3    H159651   1.118   6.206  12.062 -1.2687  0.6179  0.8128
12720TIP3    H259652   1.202   6.081  12.070  0.2652  1.5401 -0.6667
12721TIP3   OH259653   1.005   6.705  14.618 -0.2952 -0.1467  0.0412
12721TIP3    H159654   1.083   6.669  14.659 -1.7598 -0.9538  2.2463
12721TIP3    H259655   0.944   6.631  14.613 -1.7408  0.9809  0.4883
12722TIP3   OH259656   6.323   4.815  15.067 -0.2144  0.4876 -0.2617
12722TIP3    H159657   6.404   4.860  15.045  0.4340 -0.8346 -0.6056
12722TIP3    H259658   6.351   4.734  15.111 -1.3951  1.5087  2.5389
12723TIP3   OH259659   0.888   4.342  15.173  0.3151  0.0020  0.1994
12723TIP3    H159660   0.835   4.375  15.245 -0.5738 -0.9158 -0.0233
12723TIP3    H259661   0.978   4.364  15.197  0.0629 -0.6047  1.7555
12724TIP3   OH259662   4.494   2.143   0.270  0.6014  0.6073 -0.4288
12724TIP3    H159663   4.429   2.206   0.300 -0.4110 -0.9272  0.7201
12724TIP3    H259664   4.449   2.093   0.201  1.5166  1.3723 -1.5955
12725TIP3   OH259665   1.041   1.374  10.959  0.5894 -0.1820 -0.0926
12725TIP3    H159666   1.076   1.385  11.048 -0.4006  0.7499  0.1982
12725TIP3    H259667   1.072   1.451  10.912 -0.6047  0.3858  0.0276
12726TIP3   OH259668   2.714   3.884  16.051  0.2366 -0.1030 -0.2921
12726TIP3    H159669   2.673   3.946  16.111  0.8746  1.2014 -1.1941
12726TIP3    H259670   2.803   3.915  16.040 -0.0542  0.0839 -2.4438
12727TIP3   OH259671   5.508   5.396   1.069 -0.0411  0.0210 -0.0938
12727TIP3    H159672   5.503   5.443   1.152 -0.1742 -1.6439  0.8624
12727TIP3    H259673   5.602   5.379   1.056 -0.1262 -0.8690  0.3948
12728TIP3   OH259674   6.717   2.577   0.026 -0.2986 -0.4305  0.4685
12728TIP3    H159675   6.720   2.487   0.060 -0.8219 -0.0794  1.4657
12728TIP3    H259676   6.676   2.627   0.096  1.2439  0.8415  0.4795
12729TIP3   OH259677   1.646   0.078   2.572  0.6271 -0.5179 -0.0281
12729TIP3    H159678   1.665   0.095   2.664  2.3893 -2.8555  0.0662
12729TIP3    H259679   1.634  -0.017   2.567  0.1616 -0.3685 -2.1560
12730TIP3   OH259680   4.868   5.945   1.877 -0.5509 -0.2976  0.3484
12730TIP3    H159681   4.873   5.867   1.822 -0.7499 -0.4289  0.5136
12730TIP3    H259682   4.955   5.953   1.916 -1.0340 -1.4704  1.7335
12731TIP3   OH259683   5.146   0.027  14.958 -0.7589 -0.0803  0.4581
12731TIP3    H159684   5.125   0.075  14.877 -0.1605 -1.1478 -0.3475
12731TIP3    H259685   5.156  -0.064  14.930 -0.3327 -0.4279  1.7064
12732TIP3   OH259686   2.166   2.872   0.474  0.6017  0.1339 -0.2175
12732TIP3    H159687   2.160   2.785   0.434 -0.1693  0.8270 -1.6747
12732TIP3    H259688   2.254   2.876   0.511  1.6210 -0.2800 -2.5014
12733TIP3   OH259689   1.933   6.738  15.891 -0.3294 -0.1057  0.5217
12733TIP3    H159690   1.918   6.677  15.963 -3.1169  0.5515  0.5390
12733TIP3    H259691   2.017   6.780  15.912 -0.7322 -0.4610  2.9970
12734TIP3   OH259692   4.623   2.271   5.372  0.0344  0.3552  0.3243
12734TIP3    H159693   4.629   2.232   5.459 -1.0493  0.4820  0.4601
12734TIP3    H259694   4.532   2.299   5.364  0.4625  1.6133 -0.3091
12735TIP3   OH259695   4.714   6.796  11.798  0.1878  0.3718 -0.2127
12735TIP3    H159696   4.688   6.886  11.818 -0.2737  0.3099 -0.5256
12735TIP3    H259697   4.797   6.805  11.752  0.9099  0.5523  1.1107
12736TIP3   OH259698   5.259   4.940  13.594 -0.0193 -0.0732 -0.0968
12736TIP3    H159699   5.281   4.917  13.684  0.2565  0.0903 -0.1212
12736TIP3    H259700   5.320   4.890  13.541  0.8935  1.0621 -0.1360
12737TIP3   OH259701   1.613   1.633   1.588 -0.3349  0.2681  0.5055
12737TIP3    H159702   1.636   1.708   1.643 -1.5892  0.3217  0.9728
12737TIP3    H259703   1.524   1.611   1.615 -0.4570 -0.5497 -0.5760
12738TIP3   OH259704   0.165   5.230  16.039 -0.6374 -0.0609 -0.1484
12738TIP3    H159705   0.097   5.286  16.000 -0.0834 -1.1070 -2.7169
12738TIP3    H259706   0.246   5.281  16.030 -0.8048  0.5221  1.4818
12739TIP3   OH259707   1.299   3.480  11.413  0.2774  1.1614  0.7455
12739TIP3    H159708   1.334   3.466  11.325  1.5676 -2.7643  1.7693
12739TIP3    H259709   1.204   3.483  11.401  0.3528 -0.8039 -0.6800
12740TIP3   OH259710   2.924   5.918  14.005  0.4025  0.7097  0.0022
12740TIP3    H159711   2.839   5.887  14.034  0.0413  2.0544  0.4293
12740TIP3    H259712   2.974   5.839  13.986 -0.3385 -0.1374  1.5036
12741TIP3   OH259713   6.393   2.006  16.828  0.0805 -0.6828 -0.3110
12741TIP3    H159714   6.358   1.949  16.760 -0.0243  0.2991 -1.0800
12741TIP3    H259715   6.446   2.070  16.782  0.0977 -0.0713  0.5366
12742TIP3   OH259716   5.727   1.864   2.748 -0.2039  0.2087 -0.6408
12742TIP3    H159717   5.764   1.780   2.720 -1.3825 -0.4593 -0.2414
12742TIP3    H259718   5.781   1.891   2.822 -0.3858 -0.6730 -0.1739
12743TIP3   OH259719   3.927   6.466  11.707  0.9606 -0.3431 -0.2776
12743TIP3    H159720   3.891   6.390  11.660 -0.5534  0.1043  0.1311
12743TIP3    H259721   3.850   6.508  11.745  2.0442  0.0886  1.4290
12744TIP3   OH259722   1.130   0.410  11.092 -0.1512  0.2641  0.2785
12744TIP3    H159723   1.165   0.332  11.049 -0.1819  0.4216 -0.0350
12744TIP3    H259724   1.188   0.481  11.066  1.9200 -0.2199  3.3215
12745TIP3   OH259725   3.737   2.067  16.144  0.0392  0.1458 -0.2928
12745TIP3    H159726   3.810   2.038  16.198  0.2220  1.1156 -0.0133
12745TIP3    H259727   3.659   2.028  16.184  0.2572  0.2257  0.2074
12746TIP3   OH259728   6.437   5.308   3.167  0.3744  0.3990  0.4058
12746TIP3    H159729   6.457   5.312   3.261  0.3726 -0.2308  0.4344
12746TIP3    H259730   6.510   5.258   3.130  0.4053  0.7023  0.0639
12747TIP3   OH259731   5.115   2.079  14.867 -0.6746 -0.4413  0.3836
12747TIP3    H159732   5.166   2.031  14.801 -0.0338  1.1928 -0.3362
12747TIP3    H259733   5.179   2.135  14.911 -1.9993  2.5836 -1.3851
12748TIP3   OH259734   1.330   0.419  16.134 -0.2010 -0.2122  0.5411
12748TIP3    H159735   1.363   0.448  16.049 -3.2128  1.5188 -0.1315
12748TIP3    H259736   1.389   0.348  16.161  2.0273  0.6224 -1.9996
12749TIP3   OH259737   1.857   0.912   6.059  0.1388  0.0876  0.0427
12749TIP3    H159738   1.784   0.965   6.091 -0.8950 -0.4902 -1.2750
12749TIP3    H259739   1.928   0.975   6.047 -0.2304  0.7138  1.0558
12750TIP3   OH259740   4.856   6.789  17.232  0.7727  0.1235 -0.0120
12750TIP3    H159741   4.785   6.836  17.190 -1.3511 -1.8208  1.3015
12750TIP3    H259742   4.847   6.810  17.325  1.2615 -0.9489  0.2869
12751TIP3   OH259743   2.108   4.481  12.673  0.5132 -0.1121  0.2930
12751TIP3    H159744   2.170   4.429  12.723  0.7889  0.9243  1.0345
12751TIP3    H259745   2.122   4.571  12.702 -1.6144  0.1042  0.7886
12752TIP3   OH259746   1.442   0.469  11.299  0.0570 -0.4664 -0.0424
12752TIP3    H159747   1.519   0.517  11.329 -0.3036 -0.8725  1.5921
12752TIP3    H259748   1.438   0.392  11.356 -2.0327 -0.0107  0.4673
12753TIP3   OH259749   2.630   0.022   6.187 -0.0423  0.2943 -0.1964
12753TIP3    H159750   2.687   0.091   6.221 -2.8702  2.3689  0.5676
12753TIP3    H259751   2.673  -0.060   6.213  1.3259  1.7958  2.4837
12754TIP3   OH259752   4.773   1.396  16.659  0.4831  0.1820  0.1652
12754TIP3    H159753   4.787   1.343  16.738  0.9661 -0.0422 -0.0671
12754TIP3    H259754   4.845   1.372  16.601 -0.5397 -0.5065 -0.8163
12755TIP3   OH259755   4.949   5.902  16.751 -0.3504 -0.1653 -0.0555
12755TIP3    H159756   4.943   5.969  16.683 -0.4508  0.5229  0.6196
12755TIP3    H259757   4.934   5.950  16.832  1.6933 -0.6394  0.6215
12756TIP3   OH259758   3.144   0.235   3.768  0.0691  0.1406  0.3487
12756TIP3    H159759   3.128   0.197   3.854  0.1523 -1.1028 -0.1728
12756TIP3    H259760   3.058   0.238   3.726 -0.2344  2.3032  1.0902
12757TIP3   OH259761   3.715   2.072  11.781  0.1624 -0.4592  0.5160
12757TIP3    H159762   3.785   2.129  11.813  0.3510  0.6869 -1.8465
12757TIP3    H259763   3.647   2.079  11.848  0.5625  1.8369  0.7412
12758TIP3   OH259764   4.963   0.968   1.439 -0.3136  0.8924  0.3393
12758TIP3    H159765   4.946   0.914   1.361  0.6964 -0.6366  1.1449
12758TIP3    H259766   5.039   1.021   1.415 -0.1980  0.6530  0.1648
12759TIP3   OH259767   3.972   5.505   3.189  0.0486 -0.1637  0.2293
12759TIP3    H159768   3.909   5.447   3.146  1.1228 -0.1525 -1.3892
12759TIP3    H259769   4.054   5.456   3.188  0.6784  0.8972 -0.0420
12760TIP3   OH259770   0.876   2.777   0.886 -0.4051  0.2957  0.5101
12760TIP3    H159771   0.847   2.805   0.799 -0.4341  0.1940  0.4868
12760TIP3    H259772   0.854   2.850   0.943  0.9026  0.9482  0.1876
12761TIP3   OH259773   5.796   5.612  16.746 -0.3392 -0.2990  0.3832
12761TIP3    H159774   5.739   5.602  16.822  0.3679  2.1477  1.3009
12761TIP3    H259775   5.798   5.707  16.730 -0.7212 -0.7790 -2.8983
12762TIP3   OH259776   4.840   1.784   0.987  0.3006 -0.0798  0.1661
12762TIP3    H159777   4.922   1.793   0.938  0.1711  3.1899  0.4033
12762TIP3    H259778   4.787   1.859   0.958 -1.0879  0.0049  2.8099
12763TIP3   OH259779   5.946   3.224  11.832  0.9683  0.1614  0.1205
12763TIP3    H159780   5.973   3.315  11.842 -1.9062  1.2030 -1.2689
12763TIP3    H259781   5.983   3.180  11.909  2.0347  2.5429  1.0265
12764TIP3   OH259782   3.544   2.070  16.707 -0.2574 -0.4984 -0.1485
12764TIP3    H159783   3.586   2.151  16.736 -1.4251  0.2319 -0.4829
12764TIP3    H259784   3.526   2.022  16.787 -1.0333  0.3068  0.1700
12765TIP3   OH259785   2.742   0.724   2.896 -0.0815  0.4632  0.0764
12765TIP3    H159786   2.665   0.721   2.838 -0.2617  0.8225  0.2958
12765TIP3    H259787   2.727   0.800   2.952 -0.5039 -0.5688  1.4138
12766TIP3   OH259788   4.758   4.472  16.657  0.1153 -0.6370 -0.0796
12766TIP3    H159789   4.666   4.444  16.656 -0.4279  0.8770  1.6463
12766TIP3    H259790   4.781   4.471  16.750  1.1718  0.9972 -0.3056
12767TIP3   OH259791   0.664   4.919  13.308 -0.2532 -0.5349 -0.4189
12767TIP3    H159792   0.636   4.857  13.241  0.1256 -3.1664  1.7651
12767TIP3    H259793   0.635   4.881  13.390  2.1355  0.9646  1.2075
12768TIP3   OH259794   2.486   6.682  13.311  0.0734  0.0860 -0.1852
12768TIP3    H159795   2.418   6.702  13.374 -0.1808  0.9895 -0.7360
12768TIP3    H259796   2.475   6.748  13.242  1.7278  0.4948 -0.0945
12769TIP3   OH259797   4.153   3.496  16.874  0.4856  0.1726 -0.3633
12769TIP3    H159798   4.063   3.480  16.845  0.4643  2.5204 -1.7061
12769TIP3    H259799   4.168   3.431  16.942 -1.4945 -1.6457 -1.6139
12770TIP3   OH259800   6.429   3.814   4.157  0.0115  0.1011  0.4133
12770TIP3    H159801   6.411   3.770   4.240  0.0475 -0.5808  0.0581
12770TIP3    H259802   6.369   3.889   4.157  0.9444  0.8737  1.6578
12771TIP3   OH259803   6.321   1.857  17.072 -0.4062  0.3274  0.0034
12771TIP3    H159804   6.347   1.893  16.987 -1.1507 -1.9363 -1.2193
12771TIP3    H259805   6.227   1.843  17.064 -0.4645 -0.0202  1.1821
12772TIP3   OH259806   5.820   0.740  16.313  0.5460 -0.3656  0.1611
12772TIP3    H159807   5.910   0.741  16.346  0.8805  0.1658 -0.7550
12772TIP3    H259808   5.810   0.655  16.271  0.3732 -0.7278  0.9256
12773TIP3   OH259809   5.322   1.297   0.052  0.2070  0.1111  0.4329
12773TIP3    H159810   5.375   1.256   0.119 -0.1688 -1.0573  0.0233
12773TIP3    H259811   5.372   1.284  -0.029  0.3868  1.0094  0.3959
12774TIP3   OH259812   2.781   3.251  13.301 -0.8398 -0.0761  0.1439
12774TIP3    H159813   2.803   3.164  13.269  1.3112  0.6522 -0.4527
12774TIP3    H259814   2.768   3.303  13.222 -0.6611  0.5008  0.4896
12775TIP3   OH259815   4.889   2.650  16.529  0.0325  0.3108  0.1575
12775TIP3    H159816   4.920   2.590  16.597 -2.4811  0.4167  1.4443
12775TIP3    H259817   4.960   2.651  16.464  2.2032 -0.3259  2.4209
12776TIP3   OH259818   6.156   1.144   1.505 -0.1277 -0.1708  0.1341
12776TIP3    H159819   6.092   1.203   1.546  0.3277 -0.9025  1.9343
12776TIP3    H259820   6.132   1.143   1.412 -2.4355 -0.0597  0.7047
12777TIP3   OH259821   5.825   4.922   1.886  0.2928 -0.2376 -0.3022
12777TIP3    H159822   5.850   4.911   1.978 -1.7637  0.0765  0.3294
12777TIP3    H259823   5.766   4.849   1.868 -0.5049  0.5492 -0.9279
12778TIP3   OH259824   3.040   0.198   1.239  0.5133 -0.0601 -0.1217
12778TIP3    H159825   3.100   0.182   1.166 -0.8539  0.2356 -1.3375
12778TIP3    H259826   2.999   0.282   1.218 -0.8011 -0.5771  0.3563
12779TIP3   OH259827   3.919   5.920  15.475 -0.1695 -0.1347  0.8923
12779TIP3    H159828   3.834   5.894  15.510 -0.7061  0.1954 -0.1343
12779TIP3    H259829   3.939   6.002  15.520 -0.5126 -0.0822  0.9493
12780TIP3   OH259830   1.088   1.600  12.732  0.5216  0.3202  0.8368
12780TIP3    H159831   1.136   1.674  12.770  1.1089  1.2724 -1.6290
12780TIP3    H259832   1.013   1.640  12.688  1.0770 -0.4677 -0.8856
12781TIP3   OH259833   0.619   4.200   2.247  0.0231  0.6175  0.6414
12781TIP3    H159834   0.529   4.177   2.221  0.1071 -2.5669  2.8537
12781TIP3    H259835   0.607   4.262   2.319 -0.5425 -1.6396  2.5724
12782TIP3   OH259836   5.335   2.919   3.352 -0.7202 -0.2193 -0.1736
12782TIP3    H159837   5.399   2.849   3.361 -1.8853 -1.1183  1.2995
12782TIP3    H259838   5.274   2.888   3.285 -0.8054 -0.2693 -0.0725
12783TIP3   OH259839   2.079   3.542   4.947 -0.1409  0.4989  0.0474
12783TIP3    H159840   2.122   3.601   5.008  0.0160  1.1395 -0.6755
12783TIP3    H259841   2.126   3.459   4.956  0.0009  0.6449  0.6492
12784TIP3   OH259842   5.031   2.152   1.860  0.4396 -0.9610  0.7042
12784TIP3    H159843   5.101   2.149   1.795 -0.9736 -0.9245 -0.8538
12784TIP3    H259844   4.977   2.227   1.833 -0.1771 -0.9735  1.9019
12785TIP3   OH259845   2.079   3.500   6.747  0.2818 -0.2403  0.1709
12785TIP3    H159846   2.064   3.519   6.655 -1.1103  1.4661  0.7074
12785TIP3    H259847   2.026   3.423   6.765  2.1753 -1.8347 -0.9165
12786TIP3   OH259848   1.481   5.251   5.258  0.3388 -0.1937 -0.6962
12786TIP3    H159849   1.460   5.171   5.306 -1.7052 -0.3106 -1.7263
12786TIP3    H259850   1.574   5.243   5.238  0.6802 -1.2250  1.1857
12787TIP3   OH259851   5.667   6.749   0.265  0.0554  0.1112  0.6261
12787TIP3    H159852   5.607   6.674   0.268 -0.2405  0.2895 -0.5827
12787TIP3    H259853   5.672   6.772   0.173  0.3259  1.4498  0.9604
12788TIP3   OH259854   6.451   2.977  12.792 -0.3008 -0.3225  0.0983
12788TIP3    H159855   6.357   2.968  12.775 -0.2988  0.2403 -0.2269
12788TIP3    H259856   6.491   2.905  12.742 -0.4619  0.1377 -0.7036
12789TIP3   OH259857   0.528   2.741  12.597 -0.1915 -0.6864 -0.0782
12789TIP3    H159858   0.531   2.686  12.519  0.9130 -1.1933  0.3071
12789TIP3    H259859   0.568   2.687  12.666 -0.2564  0.1180  0.6006
12790TIP3   OH259860   4.201   3.897  14.961  1.1941 -0.0504 -0.1355
12790TIP3    H159861   4.194   3.841  15.038 -2.2305 -0.2924 -0.5334
12790TIP3    H259862   4.148   3.974  14.983  1.1706  0.4274 -1.8030
12791TIP3   OH259863   5.761   6.389  16.845 -0.3853 -0.3465  0.0690
12791TIP3    H159864   5.768   6.378  16.940 -1.7606 -0.5652  0.1475
12791TIP3    H259865   5.756   6.484  16.832  1.9141 -0.1897  0.0443
12792TIP3   OH259866   6.037   6.205  13.256  0.5264 -0.0249  0.1236
12792TIP3    H159867   6.023   6.193  13.163 -0.9022 -0.3529  0.3700
12792TIP3    H259868   6.078   6.124  13.285  0.0402 -0.3308 -0.0392
12793TIP3   OH259869   4.977   3.002   2.678  0.8619 -0.1736  0.7035
12793TIP3    H159870   4.884   2.978   2.684  0.1331  2.1131 -0.9528
12793TIP3    H259871   4.995   3.046   2.761  0.7518 -1.4839  1.4407
12794TIP3   OH259872   0.338   3.871   3.049  0.1799  0.0580 -0.0779
12794TIP3    H159873   0.354   3.906   3.137 -2.7124  0.7163  0.2503
12794TIP3    H259874   0.344   3.947   2.991  1.4304 -0.2599 -0.3752
12795TIP3   OH259875   6.733   6.396   1.778  0.4302  0.4109 -0.8158
12795TIP3    H159876   6.638   6.406   1.777  0.4354  0.6367  0.3253
12795TIP3    H259877   6.748   6.304   1.756 -0.1026  0.0554  0.2948
12796TIP3   OH259878   2.123   2.977  14.728  0.4787  0.1496  0.3713
12796TIP3    H159879   2.146   2.920  14.801 -0.0892 -0.3696  0.1456
12796TIP3    H259880   2.186   2.953  14.659 -0.8334 -1.4430 -0.3299
12797TIP3   OH259881   6.280   3.418   2.170 -0.6119  0.1713 -0.3545
12797TIP3    H159882   6.288   3.324   2.157 -1.7597  0.0660 -0.3863
12797TIP3    H259883   6.277   3.428   2.265 -3.0543 -0.0820 -0.3731
12798TIP3   OH259884   6.548   1.226   2.083  0.0114 -0.4478 -0.1421
12798TIP3    H159885   6.636   1.212   2.118 -0.3999 -0.2720  0.9902
12798TIP3    H259886   6.524   1.314   2.114  0.5622  0.6909 -2.8630
12799TIP3   OH259887   0.927   3.037   0.490  0.6077  0.0426  0.3826
12799TIP3    H159888   0.932   2.962   0.550  1.9206 -0.1497  0.0464
12799TIP3    H259889   0.851   3.018   0.435  0.1707 -0.4132  1.1243
12800TIP3   OH259890   5.287   1.900  12.462  0.2938  0.1576 -0.6077
12800TIP3    H159891   5.367   1.942  12.494 -0.0545  1.3734 -1.3055
12800TIP3    H259892   5.220   1.925  12.526  0.1027  0.6053 -0.9804
12801TIP3   OH259893   5.904   0.848   2.104 -0.3564 -0.6841 -0.4759
12801TIP3    H159894   5.886   0.934   2.142  0.6514 -0.6927  0.0267
12801TIP3    H259895   5.975   0.864   2.042 -0.0456 -1.1943 -0.2498
12802TIP3   OH259896   0.510   1.317   3.975  0.2037 -0.0114  0.0705
12802TIP3    H159897   0.547   1.354   3.895 -0.4524  0.7624  0.1148
12802TIP3    H259898   0.535   1.224   3.972 -2.3491 -0.7209 -2.5853
12803TIP3   OH259899   1.511   5.264  15.285  0.5152 -0.6983 -0.1898
12803TIP3    H159900   1.453   5.199  15.324 -0.4824  0.4503  0.2657
12803TIP3    H259901   1.533   5.323  15.357 -1.8130  1.7979 -1.4291
12804TIP3   OH259902   0.805   3.715   5.537  0.2948 -0.5355  0.5116
12804TIP3    H159903   0.753   3.677   5.467 -1.2342  0.8437  0.8581
12804TIP3    H259904   0.788   3.660   5.613 -1.5695  0.5709  0.9075
12805TIP3   OH259905   6.293   2.834  16.512  0.2571 -0.2092 -0.4543
12805TIP3    H159906   6.299   2.798  16.423  0.3022  0.5845 -0.7737
12805TIP3    H259907   6.381   2.866  16.531 -0.1821  1.2761 -0.8335
12806TIP3   OH259908   0.071   4.286  16.095  0.2708 -0.7861 -0.3225
12806TIP3    H159909   0.135   4.356  16.089 -1.0925  0.4981 -0.3461
12806TIP3    H259910   0.027   4.286  16.009 -2.2787  0.8954  0.8999
12807TIP3   OH259911   2.104   4.015  11.304  0.3347 -0.1244 -0.5276
12807TIP3    H159912   2.083   3.997  11.212  1.7173  0.3998 -0.9545
12807TIP3    H259913   2.154   3.939  11.333  0.5994  0.0811 -0.4453
12808TIP3   OH259914   6.680   0.786   4.264  0.8118  0.3965  0.1100
12808TIP3    H159915   6.653   0.733   4.189  0.9362 -0.6857  0.8281
12808TIP3    H259916   6.688   0.875   4.228 -1.8003  0.4077 -0.5389
12809TIP3   OH259917   3.684   0.752  15.345 -0.2781 -0.4785 -0.1542
12809TIP3    H159918   3.649   0.777  15.259  0.4841  0.0817 -0.3089
12809TIP3    H259919   3.607   0.727  15.396 -0.6037 -2.2759 -1.4644
12810TIP3   OH259920   6.552   4.540  13.549 -0.1307 -0.2408 -0.2256
12810TIP3    H159921   6.532   4.535  13.456  0.2038 -0.8833 -0.2645
12810TIP3    H259922   6.483   4.490  13.592 -0.3570  0.1610 -0.1143
12811TIP3   OH259923   0.066   6.031  10.321  0.1958  0.7643  1.3121
12811TIP3    H159924   0.111   6.006  10.401  0.6417 -0.3345  0.7330
12811TIP3    H259925  -0.020   5.989  10.327  0.6853 -0.3524  0.6609
12812TIP3   OH259926   4.782   4.476  16.924 -0.3813 -0.0106 -0.9674
12812TIP3    H159927   4.827   4.560  16.928 -0.0496 -0.1466 -1.9572
12812TIP3    H259928   4.697   4.493  16.966  0.4493  0.3081  0.6453
12813TIP3   OH259929   1.818   5.932  14.914 -0.1664  0.4012 -0.3275
12813TIP3    H159930   1.812   6.020  14.876  0.4604  1.2934  1.5751
12813TIP3    H259931   1.740   5.887  14.882 -1.3104  2.1584 -0.1118
12814TIP3   OH259932   5.321   2.629  15.543  0.1962 -0.4986 -0.3080
12814TIP3    H159933   5.285   2.582  15.467  0.3860 -0.2151 -0.5724
12814TIP3    H259934   5.298   2.574  15.618 -3.0965  0.9302 -0.1797
12815TIP3   OH259935   2.291   2.054  12.956  0.2442 -0.2346 -0.2070
12815TIP3    H159936   2.277   2.080  13.047  3.0152 -2.3439  0.8991
12815TIP3    H259937   2.332   2.130  12.915 -0.3738  0.4747  0.4812
12816TIP3   OH259938   1.301   0.586  16.824  0.4447 -0.7401  0.3983
12816TIP3    H159939   1.237   0.652  16.797  0.1857 -1.3861 -0.5991
12816TIP3    H259940   1.336   0.552  16.742  1.3980 -1.0505  0.9270
12817TIP3   OH259941   0.281   3.339   1.782  0.0310  0.0349 -0.5865
12817TIP3    H159942   0.207   3.293   1.823 -0.3265  0.3693 -0.8589
12817TIP3    H259943   0.265   3.331   1.688 -0.0576  0.7668 -0.6328
12818TIP3   OH259944   3.362   1.897   5.117 -0.2229  1.1420 -0.1772
12818TIP3    H159945   3.321   1.822   5.161 -3.5819  1.6188 -2.2854
12818TIP3    H259946   3.368   1.965   5.184 -2.8356  0.9948  0.2597
12819TIP3   OH259947   2.572   4.396  11.400 -0.5959 -0.0830  0.0129
12819TIP3    H159948   2.618   4.478  11.383 -1.1925  0.4253  0.7903
12819TIP3    H259949   2.623   4.329  11.355  1.6805  0.2625  1.9904
12820TIP3   OH259950   0.349   2.763  14.083 -0.0735 -0.1636 -0.3579
12820TIP3    H159951   0.410   2.828  14.118 -0.5745 -0.1279  0.4517
12820TIP3    H259952   0.329   2.706  14.157 -2.0077  0.5810 -0.2820
12821TIP3   OH259953   0.854   6.620  12.214  0.4000  0.4187  0.3378
12821TIP3    H159954   0.796   6.548  12.236  1.2006 -0.1672  0.5550
12821TIP3    H259955   0.900   6.640  12.296 -0.0477  1.3850  0.3594
12822TIP3   OH259956   3.466   0.312  15.436  0.2525 -0.3437  0.4617
12822TIP3    H159957   3.512   0.379  15.386  1.7249 -1.2089  0.6244
12822TIP3    H259958   3.439   0.247  15.371 -1.4846  0.5385  0.2541
12823TIP3   OH259959   6.576   0.679   4.961 -0.4061 -0.2823  0.6268
12823TIP3    H159960   6.600   0.678   5.053 -2.8664 -0.9001  1.2996
12823TIP3    H259961   6.549   0.589   4.942  1.8934 -0.6558 -1.2418
12824TIP3   OH259962   0.028   4.788   5.550  0.4757 -0.0774 -0.2204
12824TIP3    H159963   0.073   4.794   5.466  2.0563 -0.9880  0.5295
12824TIP3    H259964   0.054   4.703   5.585 -1.6581 -0.5116  0.3613
12825TIP3   OH259965   5.239   1.981   2.598 -0.3072 -0.3500  0.2643
12825TIP3    H159966   5.172   2.024   2.652 -0.0121  0.6513 -0.1571
12825TIP3    H259967   5.299   1.943   2.662 -1.1003 -0.9974  0.6457
12826TIP3   OH259968   0.289   1.524  15.743 -0.0934 -0.1264 -0.2940
12826TIP3    H159969   0.309   1.432  15.730  1.9778  0.1805  0.5654
12826TIP3    H259970   0.200   1.524  15.779 -1.0269 -1.6218 -2.5000
12827TIP3   OH259971   6.055   0.520   5.109 -0.3332  0.2519 -0.2063
12827TIP3    H159972   6.050   0.435   5.155 -0.6741 -1.1540 -2.7600
12827TIP3    H259973   6.144   0.550   5.125 -0.3460 -0.3485  1.1193
12828TIP3   OH259974   2.167   6.763  15.495 -0.0449  0.1550 -0.0517
12828TIP3    H159975   2.107   6.704  15.541 -0.1609  0.5499  0.3012
12828TIP3    H259976   2.241   6.773  15.555 -0.1337  0.5607 -0.0094
12829TIP3   OH259977   1.264   4.914  14.101 -0.0132 -0.2868  0.1812
12829TIP3    H159978   1.356   4.906  14.127  0.0473  1.2807  0.4676
12829TIP3    H259979   1.245   4.832  14.055  1.3382 -0.8954  0.6903
12830TIP3   OH259980   2.213   0.955  12.888 -0.1764  0.5913 -0.0666
12830TIP3    H159981   2.179   0.990  12.806 -2.0746 -2.3429 -0.6191
12830TIP3    H259982   2.157   0.994  12.956  0.1421  1.5149 -0.3304
12831TIP3   OH259983   5.414   6.719   4.518 -0.8161 -0.1545  0.0753
12831TIP3    H159984   5.463   6.720   4.435 -0.1775 -0.2356  0.4489
12831TIP3    H259985   5.379   6.807   4.526 -1.1570 -0.2383 -0.4427
12832TIP3   OH259986   6.029   1.690  13.122  0.3354  0.2735 -0.2454
12832TIP3    H159987   6.003   1.598  13.112  0.4545 -0.0198  1.9569
12832TIP3    H259988   5.946   1.736  13.136  0.3462  0.4200 -0.6365
12833TIP3   OH259989   0.341   6.448   6.716  0.8336  0.4625 -0.1018
12833TIP3    H159990   0.365   6.540   6.712  0.6172  0.5011 -0.5106
12833TIP3    H259991   0.310   6.427   6.628  0.8690  0.0040 -0.0076
12834TIP3   OH259992   0.288   4.975   1.835  0.2712  0.8477  0.0541
12834TIP3    H159993   0.359   4.939   1.782  0.3587 -2.0295  1.9846
12834TIP3    H259994   0.219   4.909   1.830  0.0695  0.7724  3.0219
12835TIP3   OH259995   6.214   4.315  12.502  0.6132 -0.1760  0.0902
12835TIP3    H159996   6.148   4.246  12.517 -1.2795  1.4260 -0.6186
12835TIP3    H259997   6.298   4.270  12.509 -0.4673 -1.8441  3.3424
12836TIP3   OH259998   1.760   0.393   0.326  0.0475  0.0177 -0.0480
12836TIP3    H159999   1.693   0.385   0.258 -2.6966  0.9371  2.4127
12836TIP3    H260000   1.800   0.478   0.312 -0.9317  0.4655 -0.1810
12837TIP3   OH260001   0.607   5.662  15.077  0.2064  0.3786  0.9197
12837TIP3    H160002   0.629   5.577  15.039 -2.2673  0.6133 -1.2133
12837TIP3    H260003   0.537   5.642  15.140 -0.8154  0.8647 -0.0358
12838TIP3   OH260004   2.407   5.121  12.107 -0.0441 -0.0738 -1.1483
12838TIP3    H160005   2.414   5.192  12.171 -4.2906 -0.3849 -0.2288
12838TIP3    H260006   2.455   5.048  12.147 -2.8608 -0.3618  1.8947
12839TIP3   OH260007   4.515   0.704   4.439  0.0333  0.3268  0.0478
12839TIP3    H160008   4.425   0.673   4.436  0.1600  0.0021 -0.4921
12839TIP3    H260009   4.509   0.799   4.433 -0.1892  0.2181 -1.7079
12840TIP3   OH260010   4.962   1.350   5.109 -0.2377 -0.6644 -0.0622
12840TIP3    H160011   4.910   1.330   5.188  0.1248  0.1794  0.3906
12840TIP3    H260012   4.971   1.265   5.065  1.3947 -1.5555  1.9228
12841TIP3   OH260013   2.571   3.252   2.854  0.3101 -0.3503  0.2099
12841TIP3    H160014   2.656   3.294   2.866 -0.7767  1.7907  0.6095
12841TIP3    H260015   2.556   3.253   2.760  0.6643 -0.6394  0.1479
12842TIP3   OH260016   5.222   2.430   4.663  0.0918 -0.1794  0.2705
12842TIP3    H160017   5.297   2.428   4.604  1.0963  1.4284  1.4348
12842TIP3    H260018   5.215   2.522   4.691 -2.3564 -0.2755  0.1448
12843TIP3   OH260019   4.791   0.064  10.427  0.2349  0.1556  0.2875
12843TIP3    H160020   4.712   0.014  10.409  0.5581 -0.2888  0.0802
12843TIP3    H260021   4.793   0.073  10.522 -0.1237  0.2594  0.2832
12844TIP3   OH260022   4.319   5.796   1.361  0.2713 -0.7762  0.6100
12844TIP3    H160023   4.295   5.753   1.443  0.7596 -1.1411  0.5585
12844TIP3    H260024   4.237   5.835   1.330 -0.0085 -1.0254  1.0382
12845TIP3   OH260025   1.442   6.352   0.725  0.3264  0.2210 -0.4900
12845TIP3    H160026   1.350   6.333   0.706 -0.6175  2.1986  1.8898
12845TIP3    H260027   1.462   6.430   0.674 -0.4342  1.9279  1.7157
12846TIP3   OH260028   2.409   4.341  12.734 -0.0606  0.6807  0.4076
12846TIP3    H160029   2.391   4.269  12.794  0.8876  0.3631  0.3291
12846TIP3    H260030   2.392   4.420  12.785 -0.1091  0.4022  0.8220
12847TIP3   OH260031   5.470   2.233   3.917 -0.4400 -0.5292  0.4236
12847TIP3    H160032   5.543   2.230   3.978 -0.3326  0.6538  0.3516
12847TIP3    H260033   5.458   2.142   3.890 -0.4120 -1.0467  2.1210
12848TIP3   OH260034   0.369   0.871   6.104 -0.3304 -0.2183 -0.0717
12848TIP3    H160035   0.397   0.857   6.194  0.9397 -1.0975 -0.5872
12848TIP3    H260036   0.281   0.908   6.111  0.5606  1.7009  1.5803
12849TIP3   OH260037   0.898   5.944  14.269 -0.5289  0.1188 -0.1111
12849TIP3    H160038   0.957   5.947  14.194 -0.2772 -0.2635  0.0669
12849TIP3    H260039   0.955   5.925  14.344 -0.8061  0.2717  0.1405
12850TIP3   OH260040   2.623   6.078   4.760 -0.1132  0.5116  0.0469
12850TIP3    H160041   2.670   5.995   4.754 -2.4679 -1.0371  2.1667
12850TIP3    H260042   2.618   6.109   4.669  0.0153 -2.1021 -0.9004
12851TIP3   OH260043   1.181   5.024  10.997  0.1685  0.5619 -0.1552
12851TIP3    H160044   1.114   5.079  10.957 -0.7933 -0.0240  0.6255
12851TIP3    H260045   1.253   5.024  10.934  0.5286  3.3505  0.1831
12852TIP3   OH260046   6.279   3.566  13.401 -0.1839 -0.0028 -0.6160
12852TIP3    H160047   6.292   3.625  13.475 -0.0061  1.0409 -1.4602
12852TIP3    H260048   6.204   3.603  13.354  0.3649 -0.0500 -1.5382
12853TIP3   OH260049   2.690   2.819  13.402 -0.9162  0.0003 -0.4937
12853TIP3    H160050   2.776   2.857  13.382 -1.3959  1.0873 -0.5195
12853TIP3    H260051   2.643   2.822  13.319 -1.0144 -0.5027 -0.4558
12854TIP3   OH260052   4.774   3.078  11.903  0.0654  0.1992 -0.0647
12854TIP3    H160053   4.697   3.051  11.854 -0.0884 -1.0106  0.8218
12854TIP3    H260054   4.779   3.173  11.889 -1.3865  0.2435 -0.3856
12855TIP3   OH260055   5.381   2.956  12.852  0.3286 -0.2137 -0.6313
12855TIP3    H160056   5.461   2.903  12.850  1.0085  0.7695 -0.2644
12855TIP3    H260057   5.388   3.011  12.774 -0.4577 -0.7810 -1.1049
12856TIP3   OH260058   5.737   0.146   4.560 -0.1346 -0.4422  0.0406
12856TIP3    H160059   5.806   0.174   4.621  0.5446 -1.8051 -0.0846
12856TIP3    H260060   5.729   0.052   4.575 -1.7501 -0.3591 -0.1861
12857TIP3   OH260061   3.463   3.125   2.879  1.1689 -0.0370  0.6630
12857TIP3    H160062   3.481   3.113   2.786 -0.2596 -1.1116  0.5210
12857TIP3    H260063   3.549   3.142   2.917  1.8147  0.0448 -0.7897
12858TIP3   OH260064   0.095   4.293   5.481  0.1592  0.1489  0.4105
12858TIP3    H160065   0.182   4.260   5.504  0.1299 -0.1443  0.0944
12858TIP3    H260066   0.102   4.388   5.496 -0.1755 -0.1401  2.6593
12859TIP3   OH260067   4.525   4.378  11.379  0.0280  0.1806 -0.5471
12859TIP3    H160068   4.470   4.387  11.456 -0.6523 -0.6790 -0.9227
12859TIP3    H260069   4.464   4.387  11.305  0.6264  0.7205 -0.9778
12860TIP3   OH260070   0.805   2.259   4.698 -0.2361  0.0182 -0.4228
12860TIP3    H160071   0.796   2.169   4.730  1.6366 -0.3141 -0.7746
12860TIP3    H260072   0.732   2.306   4.738  2.1277 -0.2855  4.6834
12861TIP3   OH260073   4.079   0.026   1.471 -0.4404  0.2789  0.3834
12861TIP3    H160074   4.118   0.111   1.448 -0.5814  0.3126  0.2655
12861TIP3    H260075   4.012   0.047   1.535 -0.6730  0.2893  0.1363
12862TIP3   OH260076   0.470   2.712  17.275  0.0349 -0.2881 -0.0583
12862TIP3    H160077   0.398   2.658  17.306  0.2025 -0.1106  0.6367
12862TIP3    H260078   0.449   2.729  17.183 -0.3324 -1.0159 -0.1091
12863TIP3   OH260079   5.086   0.743  16.917  0.1175 -0.2656 -0.7805
12863TIP3    H160080   5.123   0.665  16.959  2.5703  0.6064 -1.1862
12863TIP3    H260081   5.098   0.812  16.982 -2.7957 -0.3503 -0.1010
12864TIP3   OH260082   3.462   5.463   2.772 -0.5640  0.1448  0.0908
12864TIP3    H160083   3.522   5.468   2.697 -1.2601  1.5806 -0.3737
12864TIP3    H260084   3.475   5.545   2.819  1.6429 -1.7093  2.9681
12865TIP3   OH260085   2.438   1.994  16.654  0.5238 -0.0870 -0.3661
12865TIP3    H160086   2.364   1.951  16.612 -0.2018 -1.2838  2.0399
12865TIP3    H260087   2.499   1.923  16.673  1.2427  0.5648 -0.1966
12866TIP3   OH260088   3.599   1.769   5.120 -0.0192  0.7229  0.2983
12866TIP3    H160089   3.514   1.807   5.098 -0.4010  0.1596  0.7756
12866TIP3    H260090   3.581   1.714   5.196  0.4543 -0.6242 -0.5413
12867TIP3   OH260091   6.054   6.276   0.412  0.7752 -0.6432  0.4947
12867TIP3    H160092   6.026   6.268   0.503  1.0290 -0.6723  0.5721
12867TIP3    H260093   6.018   6.199   0.368 -4.0755  2.0812 -0.6678
12868TIP3   OH260094   1.499   0.364  14.320 -0.7135 -0.7184  0.1302
12868TIP3    H160095   1.452   0.442  14.351 -0.8577 -1.0091  0.6479
12868TIP3    H260096   1.553   0.396  14.248  1.3073  0.4166  2.1036
12869TIP3   OH260097   0.462   4.041   5.279  0.3574 -0.0976  0.1066
12869TIP3    H160098   0.501   4.019   5.364  1.3509  1.0354 -0.0482
12869TIP3    H260099   0.424   4.128   5.291 -0.7598 -0.5261 -0.2114
12870TIP3   OH260100   0.063   6.018   2.046 -0.8399  0.2232  0.3998
12870TIP3    H160101   0.156   6.002   2.061 -0.0058  1.6633 -2.8242
12870TIP3    H260102   0.045   6.102   2.088 -0.8544 -0.2982  1.4697
12871TIP3   OH260103   1.743   5.267  15.866  0.1088  0.0585  0.2927
12871TIP3    H160104   1.829   5.304  15.844 -0.3474  0.4055 -0.9318
12871TIP3    H260105   1.742   5.182  15.821 -0.4399  0.3421 -0.2419
12872TIP3   OH260106   5.301   6.452   1.728  0.1947 -0.5426  0.3645
12872TIP3    H160107   5.358   6.395   1.676  0.4952 -0.7243  0.8893
12872TIP3    H260108   5.272   6.519   1.666  0.5038 -0.7872 -0.0527
12873TIP3   OH260109   2.828   5.788  11.884 -0.1686 -0.4465  0.4755
12873TIP3    H160110   2.872   5.860  11.838  2.0472 -1.1953  1.3624
12873TIP3    H260111   2.736   5.813  11.885  0.3677  1.6657 -0.5376
12874TIP3   OH260112   6.659   6.496  15.104  0.4990  0.5094  0.2083
12874TIP3    H160113   6.572   6.457  15.106  1.2108 -1.1112  0.8105
12874TIP3    H260114   6.669   6.537  15.190  0.9257 -0.6849  0.7387
12875TIP3   OH260115   6.747   3.698   5.415  0.8595  0.4336 -0.2876
12875TIP3    H160116   6.776   3.652   5.337  1.6692 -0.9782  0.8285
12875TIP3    H260117   6.806   3.667   5.484 -0.9991  0.2952  1.2518
12876TIP3   OH260118   4.494   4.869  12.487  0.1424  0.2090 -0.5240
12876TIP3    H160119   4.497   4.922  12.566  1.3319  1.6951 -1.5407
12876TIP3    H260120   4.447   4.790  12.513 -0.1407  1.0000  1.4603
12877TIP3   OH260121   0.327   3.486  12.714  0.2886 -0.3067 -0.3725
12877TIP3    H160122   0.379   3.566  12.701  0.4749 -0.1481  1.2046
12877TIP3    H260123   0.240   3.508  12.681  0.5902  0.2397 -0.8115
12878TIP3   OH260124   0.945   2.593   1.065 -0.3971  0.5548 -0.2582
12878TIP3    H160125   1.038   2.573   1.075 -0.9096 -2.8607 -1.8033
12878TIP3    H260126   0.942   2.654   0.991  0.6513  1.3768  0.3542
12879TIP3   OH260127   4.923   0.479   0.285  0.2398  0.4786  0.3284
12879TIP3    H160128   4.851   0.524   0.327  0.6079 -0.1331  1.6550
12879TIP3    H260129   4.885   0.441   0.205 -1.0062 -0.1839  1.2190
12880TIP3   OH260130   4.843   5.135  16.973 -0.5334  0.2870  0.4053
12880TIP3    H160131   4.874   5.099  16.890  1.3730 -0.3726  1.3720
12880TIP3    H260132   4.923   5.147  17.025 -1.6764  0.9086  2.0572
12881TIP3   OH260133   5.244   6.450   3.505 -0.2586  0.2674 -0.2472
12881TIP3    H160134   5.190   6.469   3.428 -0.8132 -0.0039  0.0731
12881TIP3    H260135   5.208   6.506   3.574 -0.8346 -0.7071  0.2526
12882TIP3   OH260136   3.596   4.702   0.390 -0.1622 -0.0565 -0.4370
12882TIP3    H160137   3.620   4.735   0.303 -1.4753  0.7422 -0.5170
12882TIP3    H260138   3.511   4.660   0.377 -0.6333  0.5640  0.5652
12883TIP3   OH260139   0.198   0.330  14.570  0.0331 -0.2200 -0.4678
12883TIP3    H160140   0.167   0.380  14.494  0.7628 -0.5350 -0.9824
12883TIP3    H260141   0.252   0.261  14.532 -0.3861 -0.9602  0.2921
12884TIP3   OH260142   5.479   5.588   1.296 -0.7876  0.3241  0.9315
12884TIP3    H160143   5.454   5.617   1.209  0.3236  0.9516  0.8254
12884TIP3    H260144   5.410   5.622   1.353 -0.7951  1.0801  0.4805
12885TIP3   OH260145   2.993   3.986  14.691  0.1611  0.2770  0.1278
12885TIP3    H160146   2.977   3.908  14.744  1.2302  0.8283  1.2868
12885TIP3    H260147   3.023   3.952  14.607  2.3111 -0.5684  1.1963
12886TIP3   OH260148   3.683   4.282  13.907  0.0995 -0.2666  0.0929
12886TIP3    H160149   3.754   4.287  13.970 -0.2826  0.0311  0.4935
12886TIP3    H260150   3.611   4.332  13.945  0.2987  0.9965 -1.1536
12887TIP3   OH260151   0.559   2.166  16.607  0.4812 -0.7266  0.6586
12887TIP3    H160152   0.535   2.087  16.558 -0.1785 -1.2191  1.7722
12887TIP3    H260153   0.650   2.151  16.632  0.4186 -1.0524  0.7014
12888TIP3   OH260154   0.843   3.329  14.801 -0.2729  0.2939 -0.4527
12888TIP3    H160155   0.885   3.405  14.842 -0.5718  0.8282 -1.1340
12888TIP3    H260156   0.894   3.314  14.721  1.4094 -1.8271  0.9395
12889TIP3   OH260157   1.302   6.614  14.820  0.4214  0.1360  0.2067
12889TIP3    H160158   1.357   6.671  14.874 -0.8048  3.6935 -2.1423
12889TIP3    H260159   1.214   6.628  14.853  0.0347  0.0535 -0.7997
12890TIP3   OH260160   6.581   3.148  12.974 -0.3105 -0.1816 -0.2133
12890TIP3    H160161   6.529   3.089  12.919  1.0856 -0.7204 -0.9908
12890TIP3    H260162   6.670   3.142  12.938 -0.1229  2.3364 -0.2669
12891TIP3   OH260163   5.569   0.564   0.095  0.0386  0.5239 -0.0036
12891TIP3    H160164   5.561   0.567   0.190  1.4842  0.6830  0.1152
12891TIP3    H260165   5.631   0.634   0.074  0.6298 -0.2748 -0.9545
12892TIP3   OH260166   5.136   3.642  13.760 -0.3822 -0.1336  0.2619
12892TIP3    H160167   5.155   3.715  13.701  0.0444 -0.8427 -0.4949
12892TIP3    H260168   5.218   3.593  13.763  0.4971  1.4338  3.6974
12893TIP3   OH260169   2.911   3.893   5.624 -0.2426  0.1022  0.7879
12893TIP3    H160170   2.968   3.947   5.568 -0.0313 -1.9053 -1.0096
12893TIP3    H260171   2.826   3.894   5.579 -0.0206 -1.6838  0.3046
12894TIP3   OH260172   6.386   2.303   4.760 -0.3997 -0.2347  0.0498
12894TIP3    H160173   6.432   2.227   4.723  0.2385  0.3985 -0.4795
12894TIP3    H260174   6.424   2.314   4.847  1.4957  1.1511 -0.9225
12895TIP3   OH260175   2.864   5.611  17.104  0.5729  0.3407 -0.5340
12895TIP3    H160176   2.828   5.580  17.187  1.0248  2.5334  0.5243
12895TIP3    H260177   2.817   5.561  17.037 -2.9571  1.6302  0.8617
12896TIP3   OH260178   3.758   1.992   2.477 -0.2479 -0.1408 -0.0691
12896TIP3    H160179   3.772   2.086   2.488 -0.6422 -0.1114  0.1876
12896TIP3    H260180   3.734   1.982   2.385 -0.6306  0.0653  0.0071
12897TIP3   OH260181   3.919   0.166   0.299  0.7540 -0.0441 -0.0472
12897TIP3    H160182   3.849   0.230   0.290 -0.5096 -1.4118 -0.1043
12897TIP3    H260183   3.883   0.099   0.356  2.4016 -0.2515  0.7872
12898TIP3   OH260184   2.892   4.971  12.571  1.1464 -0.1160  0.1797
12898TIP3    H160185   2.838   4.998  12.645 -2.2144 -2.0278 -1.4461
12898TIP3    H260186   2.834   4.977  12.495  2.9853 -2.8881 -1.5620
12899TIP3   OH260187   2.574   4.355  14.811  0.1705 -0.0277 -0.2132
12899TIP3    H160188   2.562   4.443  14.847  1.1343  0.5872 -1.3262
12899TIP3    H260189   2.667   4.337  14.825  0.2992 -0.2537 -1.3038
12900TIP3   OH260190   2.778   4.202   4.590  0.6179  0.4157 -0.5539
12900TIP3    H160191   2.804   4.113   4.564 -0.8592 -0.4605  0.8250
12900TIP3    H260192   2.759   4.194   4.683 -0.8473  1.8636 -0.7086
12901TIP3   OH260193   5.429   0.550   1.712 -0.5022 -0.5412  0.2930
12901TIP3    H160194   5.513   0.565   1.669 -0.1605  0.7376  1.4099
12901TIP3    H260195   5.393   0.474   1.666  1.1809 -1.0047 -0.3045
12902TIP3   OH260196   5.733   2.148  11.849 -0.0423  0.1064 -0.4198
12902TIP3    H160197   5.640   2.133  11.835 -0.1067  0.8096 -0.7538
12902TIP3    H260198   5.742   2.243  11.854  0.4919 -0.0007  0.7853
12903TIP3   OH260199   3.871   6.636  13.779  0.0444  0.5341  0.1450
12903TIP3    H160200   3.834   6.717  13.816  3.3707  1.1174  2.4411
12903TIP3    H260201   3.885   6.657  13.686 -2.1963  1.4233 -0.0180
12904TIP3   OH260202   2.384   3.027  12.332 -0.4501  0.4940  0.2373
12904TIP3    H160203   2.399   3.121  12.325 -2.0218  0.6526 -1.5083
12904TIP3    H260204   2.388   3.009  12.425 -0.8649  2.4367  0.6647
12905TIP3   OH260205   1.451   6.585   0.548 -0.0511  0.4539 -0.0306
12905TIP3    H160206   1.530   6.636   0.563 -0.2914  1.6098 -2.5419
12905TIP3    H260207   1.415   6.619   0.466 -1.8686 -1.6704 -0.1636
12906TIP3   OH260208   0.651   4.226  17.218 -0.1403  0.1379  0.0045
12906TIP3    H160209   0.611   4.293  17.272  0.6646 -0.2065  1.0405
12906TIP3    H260210   0.693   4.166  17.280  0.2562 -0.6121 -0.9595
12907TIP3   OH260211   5.427   6.348   5.738 -0.7016 -0.0553  0.4655
12907TIP3    H160212   5.398   6.427   5.784  0.5009  0.1446  0.9002
12907TIP3    H260213   5.490   6.381   5.673  0.4315 -0.7480  1.2106
12908TIP3   OH260214   0.663   6.648   4.050  0.0375 -0.4044 -0.0777
12908TIP3    H160215   0.662   6.708   3.974  2.1761  0.3998  0.4750
12908TIP3    H260216   0.727   6.687   4.109 -1.7068 -0.9681  2.2333
12909TIP3   OH260217   6.576   3.476  13.507 -0.9182  0.5556  0.6542
12909TIP3    H160218   6.571   3.540  13.437 -0.4383 -0.3825 -0.2482
12909TIP3    H260219   6.514   3.408  13.482  0.7215 -0.7695  0.1020
12910TIP3   OH260220   2.209   2.571   1.132  0.3326 -0.2413 -0.0275
12910TIP3    H160221   2.129   2.600   1.175  0.3700  0.8189 -0.6661
12910TIP3    H260222   2.263   2.536   1.203 -1.2914 -2.4022  0.2046
12911TIP3   OH260223   0.357   3.622  17.285 -0.8179  0.1952 -0.1349
12911TIP3    H160224   0.300   3.696  17.266 -0.6676  0.0075 -1.3705
12911TIP3    H260225   0.441   3.645  17.244  0.0434  0.5241  1.7717
12912TIP3   OH260226   4.343   5.661  14.771  0.0534  0.3375 -0.5531
12912TIP3    H160227   4.301   5.721  14.833 -0.9788 -0.8763 -0.0730
12912TIP3    H260228   4.366   5.584  14.822  0.6578 -0.0193 -1.3413
12913TIP3   OH260229   4.623   6.157  11.753  0.3726 -0.1793 -0.2306
12913TIP3    H160230   4.631   6.144  11.848 -0.7318  0.8778  0.0153
12913TIP3    H260231   4.571   6.236  11.744  0.9689  0.0577 -1.7310
12914TIP3   OH260232   5.305   6.405  10.486  0.2692  0.5183  0.1565
12914TIP3    H160233   5.342   6.403  10.398 -1.2450  1.3561 -0.5167
12914TIP3    H260234   5.252   6.325  10.491 -2.9861  2.4826 -1.2270
12915TIP3   OH260235   4.594   3.322   5.364  0.4876 -0.0063  0.3151
12915TIP3    H160236   4.614   3.370   5.283 -0.5560 -0.9833 -0.5479
12915TIP3    H260237   4.663   3.255   5.370  1.9622  1.5939  1.5371
12916TIP3   OH260238   5.398   5.364  13.251 -0.4666 -0.3365  0.0888
12916TIP3    H160239   5.315   5.394  13.288 -0.6195  0.9857 -1.2896
12916TIP3    H260240   5.372   5.308  13.178 -0.1432 -0.5318  0.1239
12917TIP3   OH260241   0.738   4.171   1.578  0.0267  0.3818 -0.0710
12917TIP3    H160242   0.696   4.169   1.492 -1.0660  0.1247  0.4600
12917TIP3    H260243   0.683   4.115   1.633  2.5624 -2.2079 -0.0166
12918TIP3   OH260244   5.009   0.733  12.075 -0.1995  0.0080  0.0362
12918TIP3    H160245   5.021   0.681  11.996  0.6893 -1.0190  0.8214
12918TIP3    H260246   4.914   0.742  12.084 -0.3269 -0.6271 -0.6541
12919TIP3   OH260247   1.607   2.856   1.595 -0.2172 -0.1358  0.0210
12919TIP3    H160248   1.667   2.867   1.521  0.5545  1.0142  0.8159
12919TIP3    H260249   1.529   2.906   1.570 -0.5873 -1.0541 -0.7013
12920TIP3   OH260250   4.947   0.229  15.662  0.2384  0.0893 -0.6572
12920TIP3    H160251   4.975   0.271  15.581  1.1142 -0.4559 -0.6410
12920TIP3    H260252   4.852   0.240  15.663  0.3255  0.9162 -1.2924
12921TIP3   OH260253   3.800   5.079   3.991 -0.0354  0.7310  0.3891
12921TIP3    H160254   3.817   4.985   4.003  0.4934  0.9091  1.0689
12921TIP3    H260255   3.853   5.104   3.916 -0.6229  0.3683 -0.1588
12922TIP3   OH260256   0.599   2.584   3.957  0.0327  0.2753  0.2794
12922TIP3    H160257   0.525   2.531   3.988  1.0335 -1.0455  0.4769
12922TIP3    H260258   0.573   2.615   3.871  0.0134 -1.7822 -0.4735
12923TIP3   OH260259   3.964   4.063   0.695  0.0156  0.5455  0.1569
12923TIP3    H160260   3.918   3.989   0.734 -0.5083  0.0980 -1.2967
12923TIP3    H260261   3.935   4.065   0.604  0.7990  1.9211 -0.0808
12924TIP3   OH260262   3.413   2.281   2.091 -0.1088  0.4894  0.0253
12924TIP3    H160263   3.341   2.298   2.030 -0.0577  3.3975  0.6583
12924TIP3    H260264   3.491   2.277   2.036 -0.4818 -0.4499 -0.4427
12925TIP3   OH260265   1.024   6.214  12.707 -0.0798  0.2499  0.6679
12925TIP3    H160266   1.060   6.269  12.777 -0.6154 -0.3452  1.4083
12925TIP3    H260267   1.080   6.233  12.631  0.3438  1.0855  1.1791
12926TIP3   OH260268   4.824   6.119   5.139 -0.4952  0.1274  0.1368
12926TIP3    H160269   4.913   6.118   5.172  0.7823  1.6330 -3.0017
12926TIP3    H260270   4.800   6.212   5.139 -2.0151 -0.2493  0.7900
12927TIP3   OH260271   3.004   5.842  15.076 -0.0466 -0.0072 -0.0675
12927TIP3    H160272   2.957   5.907  15.127  0.5294  0.1794  0.2251
12927TIP3    H260273   2.943   5.817  15.006 -1.1706 -0.9305  1.2295
12928TIP3   OH260274   0.496   3.241   2.893  0.4293 -0.3581 -0.2415
12928TIP3    H160275   0.540   3.278   2.817  1.5303  1.1497  1.1025
12928TIP3    H260276   0.414   3.290   2.900  0.6270 -0.0501 -0.0780
12929TIP3   OH260277   4.756   5.816  12.028  0.4706  0.3418 -0.2531
12929TIP3    H160278   4.836   5.772  12.001  0.6085  0.5540 -0.1849
12929TIP3    H260279   4.772   5.909  12.013 -0.8094  0.1619 -3.0040
12930TIP3   OH260280   2.654   5.760  15.531 -0.3384  0.0723  0.3871
12930TIP3    H160281   2.650   5.823  15.603 -0.4676  0.4399  0.0582
12930TIP3    H260282   2.689   5.810  15.458 -1.8634  0.1628 -0.3016
12931TIP3   OH260283   5.356   2.018  10.372  0.1997  0.2963 -0.3559
12931TIP3    H160284   5.429   1.957  10.382  0.1239 -0.0608 -1.9178
12931TIP3    H260285   5.293   1.972  10.316 -1.4282  0.4327  1.3058
12932TIP3   OH260286   2.735   4.528   1.742  0.1770 -0.2218  0.5439
12932TIP3    H160287   2.674   4.456   1.726  0.0893 -0.0959  0.3158
12932TIP3    H260288   2.678   4.603   1.762  0.2521 -0.0653  0.1763
12933TIP3   OH260289   5.966   5.658  17.176 -0.8507 -0.0844  0.2041
12933TIP3    H160290   5.938   5.721  17.110 -2.2142 -0.1171  0.7220
12933TIP3    H260291   5.909   5.675  17.251 -0.2310 -0.9394  0.8844
12934TIP3   OH260292   4.082   1.490  13.154  0.3925 -0.3217  1.0516
12934TIP3    H160293   4.144   1.422  13.129 -0.3871 -0.4292 -0.7071
12934TIP3    H260294   4.081   1.550  13.079 -1.8382 -0.4812  0.9190
12935TIP3   OH260295   2.889   0.893  13.282  0.0836 -0.2162  0.1622
12935TIP3    H160296   2.891   0.987  13.267  1.5883 -0.3931 -0.8237
12935TIP3    H260297   2.972   0.874  13.327 -0.0998 -1.0922  0.1447
12936TIP3   OH260298   3.219   3.020  12.200  0.2593 -0.3497  0.3456
12936TIP3    H160299   3.186   2.932  12.219 -0.4144  0.2033  1.8069
12936TIP3    H260300   3.141   3.076  12.200  0.4887  0.0004 -2.2020
12937TIP3   OH260301   5.548   1.315  15.149 -0.2619 -0.2393  0.0675
12937TIP3    H160302   5.632   1.306  15.103 -0.5428  0.0704 -0.5160
12937TIP3    H260303   5.483   1.281  15.087 -0.7122  0.7133 -0.0009
12938TIP3   OH260304   0.890   3.508  15.051 -0.2752  0.0124 -0.6313
12938TIP3    H160305   0.810   3.456  15.053 -1.4599  1.8088  0.1261
12938TIP3    H260306   0.891   3.554  15.135  1.1283  0.6329 -0.9675
12939TIP3   OH260307   6.124   4.976   0.401 -0.0960  0.2925  0.0777
12939TIP3    H160308   6.111   5.036   0.474 -0.8418  0.3917 -0.1337
12939TIP3    H260309   6.198   4.921   0.427  0.5403  1.2459  0.3125
12940TIP3   OH260310   5.243   0.926   1.356 -0.1496 -0.5961 -0.1570
12940TIP3    H160311   5.254   1.015   1.391 -0.3449 -0.0866 -1.3462
12940TIP3    H260312   5.256   0.869   1.431  1.3283  0.3905  0.3729
12941TIP3   OH260313   4.834   3.307   0.532  0.0218 -0.4965 -0.1598
12941TIP3    H160314   4.913   3.361   0.534  0.2182 -0.7921  0.0404
12941TIP3    H260315   4.856   3.230   0.584 -0.4200 -0.5517 -0.0542
12942TIP3   OH260316   6.664   0.972  10.732 -0.1201 -0.0404 -0.0381
12942TIP3    H160317   6.732   0.911  10.703  1.2343  0.1391  2.6220
12942TIP3    H260318   6.700   1.059  10.716 -0.6400  0.0722 -0.6329
12943TIP3   OH260319   6.140   5.740   1.930  0.0406  0.0743  0.2894
12943TIP3    H160320   6.209   5.754   1.995  3.2406  1.1137 -3.1054
12943TIP3    H260321   6.124   5.828   1.894  0.2771 -0.8586 -2.1422
12944TIP3   OH260322   4.533   2.762  17.143 -0.6088  0.0928 -0.1313
12944TIP3    H160323   4.469   2.756  17.214 -0.3138  0.5227  0.1698
12944TIP3    H260324   4.607   2.810  17.181 -0.1346 -0.3492 -0.5036
12945TIP3   OH260325   0.542   3.751   0.807 -0.2632 -0.2556 -0.1142
12945TIP3    H160326   0.548   3.662   0.771 -0.4732 -0.2407 -0.1894
12945TIP3    H260327   0.550   3.808   0.731 -0.3359 -0.2159 -0.0926
12946TIP3   OH260328   0.411   5.089  15.217 -0.0262  0.3567 -0.5552
12946TIP3    H160329   0.353   5.143  15.270 -2.5731 -0.1237 -2.7568
12946TIP3    H260330   0.379   4.999  15.231  1.7944 -0.2161  0.1358
12947TIP3   OH260331   6.343   2.553  14.331  0.2889 -0.1080  0.3458
12947TIP3    H160332   6.388   2.526  14.251 -0.2601  1.6709 -0.5886
12947TIP3    H260333   6.272   2.610  14.300 -0.2491  0.1794  2.0653
12948TIP3   OH260334   4.885   2.487  10.799 -0.0565  0.0407 -0.1510
12948TIP3    H160335   4.841   2.489  10.714 -0.3841  0.0730  0.0180
12948TIP3    H260336   4.911   2.578  10.814  0.8830 -0.1401 -0.6720
12949TIP3   OH260337   2.494   1.506   3.270 -0.2265  0.1765 -0.4327
12949TIP3    H160338   2.489   1.411   3.259 -0.1268 -0.0150  1.0254
12949TIP3    H260339   2.564   1.534   3.212 -1.3870 -0.4245 -2.1445
12950TIP3   OH260340   3.073   6.010   0.384  0.5645 -0.1182 -0.2715
12950TIP3    H160341   3.019   5.931   0.379 -0.1680  0.2176  1.9386
12950TIP3    H260342   3.046   6.061   0.308 -1.1566 -0.6429 -0.0359
12951TIP3   OH260343   2.142   2.400  10.816 -0.6494  0.3834  0.5914
12951TIP3    H160344   2.131   2.310  10.784  1.4816 -0.0663  1.0623
12951TIP3    H260345   2.188   2.445  10.746  0.4805  0.4369  1.3448
12952TIP3   OH260346   5.926   2.024   0.616 -0.1627 -0.1919  0.1110
12952TIP3    H160347   5.857   1.959   0.600 -0.5211  0.2376 -0.1309
12952TIP3    H260348   5.880   2.108   0.609  0.1954  0.0673  0.9294
12953TIP3   OH260349   3.461   3.095  13.139  0.4645 -0.4877  0.0145
12953TIP3    H160350   3.387   3.047  13.103  0.2784  0.6193 -1.1316
12953TIP3    H260351   3.512   3.121  13.063 -0.4845  2.7821  0.3862
12954TIP3   OH260352   5.516   3.339   4.749  0.0301  0.6882  0.0040
12954TIP3    H160353   5.466   3.273   4.702  0.0230  1.5688 -1.2391
12954TIP3    H260354   5.458   3.368   4.820  0.0738 -0.6977  0.6221
12955TIP3   OH260355   2.776   0.800  17.276 -0.0751 -0.2049  0.2044
12955TIP3    H160356   2.793   0.862  17.347  0.3650 -0.9649  0.7753
12955TIP3    H260357   2.701   0.749  17.307 -0.8053  0.4210 -0.5170
12956TIP3   OH260358   2.969   2.869   2.833  0.1562  0.0327  0.2214
12956TIP3    H160359   3.057   2.899   2.855  0.4568  0.7743 -1.8800
12956TIP3    H260360   2.917   2.886   2.912  2.2022 -1.8668  2.0630
12957TIP3   OH260361   4.433   4.155   3.649 -0.1191 -0.1694 -0.1627
12957TIP3    H160362   4.395   4.183   3.566 -0.4773 -0.1762  0.0009
12957TIP3    H260363   4.389   4.207   3.715 -0.6668 -1.0015  0.1301
12958TIP3   OH260364   4.740   4.149  13.806  0.1284 -0.3414  0.3351
12958TIP3    H160365   4.735   4.195  13.722 -0.2487 -0.4090  0.3195
12958TIP3    H260366   4.830   4.115  13.810  0.0303 -0.6733 -0.2172
12959TIP3   OH260367   1.872   4.620   3.341 -0.1516 -0.4266 -0.0715
12959TIP3    H160368   1.921   4.676   3.280  0.4251 -0.8965 -0.0459
12959TIP3    H260369   1.780   4.637   3.321 -0.0227  1.8283  1.1130
12960TIP3   OH260370   6.076   3.683   4.678  0.2154 -0.4643  0.1692
12960TIP3    H160371   6.068   3.762   4.624 -0.5555 -0.3825  0.3989
12960TIP3    H260372   6.171   3.666   4.681  0.3607  0.2469 -0.1667
12961TIP3   OH260373   1.665   6.296   3.825 -0.4803 -0.0698 -0.1653
12961TIP3    H160374   1.685   6.206   3.850  2.1307  0.9210  1.5037
12961TIP3    H260375   1.588   6.319   3.878  0.2746 -0.5700  1.1671
12962TIP3   OH260376   5.335   3.025   2.411 -0.7270 -0.0142  0.2866
12962TIP3    H160377   5.395   3.043   2.338 -0.7102  1.7082  0.7235
12962TIP3    H260378   5.371   2.946   2.452  1.4189  1.1673  0.7293
12963TIP3   OH260379   4.746   1.133  14.745  0.1355 -0.7974  0.1455
12963TIP3    H160380   4.692   1.058  14.766  0.6640 -1.2994 -0.2744
12963TIP3    H260381   4.814   1.099  14.687  1.1231 -0.2584  0.9506
12964TIP3   OH260382   0.985   4.174   0.216  0.2591 -0.1661 -0.0708
12964TIP3    H160383   0.954   4.255   0.174 -2.6372 -1.1356  0.0894
12964TIP3    H260384   0.909   4.116   0.213  2.0014 -2.5176  0.7714
12965TIP3   OH260385   0.285   5.586  12.384  0.1669 -0.0052  0.0297
12965TIP3    H160386   0.337   5.623  12.313 -0.6033  1.5242  0.2351
12965TIP3    H260387   0.279   5.656  12.449 -0.7908 -0.7096  0.7188
12966TIP3   OH260388   0.098   0.730   6.602 -1.2705  1.5159  0.1990
12966TIP3    H160389   0.187   0.741   6.568 -2.1618  2.0895 -2.0654
12966TIP3    H260390   0.107   0.739   6.696  1.5992 -1.7349  0.3647
12967TIP3   OH260391   6.194   2.141   5.801  0.8429 -0.8177 -0.0157
12967TIP3    H160392   6.213   2.177   5.888 -1.3398  1.2700 -0.3472
12967TIP3    H260393   6.179   2.048   5.816  1.0737 -0.5918  1.7450
12968TIP3   OH260394   3.130   4.716  16.789  0.0944 -0.1288  0.2378
12968TIP3    H160395   3.160   4.654  16.855  1.1068  0.6512  0.5155
12968TIP3    H260396   3.038   4.731  16.811 -0.5798 -2.5960 -0.6805
12969TIP3   OH260397   6.561   2.582  14.510 -0.0734 -0.3884  0.1139
12969TIP3    H160398   6.486   2.544  14.465  1.2293 -0.1332 -2.3348
12969TIP3    H260399   6.608   2.507  14.546  0.4836 -0.8584 -1.5404
12970TIP3   OH260400   3.540   2.344   0.476  0.4502 -0.1759  0.3044
12970TIP3    H160401   3.583   2.402   0.539 -2.0456  0.1132  1.7805
12970TIP3    H260402   3.504   2.403   0.410  0.5248 -0.2780  0.1716
12971TIP3   OH260403   3.504   1.871  16.080  0.3266  0.1700 -0.2046
12971TIP3    H160404   3.447   1.898  16.151 -1.4768  0.1388 -1.5915
12971TIP3    H260405   3.525   1.952  16.033  1.5291  0.1958  0.3546
12972TIP3   OH260406   4.231   6.132  15.248  0.2330  0.3169 -0.2097
12972TIP3    H160407   4.147   6.169  15.220  0.3809  0.3223 -0.6471
12972TIP3    H260408   4.295   6.201  15.231  0.2222  0.5721  0.7791
12973TIP3   OH260409   2.938   2.861   1.107  0.1288 -0.2154  0.1847
12973TIP3    H160410   2.863   2.809   1.134  0.4680 -0.0286  1.4982
12973TIP3    H260411   2.918   2.950   1.137 -0.1844  0.3146 -1.5347
12974TIP3   OH260412   5.348   3.079  12.613  0.3157  0.2478  0.7181
12974TIP3    H160413   5.421   3.047  12.560  0.1563  1.2948 -0.1560
12974TIP3    H260414   5.271   3.034  12.578  0.5117 -0.7108  1.5112
12975TIP3   OH260415   5.163   0.465  16.958  0.0981 -0.1913 -0.3293
12975TIP3    H160416   5.129   0.450  17.046  1.0206 -2.1914 -0.2840
12975TIP3    H260417   5.220   0.390  16.941  0.7653  0.7032 -2.2270
12976TIP3   OH260418   2.492   4.299  11.858 -0.0245  0.6081  0.0054
12976TIP3    H160419   2.463   4.384  11.892 -2.4163 -0.4262  0.6582
12976TIP3    H260420   2.411   4.253  11.838  1.2704 -0.7335 -2.3918
12977TIP3   OH260421   2.055   5.166  12.683 -0.4406  1.2164  0.6300
12977TIP3    H160422   1.992   5.095  12.698 -0.6232  1.0709 -0.7567
12977TIP3    H260423   2.067   5.206  12.769 -0.6098 -0.2723  1.3618
12978TIP3   OH260424   4.734   3.337   1.163 -0.0964  0.4484  0.0430
12978TIP3    H160425   4.791   3.261   1.154 -1.7517 -0.8689  0.3976
12978TIP3    H260426   4.653   3.312   1.119 -0.7029  1.9736  0.2604
12979TIP3   OH260427   0.149   0.610   1.605  0.1732 -0.1151  0.1333
12979TIP3    H160428   0.104   0.534   1.568 -1.5132  0.8968  0.0662
12979TIP3    H260429   0.234   0.612   1.561 -1.3681  0.4415 -2.8932
12980TIP3   OH260430   1.044   1.523  12.404  0.6158 -0.7636 -0.3069
12980TIP3    H160431   1.111   1.485  12.347  2.5474 -1.2402  2.1731
12980TIP3    H260432   1.089   1.592  12.452 -0.7326 -0.9380  1.2518
12981TIP3   OH260433   5.959   1.345  11.988 -0.3282 -0.4998  0.1505
12981TIP3    H160434   6.012   1.424  11.986 -2.2818  0.8670  0.4751
12981TIP3    H260435   5.894   1.359  11.919 -1.6138 -1.1405  1.2135
12982TIP3   OH260436   6.130   3.732   2.435 -0.4724 -0.7669  0.7364
12982TIP3    H160437   6.194   3.736   2.364 -0.0218 -1.2903  1.1071
12982TIP3    H260438   6.182   3.741   2.515 -0.9330 -0.5868  1.0198
12983TIP3   OH260439   1.347   0.816  15.896  0.3447 -0.4851  0.3613
12983TIP3    H160440   1.311   0.830  15.984 -0.8586 -1.6765  0.0731
12983TIP3    H260441   1.322   0.727  15.873  0.9167 -0.2973 -1.0773
12984TIP3   OH260442   1.634   0.856  13.160 -0.4918  0.3623  0.0310
12984TIP3    H160443   1.683   0.936  13.141  1.2446 -0.6316  0.3326
12984TIP3    H260444   1.643   0.802  13.082 -1.0970  0.1586  0.0942
12985TIP3   OH260445   0.466   3.327  14.913  0.0391 -0.0456  0.4209
12985TIP3    H160446   0.533   3.284  14.966 -1.3861 -1.0755  1.3902
12985TIP3    H260447   0.414   3.255  14.876 -1.0807  0.7721  0.3825
12986TIP3   OH260448   1.760   1.817   0.794 -0.0481  0.1806 -0.0569
12986TIP3    H160449   1.821   1.812   0.721 -1.3649 -0.8676 -1.0972
12986TIP3    H260450   1.812   1.854   0.866  1.4873  0.3910 -1.2520
12987TIP3   OH260451   6.783   2.746  11.504 -0.2639  0.6083 -0.0506
12987TIP3    H160452   6.707   2.771  11.451 -0.3000  0.8180  0.1011
12987TIP3    H260453   6.857   2.750  11.444 -0.0325  2.5311  0.3386
12988TIP3   OH260454   5.044   0.973  17.252  0.4830  0.2254  0.0150
12988TIP3    H160455   4.961   0.947  17.212  1.1755 -1.1945 -0.5396
12988TIP3    H260456   5.029   1.062  17.284 -0.1840  1.3082 -3.1186
12989TIP3   OH260457   6.382   2.248   4.089  0.6002  0.0589  0.5842
12989TIP3    H160458   6.444   2.268   4.019  1.9162  0.4238  1.8372
12989TIP3    H260459   6.310   2.201   4.045  2.5038 -1.8125 -0.6193
12990TIP3   OH260460   5.241   1.471  13.591 -0.1552  0.2892  0.2273
12990TIP3    H160461   5.288   1.532  13.647  0.3955 -1.0194  1.2245
12990TIP3    H260462   5.289   1.473  13.508 -1.4139  2.7891 -0.4917
12991TIP3   OH260463   3.524   1.762  17.148 -0.6967  0.4784 -0.3062
12991TIP3    H160464   3.494   1.671  17.143  0.4396  0.0467  0.4826
12991TIP3    H260465   3.507   1.788  17.238  0.0863  0.6557 -0.2096
12992TIP3   OH260466   2.398   4.908  15.357 -0.2334 -0.1369  0.7628
12992TIP3    H160467   2.440   4.929  15.440 -1.3635  0.6414  1.1438
12992TIP3    H260468   2.322   4.855  15.381 -0.6016  0.1497  0.2339
12993TIP3   OH260469   5.421   3.874  13.561 -0.2874 -0.0520 -0.2019
12993TIP3    H160470   5.391   3.921  13.483 -0.9847 -0.1117  0.0202
12993TIP3    H260471   5.470   3.800  13.527  2.5470  1.9024 -0.5282
12994TIP3   OH260472   1.023   4.341   5.037  0.0591 -0.1241 -0.2754
12994TIP3    H160473   0.963   4.381   4.973 -1.1301 -2.2525 -0.5447
12994TIP3    H260474   1.084   4.411   5.059 -3.0361  2.4049  0.6596
12995TIP3   OH260475   1.174   0.946  15.500 -0.1393  0.0250  0.5005
12995TIP3    H160476   1.198   1.033  15.468  1.0029  0.4237  2.3521
12995TIP3    H260477   1.257   0.900  15.508 -0.7653 -1.3131 -0.6771
12996TIP3   OH260478   0.032   6.351   4.276  0.1920  0.5816  0.7983
12996TIP3    H160479   0.069   6.413   4.213  0.4654  0.6970  1.0712
12996TIP3    H260480  -0.043   6.312   4.230  0.3819  0.6729  0.4079
12997TIP3   OH260481   1.763   6.218  14.144  0.0759 -0.3293 -0.9210
12997TIP3    H160482   1.691   6.211  14.207  0.9671 -0.1326  0.1399
12997TIP3    H260483   1.801   6.130  14.142  0.6180 -0.1131 -0.4743
12998TIP3   OH260484   0.546   1.595  15.383 -0.0556  0.0692 -0.8516
12998TIP3    H160485   0.485   1.658  15.423  0.1316 -0.5241  0.3872
12998TIP3    H260486   0.492   1.518  15.364  0.2990 -0.4564  0.2465
12999TIP3   OH260487   3.593   1.264  12.157 -0.3089  0.3792 -0.4704
12999TIP3    H160488   3.615   1.177  12.190 -2.4792  0.2476  0.7378
12999TIP3    H260489   3.519   1.292  12.212 -1.6366  1.6896 -2.8712
13000TIP3   OH260490   5.670   0.704  11.809  0.3655 -0.1598 -0.1557
13000TIP3    H160491   5.651   0.687  11.901  1.3428 -0.1571  0.0471
13000TIP3    H260492   5.595   0.754  11.778  0.9785  1.6519  1.1717
13001TIP3   OH260493   0.791   6.776   3.122 -0.3051 -0.0116 -0.4417
13001TIP3    H160494   0.804   6.836   3.195  1.3516 -0.3283 -0.4457
13001TIP3    H260495   0.757   6.830   3.051 -0.1511  0.6535 -0.0062
13002TIP3   OH260496   6.720   1.239  13.690 -0.3271  0.3616 -0.2815
13002TIP3    H160497   6.631   1.274  13.691  0.1594  1.6507 -1.4161
13002TIP3    H260498   6.764   1.286  13.620  0.5314 -2.0987 -1.4459
13003TIP3   OH260499   1.555   0.197  16.900 -0.0100 -0.4303  0.0132
13003TIP3    H160500   1.635   0.182  16.850 -0.8678 -1.5090 -1.0644
13003TIP3    H260501   1.507   0.114  16.894 -1.5412  0.4380  0.0492
13004TIP3   OH260502   2.736   1.264   4.447 -0.0661 -0.6366 -0.3499
13004TIP3    H160503   2.782   1.202   4.503 -0.2165  0.7658  1.3491
13004TIP3    H260504   2.666   1.213   4.407  0.0858 -1.6598  0.6817
13005TIP3   OH260505   1.363   1.896   1.606  0.3601 -0.2685  0.0396
13005TIP3    H160506   1.298   1.959   1.576  0.5033 -0.4485 -0.6632
13005TIP3    H260507   1.335   1.813   1.567  0.1350 -0.6546  1.0103
13006TIP3   OH260508   0.343   1.369   5.892 -0.3541  0.3376  0.8995
13006TIP3    H160509   0.253   1.377   5.861 -0.0449  1.1330  0.1749
13006TIP3    H260510   0.359   1.275   5.896  0.2964  0.1565 -3.5940
13007TIP3   OH260511   6.772   0.244   2.231 -0.1054 -0.2519  0.6377
13007TIP3    H160512   6.839   0.182   2.258  0.2142 -0.6132 -0.9551
13007TIP3    H260513   6.738   0.209   2.148  0.0083  1.6212 -0.2375
13008TIP3   OH260514   2.259   6.709   2.637  0.0012  0.2472  0.0578
13008TIP3    H160515   2.172   6.743   2.659 -0.5117  0.3800 -2.0850
13008TIP3    H260516   2.315   6.786   2.639 -0.7072  0.8537 -2.4545
13009TIP3   OH260517   5.393   3.737   3.811  0.0868  0.5524  0.5222
13009TIP3    H160518   5.420   3.819   3.853 -0.0461  0.7364  0.2467
13009TIP3    H260519   5.464   3.719   3.749  1.1126 -0.5871  1.9872
13010TIP3   OH260520   0.750   1.755   5.015  0.0391  0.0651  0.3128
13010TIP3    H160521   0.739   1.834   4.962 -0.9206  0.4407  1.0512
13010TIP3    H260522   0.821   1.707   4.973 -0.2858  0.6671 -0.9397
13011TIP3   OH260523   4.313   4.753   0.940 -0.2745 -0.1089 -0.0433
13011TIP3    H160524   4.299   4.819   0.872  1.7650  0.8980  0.4994
13011TIP3    H260525   4.376   4.692   0.902 -0.7284 -0.7035  0.1571
13012TIP3   OH260526   5.382   1.918  10.753 -0.0933  0.4921 -0.4268
13012TIP3    H160527   5.319   1.865  10.703  1.4951 -1.1306 -0.7544
13012TIP3    H260528   5.373   1.886  10.843  1.0589 -0.5650 -0.6699
13013TIP3   OH260529   1.337   6.377  14.956 -0.1324 -0.5355  0.5781
13013TIP3    H160530   1.391   6.307  14.920  1.0042  0.4710  0.2678
13013TIP3    H260531   1.327   6.439  14.884 -2.3942 -1.0906  0.3959
13014TIP3   OH260532   2.021   1.513  13.116 -0.7630  0.2328 -0.3190
13014TIP3    H160533   2.108   1.496  13.080  0.0562  0.6604  1.4044
13014TIP3    H260534   1.966   1.445  13.077  0.2534  0.1951 -1.7318
13015TIP3   OH260535   2.414   5.602  11.785 -0.6121  0.5050 -0.1317
13015TIP3    H160536   2.319   5.610  11.786 -0.5468  1.4425  2.3707
13015TIP3    H260537   2.446   5.689  11.808  0.8499  0.1954 -0.9483
13016TIP3   OH260538   2.540   3.909  14.388  0.4584 -0.0959 -0.0143
13016TIP3    H160539   2.483   3.878  14.457 -0.3386 -0.0134 -0.6337
13016TIP3    H260540   2.627   3.877  14.412  0.1350 -0.3129  0.8640
13017TIP3   OH260541   6.200   2.214   2.696  0.1349 -0.0783 -0.1174
13017TIP3    H160542   6.170   2.305   2.692 -0.3002 -0.1584  1.1834
13017TIP3    H260543   6.258   2.212   2.773 -1.0031 -1.2306  0.7250
13018TIP3   OH260544   4.088   6.065  11.485  0.3275 -0.6098 -0.0420
13018TIP3    H160545   4.125   6.039  11.569 -0.0839  1.3012  0.7681
13018TIP3    H260546   4.141   6.021  11.420  1.4044 -1.1811  1.2060
13019TIP3   OH260547   1.115   0.587   3.299 -0.4065  0.9223  0.2850
13019TIP3    H160548   1.025   0.565   3.276 -0.4258 -0.3062  1.5436
13019TIP3    H260549   1.114   0.682   3.309 -1.1763  1.1070 -1.3712
13020TIP3   OH260550   6.208   6.799   5.790  0.1375  0.1059 -0.0126
13020TIP3    H160551   6.156   6.875   5.762  2.1695  1.7784  0.6136
13020TIP3    H260552   6.195   6.794   5.884  0.2484 -0.1402 -0.0096
13021TIP3   OH260553   2.112   4.015   0.479 -0.2565 -0.7905  0.0088
13021TIP3    H160554   2.126   4.072   0.403 -2.0921  1.4691  1.2815
13021TIP3    H260555   2.039   3.959   0.453 -0.3119 -0.6195 -0.2094
13022TIP3   OH260556   1.444   4.939   3.968 -0.1269  0.6239 -0.0250
13022TIP3    H160557   1.467   4.938   3.875 -1.7840  0.8828 -0.4387
13022TIP3    H260558   1.354   4.970   3.971 -0.7789 -1.3242  1.5390
13023TIP3   OH260559   5.461   3.289  14.713 -0.4729  0.3728  0.1713
13023TIP3    H160560   5.489   3.231  14.784 -1.2208 -2.6588 -1.9649
13023TIP3    H260561   5.365   3.288  14.717 -0.4973  2.3348  0.7642
13024TIP3   OH260562   3.858   0.764   3.961 -0.8683 -0.2464 -0.0180
13024TIP3    H160563   3.796   0.818   4.010  0.4256  1.1159  0.1576
13024TIP3    H260564   3.913   0.723   4.028 -0.7653 -0.4362 -0.2186
13025TIP3   OH260565   2.263   0.578  16.350 -0.1913  0.0542  0.2400
13025TIP3    H160566   2.330   0.608  16.412  2.1232 -0.4617 -1.9336
13025TIP3    H260567   2.307   0.578  16.265 -2.0890 -3.0879 -0.8272
13026TIP3   OH260568   0.676   6.688  16.356 -0.0859  0.5564  0.3357
13026TIP3    H160569   0.692   6.752  16.287 -0.4832  0.4976  0.1838
13026TIP3    H260570   0.759   6.681  16.403  0.7111 -0.7816 -1.2668
13027TIP3   OH260571   6.128   0.714  13.255 -0.1031 -0.0455  0.2150
13027TIP3    H160572   6.214   0.730  13.218  0.6457 -4.0216  0.0312
13027TIP3    H260573   6.108   0.793  13.305  2.7153  1.7727 -1.4065
13028TIP3   OH260574   2.714   1.927   3.254  0.7002  0.1947 -0.4458
13028TIP3    H160575   2.739   2.017   3.234  0.0246  0.2969 -0.8314
13028TIP3    H260576   2.780   1.873   3.209 -0.7888  0.4234 -2.9645
13029TIP3   OH260577   5.199   3.207  10.961 -0.3399  0.5227 -0.4065
13029TIP3    H160578   5.279   3.155  10.954 -1.8459 -1.8122 -0.5281
13029TIP3    H260579   5.162   3.185  11.046 -0.9606  1.4628 -0.4196
13030TIP3   OH260580   1.138   3.204   4.136  0.0011  0.0545 -0.5335
13030TIP3    H160581   1.107   3.291   4.164 -3.1357 -1.2516  0.1878
13030TIP3    H260582   1.123   3.202   4.042  1.1689  0.6785 -0.7531
13031TIP3   OH260583   0.984   1.348  14.960 -0.0158 -0.4273 -0.1334
13031TIP3    H160584   0.991   1.441  14.981 -0.8613 -0.8635  2.2229
13031TIP3    H260585   0.997   1.344  14.865 -1.9782  2.3211 -0.5855
13032TIP3   OH260586   1.022   5.500   6.237 -0.3492 -0.3843 -0.0422
13032TIP3    H160587   0.974   5.573   6.277 -0.4823 -0.9597  0.8719
13032TIP3    H260588   1.092   5.481   6.300 -0.4905 -1.2226 -0.1407
13033TIP3   OH260589   4.605   4.502  16.070 -0.6509 -0.0897 -0.3755
13033TIP3    H160590   4.672   4.464  16.012  0.1929 -0.3451  0.7452
13033TIP3    H260591   4.623   4.596  16.069  0.3488 -0.2610  0.6836
13034TIP3   OH260592   6.754   6.077   2.454 -0.4767 -0.6333  0.5402
13034TIP3    H160593   6.822   6.029   2.501  2.0076  1.3715 -0.8334
13034TIP3    H260594   6.802   6.131   2.391 -3.3853  0.5988 -0.7495
13035TIP3   OH260595   3.471   2.545   3.719 -0.2033  0.8463 -0.1778
13035TIP3    H160596   3.487   2.527   3.812  0.2793  0.7873 -0.2754
13035TIP3    H260597   3.382   2.581   3.717 -0.0546  1.2536  0.3582
13036TIP3   OH260598   0.918   1.942  15.628  0.0889  0.5031  0.2726
13036TIP3    H160599   0.910   1.938  15.533  0.2811  1.1464  0.2260
13036TIP3    H260600   0.883   2.027  15.652 -2.3324 -0.6702  1.0534
13037TIP3   OH260601   0.728   0.247  13.229 -0.1214 -0.3189 -0.4319
13037TIP3    H160602   0.720   0.326  13.175  0.7530  0.1739  0.1478
13037TIP3    H260603   0.814   0.255  13.271 -0.1951 -1.3866 -0.0611
13038TIP3   OH260604   3.880   4.187  13.571  0.0700  0.2749  0.2133
13038TIP3    H160605   3.842   4.165  13.656 -0.9828  0.5592 -0.1822
13038TIP3    H260606   3.851   4.276  13.553 -1.1969 -0.4106 -1.2563
13039TIP3   OH260607   4.399   0.425   2.097  0.0266 -0.1130 -0.3141
13039TIP3    H160608   4.408   0.487   2.169 -1.1169 -3.9800  3.3685
13039TIP3    H260609   4.315   0.448   2.056 -0.7100  0.3702  1.4185
13040TIP3   OH260610   0.480   4.527   3.880 -0.3939  0.9747 -0.5669
13040TIP3    H160611   0.399   4.574   3.900 -1.4492 -1.3268  0.8878
13040TIP3    H260612   0.452   4.437   3.861  1.6451  0.6094 -2.0890
13041TIP3   OH260613   0.641   1.334  16.886 -0.5444  0.0652  0.1176
13041TIP3    H160614   0.559   1.320  16.838  0.6483 -0.0169 -1.9362
13041TIP3    H260615   0.696   1.384  16.825  1.5514 -1.3248  0.8252
13042TIP3   OH260616   5.194   1.264   2.141  0.4758  0.4663 -0.4651
13042TIP3    H160617   5.111   1.282   2.096 -0.9878 -2.0123  1.1322
13042TIP3    H260618   5.226   1.351   2.167 -2.1749  1.4245 -0.1864
13043TIP3   OH260619   2.269   0.181   2.191  0.1471  0.4197  0.3970
13043TIP3    H160620   2.290   0.264   2.146 -0.3028 -0.3499 -1.2620
13043TIP3    H260621   2.174   0.182   2.199  0.0421 -0.4775 -0.6940
13044TIP3   OH260622   3.528   0.459   1.069  0.1028 -0.1664  0.1509
13044TIP3    H160623   3.597   0.523   1.087  0.1485  0.5131 -2.3035
13044TIP3    H260624   3.571   0.374   1.077  0.5688  0.1479  1.2139
13045TIP3   OH260625   1.123   2.395  17.157 -0.0768  0.0929  0.8537
13045TIP3    H160626   1.206   2.439  17.140 -0.9129  1.5892  0.4513
13045TIP3    H260627   1.146   2.306  17.182  1.5471 -0.1742 -1.4723
13046TIP3   OH260628   2.483   5.398  16.303  0.6846  0.1269 -0.3127
13046TIP3    H160629   2.506   5.487  16.277 -0.6116  0.2808 -0.9791
13046TIP3    H260630   2.401   5.408  16.353  0.0058 -0.7862 -1.2244
13047TIP3   OH260631   1.406   6.310   4.820 -0.3868 -0.2612  0.3679
13047TIP3    H160632   1.385   6.354   4.903  0.6039  1.0340 -0.0349
13047TIP3    H260633   1.321   6.285   4.783 -0.9941  1.4795  0.5414
13048TIP3   OH260634   1.295   6.388   5.914  0.7327 -0.3193  0.0151
13048TIP3    H160635   1.390   6.400   5.916  0.8099 -0.7902 -0.9526
13048TIP3    H260636   1.270   6.379   6.007  1.4561  1.0657  0.3562
13049TIP3   OH260637   1.247   2.316   3.258 -0.2074  0.2238  0.5102
13049TIP3    H160638   1.246   2.411   3.260  2.2372  0.4550 -3.4756
13049TIP3    H260639   1.331   2.292   3.296  0.1812 -0.1726 -0.5561
13050TIP3   OH260640   4.733   6.767  16.854 -0.0249  0.5151  0.1829
13050TIP3    H160641   4.685   6.849  16.850 -1.5529 -0.4495 -1.9503
13050TIP3    H260642   4.678   6.709  16.906  0.6693  0.5729  0.9899
13051TIP3   OH260643   6.462   4.130  10.737 -0.3245  0.4805  0.4279
13051TIP3    H160644   6.443   4.162  10.649  1.4780  0.6315  0.0643
13051TIP3    H260645   6.442   4.204  10.794 -3.6436 -0.3388  0.4095
13052TIP3   OH260646   5.494   2.415   0.123 -0.3964  0.7754 -0.1348
13052TIP3    H160647   5.520   2.417   0.031 -1.5849 -0.2262 -0.5091
13052TIP3    H260648   5.575   2.403   0.171  0.1812  0.8279 -1.0843
13053TIP3   OH260649   4.515   3.992  15.291 -0.3915 -0.3121 -0.7208
13053TIP3    H160650   4.429   4.032  15.289  0.3678  1.3687 -0.2714
13053TIP3    H260651   4.551   4.015  15.377  0.8962 -0.1403 -1.2950
13054TIP3   OH260652   1.080   6.696   2.362  0.3204 -0.1121  0.3022
13054TIP3    H160653   0.993   6.699   2.402  0.4185 -0.7408  0.5661
13054TIP3    H260654   1.119   6.616   2.396  0.3948 -0.6602 -1.0765
13055TIP3   OH260655   0.308   5.448   5.771 -0.4750 -0.0568  0.2353
13055TIP3    H160656   0.247   5.522   5.765 -1.3495 -0.8343 -0.4955
13055TIP3    H260657   0.304   5.406   5.686  1.6686  0.3126 -0.0840
13056TIP3   OH260658   1.897   0.502   5.779  0.3954 -0.3506 -0.5899
13056TIP3    H160659   1.916   0.541   5.865 -0.2660  0.3839 -0.7717
13056TIP3    H260660   1.813   0.540   5.754 -0.9174 -2.8168 -0.2025
13057TIP3   OH260661   1.354   1.406  13.510  0.6778 -0.0741 -0.3156
13057TIP3    H160662   1.345   1.352  13.588 -0.4232  2.2891  1.2633
13057TIP3    H260663   1.269   1.401  13.466  0.2336  1.1527  0.3819
13058TIP3   OH260664   6.490   2.982   2.355 -0.4197  0.2333 -0.5157
13058TIP3    H160665   6.558   2.931   2.310 -1.1234 -0.9326 -0.2531
13058TIP3    H260666   6.450   2.921   2.417 -0.2568  1.5103  0.8817
13059TIP3   OH260667   0.118   4.147  12.908  0.5513  0.1094 -0.4499
13059TIP3    H160668   0.138   4.135  13.001 -0.6246  0.8575 -0.0912
13059TIP3    H260669   0.025   4.128  12.901  0.1635  2.1199 -1.1037
13060TIP3   OH260670   2.058   0.472   0.625  0.0056  0.1555  0.4239
13060TIP3    H160671   2.015   0.557   0.628  0.7856  0.6266 -0.9534
13060TIP3    H260672   2.151   0.492   0.633  0.0570 -0.7563  2.2493
13061TIP3   OH260673   2.398   6.575  14.330 -0.1938 -0.4739  0.6924
13061TIP3    H160674   2.337   6.562  14.403  0.8498 -4.2214  1.0482
13061TIP3    H260675   2.475   6.613  14.370 -1.2078  1.6168  0.7295
13062TIP3   OH260676   4.769   6.382  14.771 -0.5532  0.3274  0.8036
13062TIP3    H160677   4.838   6.429  14.725 -0.0002 -0.6924  0.5695
13062TIP3    H260678   4.688   6.423  14.741 -0.0886  0.9605  0.4190
13063TIP3   OH260679   4.974   4.904  11.865  0.2522  0.1923  0.5844
13063TIP3    H160680   4.926   4.903  11.783  1.2790 -1.2012 -0.0184
13063TIP3    H260681   4.907   4.887  11.932 -0.2663 -0.7361 -0.1562
13064TIP3   OH260682   2.629   1.335  11.866 -0.0579  0.4821  0.1782
13064TIP3    H160683   2.572   1.325  11.942 -1.2994 -0.3876 -0.8546
13064TIP3    H260684   2.619   1.254  11.817  1.7372  0.4948 -0.2673
13065TIP3   OH260685   6.281   0.068   1.972  0.6478 -0.4633 -0.0917
13065TIP3    H160686   6.372   0.061   2.003  0.5072  0.2503  0.5028
13065TIP3    H260687   6.286   0.045   1.879  1.4056 -0.6293 -0.0175
13066TIP3   OH260688   5.271   4.609   5.639 -0.3183  0.1399  0.0425
13066TIP3    H160689   5.197   4.600   5.578  0.3308  1.0681 -0.8972
13066TIP3    H260690   5.348   4.596   5.585  0.2528  0.3279  0.8067
13067TIP3   OH260691   6.462   4.097  16.958  0.2749  0.4557 -0.4471
13067TIP3    H160692   6.558   4.092  16.962  0.2207  0.2221  0.6055
13067TIP3    H260693   6.444   4.143  16.876  1.2674 -0.1371 -1.0030
13068TIP3   OH260694   4.040   3.597  12.670  0.9829  0.6124 -0.2474
13068TIP3    H160695   3.964   3.544  12.692  0.0966  1.9503 -0.0434
13068TIP3    H260696   4.079   3.618  12.755  1.5933 -0.0559 -0.3496
13069TIP3   OH260697   0.685   4.288  12.485 -0.2092 -0.2507 -0.0185
13069TIP3    H160698   0.660   4.249  12.569 -0.8123  1.9237  0.8396
13069TIP3    H260699   0.670   4.381  12.497  0.6543  0.1893 -2.2334
13070TIP3   OH260700   0.418   1.329  16.705 -0.4769  1.0624 -0.3300
13070TIP3    H160701   0.461   1.317  16.621 -0.5758 -2.3396  0.0268
13070TIP3    H260702   0.362   1.252  16.714 -1.3533  1.9576  2.3164
13071TIP3   OH260703   4.529   0.181  11.836  0.1353 -0.4032 -0.6457
13071TIP3    H160704   4.446   0.141  11.811 -0.4217 -0.4517  1.2539
13071TIP3    H260705   4.530   0.265  11.789 -2.9772  1.5515  2.5263
13072TIP3   OH260706   3.597   2.297   6.255 -0.0335  0.2782 -0.2727
13072TIP3    H160707   3.546   2.218   6.238 -0.4066  0.6690 -0.9889
13072TIP3    H260708   3.647   2.277   6.334 -0.2318 -0.6213 -0.3718
13073TIP3   OH260709   1.631   1.174   5.891 -0.5419 -0.4790 -0.1620
13073TIP3    H160710   1.579   1.188   5.970 -0.5191 -2.2421  0.1848
13073TIP3    H260711   1.706   1.232   5.901 -1.3765  0.5333  0.3180
13074TIP3   OH260712   3.176   5.654   5.687  0.3202  0.1432  0.4393
13074TIP3    H160713   3.088   5.692   5.691 -0.1213 -0.9383  1.5477
13074TIP3    H260714   3.230   5.723   5.649 -1.3126  0.2274 -1.8726
13075TIP3   OH260715   5.196   1.131   2.430  0.3177 -0.5219 -0.5169
13075TIP3    H160716   5.270   1.170   2.475  0.4688 -1.3128 -0.0697
13075TIP3    H260717   5.142   1.205   2.403  1.3189  0.0579 -0.9352
13076TIP3   OH260718   6.489   1.755  12.527 -0.2319  0.2709  0.1186
13076TIP3    H160719   6.515   1.756  12.435 -2.6669 -0.9312 -0.6331
13076TIP3    H260720   6.458   1.665  12.542  0.8919  0.2297  2.3436
13077TIP3   OH260721   3.742   1.413  13.773 -0.0779  0.6852 -0.0269
13077TIP3    H160722   3.662   1.461  13.753 -1.2998 -0.8130  1.1011
13077TIP3    H260723   3.725   1.324  13.743  1.7387  0.6741 -1.1056
13078TIP3   OH260724   0.173   4.552  15.413 -0.1128  1.0480  0.1668
13078TIP3    H160725   0.146   4.561  15.321 -0.2154  0.5498  0.1487
13078TIP3    H260726   0.091   4.552  15.462 -0.0669  1.0983  0.2436
13079TIP3   OH260727   2.747   6.396   1.957  0.0389  0.3115 -0.1748
13079TIP3    H160728   2.819   6.399   1.894 -0.7031  1.9532 -0.9687
13079TIP3    H260729   2.681   6.340   1.916 -0.5075  1.5021 -0.9559
13080TIP3   OH260730   0.421   0.209   1.609 -0.1167 -0.3231  0.6811
13080TIP3    H160731   0.418   0.160   1.527  1.0136 -0.0122  0.4505
13080TIP3    H260732   0.510   0.198   1.640  0.2461  1.8753  0.4624
13081TIP3   OH260733   6.625   2.555  15.847 -0.4550 -0.0760  0.0313
13081TIP3    H160734   6.644   2.601  15.929 -0.1256 -2.0775  1.1099
13081TIP3    H260735   6.529   2.556  15.841 -0.4638  0.4352  0.2308
13082TIP3   OH260736   5.714   3.086  13.601  0.4875  0.1339  0.1057
13082TIP3    H160737   5.698   3.054  13.690  1.6255  1.8442  0.9412
13082TIP3    H260738   5.778   3.025  13.564 -0.6159 -1.0698  0.1441
13083TIP3   OH260739   4.988   4.087  14.435  0.7293  0.2813 -0.1455
13083TIP3    H160740   4.911   4.137  14.462 -1.2539 -2.0966 -1.2116
13083TIP3    H260741   5.055   4.107  14.500 -1.2838  1.1981  1.6616
13084TIP3   OH260742   2.200   5.618   4.491  0.2414  0.1270  0.8761
13084TIP3    H160743   2.187   5.685   4.557  0.3762  0.6944  0.3360
13084TIP3    H260744   2.293   5.596   4.497  0.1265 -0.2492  1.2757
13085TIP3   OH260745   6.103   0.041   3.762  0.7887  0.0935 -0.1506
13085TIP3    H160746   6.123  -0.038   3.712  0.4798  0.5090 -0.9336
13085TIP3    H260747   6.030   0.016   3.819  3.6209 -1.5428  2.9733
13086TIP3   OH260748   0.151   2.300   0.769  0.6230  0.0277  0.1327
13086TIP3    H160749   0.086   2.253   0.820 -1.2322 -1.4356 -3.4063
13086TIP3    H260750   0.136   2.392   0.790 -2.2805 -0.3336 -0.2143
13087TIP3   OH260751   2.935   2.510   2.253  0.1631 -0.1385  0.1131
13087TIP3    H160752   2.873   2.439   2.269  0.6681 -0.4179  0.8965
13087TIP3    H260753   2.904   2.552   2.173 -0.8406 -0.4778  0.3163
13088TIP3   OH260754   4.399   1.878  11.241  0.6264  0.3149 -0.1383
13088TIP3    H160755   4.395   1.905  11.333 -0.2463  0.2560 -0.1461
13088TIP3    H260756   4.466   1.810  11.238 -0.0801 -0.4389  0.6627
13089TIP3   OH260757   1.863   0.567  13.423 -0.4204  0.0616 -0.4741
13089TIP3    H160758   1.859   0.652  13.379  0.8921 -0.6722 -2.0726
13089TIP3    H260759   1.778   0.527  13.407 -0.8358  0.8219 -0.2077
13090TIP3   OH260760   5.609   6.756   3.264 -0.0744 -0.4550 -0.3129
13090TIP3    H160761   5.624   6.715   3.179 -2.3083  1.2372 -1.5392
13090TIP3    H260762   5.568   6.687   3.316 -0.9740 -0.7383 -1.3832
13091TIP3   OH260763   2.598   0.764   4.604 -0.2163  0.1226 -0.2703
13091TIP3    H160764   2.579   0.746   4.697 -0.8692  1.3925 -0.1554
13091TIP3    H260765   2.685   0.805   4.605  0.1207 -0.5802 -0.2981
13092TIP3   OH260766   0.017   1.909  15.849 -0.0276 -0.6977  0.3353
13092TIP3    H160767   0.082   1.956  15.798 -1.9373  0.6232 -0.9415
13092TIP3    H260768   0.023   1.947  15.937 -0.4733  0.8303 -0.2866
13093TIP3   OH260769   0.506   4.273   1.309 -0.5256 -0.0404  0.6360
13093TIP3    H160770   0.492   4.211   1.380 -0.3798 -1.2359 -0.3814
13093TIP3    H260771   0.450   4.243   1.238 -0.0443  0.6608 -0.0559
13094TIP3   OH260772   5.370   6.423  17.198 -0.3630  0.2504 -0.2300
13094TIP3    H160773   5.305   6.490  17.178  0.3134  0.8281 -0.5103
13094TIP3    H260774   5.448   6.472  17.222  0.0145 -0.4396 -0.0386
13095TIP3   OH260775   3.874   5.252   0.854 -0.5155  0.0265  0.5552
13095TIP3    H160776   3.898   5.192   0.783 -1.7674  1.0465 -0.7748
13095TIP3    H260777   3.956   5.272   0.898  0.2885 -0.5762 -0.6499
13096TIP3   OH260778   1.496   6.688   4.949 -0.4251 -0.0754 -0.6114
13096TIP3    H160779   1.555   6.623   4.986 -0.4957 -1.2410 -2.4995
13096TIP3    H260780   1.408   6.658   4.973 -0.3842  0.2124 -0.0940
13097TIP3   OH260781   5.900   0.411   5.982  0.3095  0.3861  0.0888
13097TIP3    H160782   5.903   0.479   6.050 -0.2301 -0.9296  1.4380
13097TIP3    H260783   5.820   0.362   6.000 -0.2289  0.4778 -1.9578
13098TIP3   OH260784   5.113   0.977  16.492  0.4805  0.0173 -0.4867
13098TIP3    H160785   5.141   0.901  16.543 -1.1706 -0.1434  0.2030
13098TIP3    H260786   5.152   0.964  16.405  0.7770 -1.2514 -0.1688
13099TIP3   OH260787   3.749   1.253   1.262 -0.3788 -0.1854 -0.2481
13099TIP3    H160788   3.797   1.336   1.270 -0.6033 -0.1064  0.2725
13099TIP3    H260789   3.806   1.188   1.302 -0.5062 -0.1696 -0.0436
13100TIP3   OH260790   2.594   1.242   0.494 -0.0004 -0.2451 -0.3048
13100TIP3    H160791   2.584   1.320   0.439  2.6270 -1.1080 -2.0980
13100TIP3    H260792   2.639   1.179   0.438  1.5046 -1.6408  2.3800
13101TIP3   OH260793   1.311   2.496  10.647 -0.0574  0.5343  0.2478
13101TIP3    H160794   1.287   2.583  10.679  0.6339  0.7501  0.1981
13101TIP3    H260795   1.393   2.476  10.692 -0.2294 -0.1109  0.2856
13102TIP3   OH260796   0.184   5.848   5.692  0.2899 -0.5552 -0.2667
13102TIP3    H160797   0.167   5.767   5.646  0.1625 -1.9373  2.1572
13102TIP3    H260798   0.280   5.858   5.688  0.2031 -0.1347 -1.6446
13103TIP3   OH260799   1.303   1.055  14.299  0.6040 -0.1261 -0.1949
13103TIP3    H160800   1.261   0.981  14.342 -2.6473  1.4071 -0.5803
13103TIP3    H260801   1.369   1.016  14.242  0.2013 -2.5682  0.9692
13104TIP3   OH260802   4.007   3.829   0.334 -0.1978 -0.9978 -0.0855
13104TIP3    H160803   4.051   3.804   0.415 -0.6477  1.1759  0.8870
13104TIP3    H260804   3.967   3.914   0.354 -0.2626 -0.3863 -2.6114
13105TIP3   OH260805   0.390   1.592  10.968  0.6365  0.1849  0.6373
13105TIP3    H160806   0.303   1.593  10.929  0.9069 -0.4575  0.0092
13105TIP3    H260807   0.381   1.537  11.046  0.7936 -1.0048 -0.1801
13106TIP3   OH260808   3.173   2.578  10.749  0.3687  0.2021  0.1022
13106TIP3    H160809   3.140   2.643  10.687 -0.3015  0.6056  0.8728
13106TIP3    H260810   3.142   2.494  10.714 -0.7103  0.5001  0.3253
13107TIP3   OH260811   4.800   0.285   1.789  0.5273 -0.6888 -1.0110
13107TIP3    H160812   4.751   0.248   1.716  1.3226 -1.5595 -1.1071
13107TIP3    H260813   4.732   0.309   1.853 -0.1232 -0.5288 -1.7418
13108TIP3   OH260814   2.122   2.178   4.633  0.6298 -0.0873 -0.2051
13108TIP3    H160815   2.075   2.170   4.716  1.1892  1.1374  0.2315
13108TIP3    H260816   2.214   2.188   4.657  0.8422 -0.1195 -0.9799
13109TIP3   OH260817   5.043   6.697   5.081  0.1011 -0.3187  0.1197
13109TIP3    H160818   4.986   6.764   5.044 -0.5848 -0.3621  1.0918
13109TIP3    H260819   5.089   6.661   5.005 -0.5876  0.2543 -0.5830
13110TIP3   OH260820   3.612   4.889   3.784  0.2236  0.1750 -0.0369
13110TIP3    H160821   3.585   4.854   3.699  0.9091  1.2661 -0.7070
13110TIP3    H260822   3.583   4.980   3.783 -0.9978 -0.1681  1.4528
13111TIP3   OH260823   4.487   3.921  12.819  0.5514  0.0532 -0.3203
13111TIP3    H160824   4.501   3.958  12.732 -0.7998  1.1876 -0.0850
13111TIP3    H260825   4.397   3.888  12.817  0.8353 -0.7721  0.3484
13112TIP3   OH260826   6.599   1.394  14.926  0.2489  0.2515  0.7384
13112TIP3    H160827   6.567   1.304  14.917  0.9232 -0.2902  3.2695
13112TIP3    H260828   6.602   1.409  15.021 -0.2218  3.0911  0.3686
13113TIP3   OH260829   0.700   1.023  13.134 -0.3452 -0.3222  0.5658
13113TIP3    H160830   0.672   1.038  13.044  0.7069  0.5572  0.3773
13113TIP3    H260831   0.654   1.090  13.185 -1.4922 -1.2643  0.7997
13114TIP3   OH260832   0.457   0.454   5.030 -0.0442  0.1082 -0.1817
13114TIP3    H160833   0.509   0.406   5.095 -1.5211 -2.6008 -0.9247
13114TIP3    H260834   0.446   0.541   5.069  1.7133 -0.4876  1.7706
13115TIP3   OH260835   4.617   1.772   3.957 -0.7756  0.2999 -0.0476
13115TIP3    H160836   4.674   1.835   4.002  0.3579 -0.8203  0.1475
13115TIP3    H260837   4.627   1.791   3.864  1.5530 -1.1685 -0.1495
13116TIP3   OH260838   4.901   3.679   2.920  0.6530 -0.0493  0.1610
13116TIP3    H160839   4.859   3.697   2.835  0.9245 -0.9267 -0.1606
13116TIP3    H260840   4.831   3.694   2.984  0.2092 -0.2030 -0.2801
13117TIP3   OH260841   1.087   5.533  16.746  0.0606 -0.7553 -0.6314
13117TIP3    H160842   1.127   5.589  16.813 -0.1714 -0.2870 -0.8839
13117TIP3    H260843   1.098   5.444  16.780 -0.0136 -0.5235  0.0069
13118TIP3   OH260844   2.058   2.494  14.285  0.7832  0.5093  0.0114
13118TIP3    H160845   2.021   2.469  14.200  0.8183 -0.2909  0.2279
13118TIP3    H260846   2.066   2.589  14.280 -1.6478  0.7532  0.1070
13119TIP3   OH260847   1.034   5.898   5.030 -0.4986  0.1335 -0.0959
13119TIP3    H160848   1.008   5.810   5.056 -1.4323  0.8851  1.6549
13119TIP3    H260849   1.130   5.895   5.028 -0.4799 -0.6375  1.0969
13120TIP3   OH260850   0.294   1.705   5.119 -0.4612  0.3203  0.2749
13120TIP3    H160851   0.269   1.777   5.176 -1.5777 -0.0316  0.2421
13120TIP3    H260852   0.365   1.740   5.066 -2.1560  1.9660 -0.9587
13121TIP3   OH260853   1.107   3.102  10.902  0.1996  0.4181  0.1642
13121TIP3    H160854   1.178   3.159  10.930  0.6464  0.2091 -0.5440
13121TIP3    H260855   1.028   3.157  10.909  0.2786  0.3369  1.9293
13122TIP3   OH260856   6.124   4.517   6.571  0.6046  0.5672  0.9822
13122TIP3    H160857   6.069   4.441   6.551 -1.3278  1.5289  2.4915
13122TIP3    H260858   6.125   4.568   6.490  1.2614 -0.6514  0.2124
13123TIP3   OH260859   4.320   4.819  12.812  0.5787 -0.0305  0.2825
13123TIP3    H160860   4.317   4.738  12.862  1.2579 -0.7634 -0.8518
13123TIP3    H260861   4.411   4.847  12.816  1.3212 -1.7078 -3.0347
13124TIP3   OH260862   3.202   6.618  16.462  0.6895 -0.6501  0.4265
13124TIP3    H160863   3.168   6.694  16.509  0.6985  0.0769 -0.6948
13124TIP3    H260864   3.243   6.656  16.384 -0.9661 -1.9493 -1.1096
13125TIP3   OH260865   0.823   6.371   2.133  0.4657  0.0850 -0.3066
13125TIP3    H160866   0.895   6.349   2.192  0.4483  2.9682  0.8622
13125TIP3    H260867   0.795   6.458   2.161 -1.8863  0.0135 -2.3142
13126TIP3   OH260868   3.754   4.921   0.775  0.3915  0.0019  1.5675
13126TIP3    H160869   3.839   4.958   0.751 -0.9132  1.2579 -1.4248
13126TIP3    H260870   3.700   4.998   0.797 -0.6922 -0.5348  0.8717
13127TIP3   OH260871   5.688   1.643  17.244 -0.5381  0.3469  0.0542
13127TIP3    H160872   5.594   1.653  17.226 -0.6364  1.3329  1.0472
13127TIP3    H260873   5.695   1.648  17.339  0.1981 -2.8462  0.2210
13128TIP3   OH260874   0.711   2.905  16.494  0.1769  0.2993 -0.2527
13128TIP3    H160875   0.737   2.813  16.498  0.8107  0.4209 -1.5564
13128TIP3    H260876   0.782   2.953  16.536  0.1117  0.2471 -0.0829
13129TIP3   OH260877   4.451   5.452  14.919  0.4314 -0.1883 -0.4228
13129TIP3    H160878   4.533   5.453  14.969 -0.3830 -0.2189  0.9147
13129TIP3    H260879   4.415   5.364  14.933  0.0114 -0.0735 -0.7636
13130TIP3   OH260880   0.665   0.496  10.587 -1.0337  0.8160  0.2720
13130TIP3    H160881   0.739   0.438  10.607 -0.3787  1.1706 -1.0819
13130TIP3    H260882   0.592   0.436  10.571 -0.4426  0.3693 -0.8019
13131TIP3   OH260883   6.593   5.736  16.859 -0.1173  0.4448 -0.1316
13131TIP3    H160884   6.634   5.761  16.942  0.3500 -1.4555  0.2227
13131TIP3    H260885   6.581   5.641  16.866 -0.7633  0.3891 -1.9358
13132TIP3   OH260886   4.901   3.502   3.489  0.3614 -0.9562  0.4572
13132TIP3    H160887   4.874   3.453   3.412 -2.6979  1.5704 -0.1962
13132TIP3    H260888   4.968   3.562   3.457 -0.6060 -0.2012 -0.1859
13133TIP3   OH260889   0.138   2.988   4.789 -0.2663  0.7119  0.6574
13133TIP3    H160890   0.168   2.934   4.716  0.3677  0.9506  0.7383
13133TIP3    H260891   0.075   3.049   4.750  1.9360  2.5081 -0.1784
13134TIP3   OH260892   3.158   2.399   3.141 -0.7837 -0.5084 -0.3745
13134TIP3    H160893   3.231   2.434   3.089 -0.9433  0.6467  0.1678
13134TIP3    H260894   3.080   2.434   3.098 -1.0132 -1.5603 -0.8174
13135TIP3   OH260895   5.483   2.264  12.097 -0.2531 -0.3616  0.2695
13135TIP3    H160896   5.395   2.295  12.119 -0.8681 -0.3782 -2.0143
13135TIP3    H260897   5.530   2.343  12.071 -0.1230 -0.5829 -0.1742
13136TIP3   OH260898   2.598   1.530   5.133  0.0397 -0.4707 -0.3958
13136TIP3    H160899   2.689   1.560   5.142 -0.6831  1.7857 -0.1207
13136TIP3    H260900   2.551   1.581   5.199 -1.2224 -2.5546  0.3239
13137TIP3   OH260901   0.778   3.884   5.174  0.2148 -0.2002 -0.4483
13137TIP3    H160902   0.793   3.951   5.241  0.1041  0.9619 -1.5741
13137TIP3    H260903   0.765   3.803   5.224  0.9067  0.5049  0.9046
13138TIP3   OH260904   5.440   6.690  17.005  0.8121 -0.0081  0.2839
13138TIP3    H160905   5.466   6.781  16.988  0.3749 -0.3204 -2.2461
13138TIP3    H260906   5.345   6.689  16.990  0.7174 -0.7481  0.9053
13139TIP3   OH260907   4.926   5.498   3.112 -0.1672 -0.1871 -0.2875
13139TIP3    H160908   4.881   5.437   3.170 -0.3245  0.3875  0.2022
13139TIP3    H260909   4.948   5.446   3.035  1.2699 -1.3480  0.8537
13140TIP3   OH260910   1.500   4.947  15.892  0.1765  0.1497  0.1406
13140TIP3    H160911   1.447   4.878  15.851  3.5169 -1.2293 -2.1130
13140TIP3    H260912   1.515   4.916  15.981 -1.2175 -0.3346  0.2214
13141TIP3   OH260913   4.082   4.740   4.199 -0.4420  0.1881  0.3478
13141TIP3    H160914   4.133   4.658   4.205 -0.3675  0.2281  0.2570
13141TIP3    H260915   4.144   4.804   4.165 -0.5647  0.2268  0.1969
13142TIP3   OH260916   6.736   0.063  13.068  0.5907 -0.4314 -0.3963
13142TIP3    H160917   6.655   0.115  13.064  1.4744  0.9124 -1.7317
13142TIP3    H260918   6.741   0.033  13.159  0.1618  2.0718  0.5042
13143TIP3   OH260919   1.343   0.668   1.764 -0.1176 -0.0111 -0.3015
13143TIP3    H160920   1.403   0.717   1.821 -0.8037 -0.0722  0.4889
13143TIP3    H260921   1.256   0.704   1.785 -0.6629 -1.7650  0.5182
13144TIP3   OH260922   4.381   6.213  11.978  0.1388 -0.3967  0.4290
13144TIP3    H160923   4.332   6.132  11.988 -0.5955  0.1791  1.6708
13144TIP3    H260924   4.321   6.281  12.010  0.0158  0.8840 -2.3193
13145TIP3   OH260925   2.956   0.240   4.437 -0.1853 -0.1352 -0.0955
13145TIP3    H160926   2.994   0.224   4.351 -1.0794  1.5154 -0.8219
13145TIP3    H260927   2.905   0.320   4.426 -2.2553 -1.1860  1.3345
13146TIP3   OH260928   0.823   2.794  13.728 -0.3523 -0.1640  0.1533
13146TIP3    H160929   0.727   2.794  13.726 -0.3523 -0.5497  0.1374
13146TIP3    H260930   0.847   2.843  13.649 -0.5485  2.6987  1.8000
13147TIP3   OH260931   2.642   4.963  13.123  0.4449  0.7368  0.3324
13147TIP3    H160932   2.640   5.058  13.105  0.9120  0.4442 -1.3725
13147TIP3    H260933   2.550   4.936  13.122  0.2792  1.2595  1.3076
13148TIP3   OH260934   0.576   3.360   6.678 -0.3692 -0.0782  0.6714
13148TIP3    H160935   0.519   3.436   6.690 -0.7250  0.1658 -2.2017
13148TIP3    H260936   0.665   3.397   6.675 -0.3867  0.0060  1.2275
13149TIP3   OH260937   3.056   0.139   4.012  0.2029 -0.4073 -0.4748
13149TIP3    H160938   3.061   0.224   4.054 -0.0702  0.1926 -1.6295
13149TIP3    H260939   3.034   0.078   4.082  0.1549  0.5106  0.3090
13150TIP3   OH260940   6.523   3.686  13.287  0.6949  0.4602  0.0696
13150TIP3    H160941   6.558   3.661  13.201  0.1587  0.4349 -0.1448
13150TIP3    H260942   6.431   3.662  13.283  0.5656  0.8790  0.4926
13151TIP3   OH260943   6.371   3.388  12.907 -0.1035  0.6591 -0.3107
13151TIP3    H160944   6.281   3.390  12.874  0.1259  2.9471 -0.9088
13151TIP3    H260945   6.402   3.300  12.886 -2.2654 -0.2693  0.1429
13152TIP3   OH260946   1.704   6.441  11.541  0.5032 -0.1124 -0.0231
13152TIP3    H160947   1.623   6.491  11.547 -0.2522 -1.0653 -1.8922
13152TIP3    H260948   1.773   6.506  11.525 -0.0408  0.5871  0.4848
13153TIP3   OH260949   4.807   2.664  12.494 -1.0269 -0.4799  0.1819
13153TIP3    H160950   4.807   2.752  12.459 -2.1162 -0.6255 -0.2006
13153TIP3    H260951   4.802   2.607  12.417 -0.0409 -0.8802  0.4106
13154TIP3   OH260952   5.258   3.534   0.933  0.6183  0.7219  0.5458
13154TIP3    H160953   5.242   3.602   0.868  0.8556 -0.2896 -0.5841
13154TIP3    H260954   5.325   3.478   0.894 -2.3656 -2.4406 -0.3082
13155TIP3   OH260955   5.426   4.870  15.068 -0.9466  0.2061  0.6468
13155TIP3    H160956   5.430   4.962  15.044 -0.5794 -0.1474 -0.7065
13155TIP3    H260957   5.515   4.838  15.054 -0.9742 -0.2654  1.4978
13156TIP3   OH260958   0.765   6.354  15.588 -0.0233 -0.2868  0.3044
13156TIP3    H160959   0.763   6.440  15.630 -3.8323  0.2540 -0.7843
13156TIP3    H260960   0.754   6.372  15.495 -0.2338 -1.8962  0.0014
13157TIP3   OH260961   3.167   5.947  12.405 -0.0217 -0.6526  0.2068
13157TIP3    H160962   3.205   5.953  12.493 -1.6066  1.4455  0.7809
13157TIP3    H260963   3.091   5.890  12.416  1.8051 -3.3242 -0.5673
13158TIP3   OH260964   0.102   4.407   1.774  0.5464 -0.0133 -0.1300
13158TIP3    H160965   0.021   4.456   1.761  0.8114  0.9981  1.7372
13158TIP3    H260966   0.146   4.410   1.690  0.2294  2.4076 -0.2485
13159TIP3   OH260967   1.315   5.075  14.937 -0.0114 -0.1719  0.4603
13159TIP3    H160968   1.236   5.124  14.959 -1.0691 -1.2445 -0.8805
13159TIP3    H260969   1.354   5.054  15.022 -1.6155 -0.3720  1.1719
13160TIP3   OH260970   0.528   1.250   2.020  0.1195  0.0535  0.1224
13160TIP3    H160971   0.501   1.240   1.928  2.2745 -0.8877 -0.4218
13160TIP3    H260972   0.492   1.335   2.045  0.4326  0.8429 -1.9453
13161TIP3   OH260973   6.400   3.274  13.554 -0.2494 -1.0164  0.6237
13161TIP3    H160974   6.433   3.210  13.491 -0.6730 -0.8001  0.1770
13161TIP3    H260975   6.363   3.221  13.625 -0.4987 -1.2658  0.3084
13162TIP3   OH260976   1.534   4.284  16.698 -0.1079  0.3214  0.3817
13162TIP3    H160977   1.565   4.200  16.733 -0.4361  0.0898  0.1191
13162TIP3    H260978   1.558   4.348  16.765 -1.8443 -0.2985  1.6330
13163TIP3   OH260979   4.445   4.161   5.607 -0.2358  0.7148  0.0688
13163TIP3    H160980   4.437   4.072   5.639 -0.1227  0.4029 -0.7595
13163TIP3    H260981   4.521   4.197   5.652  1.4445 -0.5331 -1.7002
13164TIP3   OH260982   6.285   6.695   3.238  0.1233 -0.1321  0.2981
13164TIP3    H160983   6.338   6.724   3.164  0.8756  0.0659  0.9079
13164TIP3    H260984   6.317   6.747   3.312  0.7446 -1.7330  1.1725
13165TIP3   OH260985   6.779   1.361   4.944 -0.6814  0.7156 -0.5967
13165TIP3    H160986   6.692   1.391   4.968  0.6127  3.8319  0.5398
13165TIP3    H260987   6.838   1.427   4.982  2.1896 -1.6165 -0.8250
13166TIP3   OH260988   3.106   4.433   6.102 -0.2886  0.6521  0.4834
13166TIP3    H160989   3.081   4.522   6.078  0.9350  0.8444 -0.0898
13166TIP3    H260990   3.093   4.430   6.197 -0.6904  1.3192  0.4524
13167TIP3   OH260991   4.703   3.825   2.394  0.3058 -0.4387  0.0570
13167TIP3    H160992   4.772   3.761   2.378 -2.3265 -2.4939 -4.0758
13167TIP3    H260993   4.713   3.890   2.325  0.3687  1.3664  1.7130
13168TIP3   OH260994   1.607   4.654   2.555  0.3443  0.4659  0.3982
13168TIP3    H160995   1.572   4.613   2.477  3.8672  0.5172 -1.3140
13168TIP3    H260996   1.538   4.713   2.586 -2.3440 -2.0234 -0.7250
13169TIP3   OH260997   0.470   1.318   5.208 -0.0721  0.2246  0.3508
13169TIP3    H160998   0.407   1.321   5.136  0.2361 -0.7338  0.0368
13169TIP3    H260999   0.496   1.409   5.221 -2.7658  0.8515  1.5787
13170TIP3   OH261000   1.512   2.239   5.492  0.3599 -0.2129  0.4631
13170TIP3    H161001   1.441   2.289   5.532 -0.2686 -0.0855 -0.7856
13170TIP3    H261002   1.533   2.288   5.412  2.4155  0.2104  1.2203
13171TIP3   OH261003   4.268   5.759  11.964 -0.2433  0.5711  0.2354
13171TIP3    H161004   4.297   5.781  12.052 -0.3346  0.1826  0.3653
13171TIP3    H261005   4.346   5.727  11.920 -0.4540 -0.4351  0.5719
13172TIP3   OH261006   0.662   4.973   4.374 -0.0383  0.5236  0.0062
13172TIP3    H161007   0.575   4.949   4.342  1.6398 -1.6792 -3.0714
13172TIP3    H261008   0.687   5.050   4.322 -0.3610  1.5403  1.3235
13173TIP3   OH261009   6.546   5.975  15.785  0.4675 -0.2141  0.5049
13173TIP3    H161010   6.512   5.934  15.864 -1.0410  0.1028  0.0294
13173TIP3    H261011   6.495   6.056  15.776  2.4344  1.0732  0.6647
13174TIP3   OH261012   3.281   1.556  16.243  0.3807 -1.2322  0.0142
13174TIP3    H161013   3.273   1.625  16.308  2.3573 -1.5034  0.5655
13174TIP3    H261014   3.281   1.601  16.159 -2.1896 -0.8796  0.1437
13175TIP3   OH261015   4.976   2.997   2.046 -0.3285  0.8645  0.1178
13175TIP3    H161016   4.978   2.940   2.122  0.8473 -1.3158 -1.4927
13175TIP3    H261017   5.046   3.060   2.061  0.9650 -0.5532  0.1110
13176TIP3   OH261018   4.165   1.660   5.531  0.1083  0.1336  0.3483
13176TIP3    H161019   4.225   1.690   5.463  1.4642  0.5687  1.7261
13176TIP3    H261020   4.201   1.576   5.559  1.1405  1.2439  2.4590
13177TIP3   OH261021   4.448   0.834   2.731 -0.9954 -0.2953  0.2973
13177TIP3    H161022   4.513   0.828   2.801 -1.0482  1.2383  0.5115
13177TIP3    H261023   4.424   0.744   2.712  1.8549 -0.9529 -0.4180
13178TIP3   OH261024   1.668   6.081  12.478  0.0710  0.6216  0.0310
13178TIP3    H161025   1.674   6.050  12.388  1.0154 -0.2983  0.4084
13178TIP3    H261026   1.758   6.085  12.509 -0.4318 -2.6173  2.1413
13179TIP3   OH261027   5.731   0.041  16.815  0.2440  0.5220 -0.2668
13179TIP3    H161028   5.707   0.126  16.852  0.8374  1.0223 -1.0061
13179TIP3    H261029   5.653   0.013  16.767  0.0977  0.7120 -0.1437
13180TIP3   OH261030   1.126   5.890   2.296  0.1793 -0.2069 -0.3111
13180TIP3    H161031   1.153   5.803   2.268 -1.4836 -0.9807  0.4096
13180TIP3    H261032   1.148   5.894   2.389  0.9611  0.4436 -0.5142
13181TIP3   OH261033   1.451   3.907   5.235 -0.1768 -0.7822  0.6008
13181TIP3    H161034   1.367   3.927   5.277 -1.7345 -0.3380 -2.6298
13181TIP3    H261035   1.454   3.811   5.235 -0.6456 -0.8007  0.7632
13182TIP3   OH261036   4.325   6.805  11.815 -0.2763  0.8073 -0.5675
13182TIP3    H161037   4.402   6.753  11.838  0.4528  2.2788  0.3582
13182TIP3    H261038   4.255   6.740  11.808  0.6588 -0.3374  0.3552
13183TIP3   OH261039   4.712   6.177  13.669 -0.2740  0.7101  0.7804
13183TIP3    H161040   4.663   6.213  13.742 -0.4881  1.0980  0.4521
13183TIP3    H261041   4.804   6.199  13.687 -0.2336  0.1013  1.3265
13184TIP3   OH261042   1.965   1.192   4.191  0.4133 -0.2068 -0.0980
13184TIP3    H161043   1.989   1.178   4.099 -2.3695 -0.1275 -0.8712
13184TIP3    H261044   1.988   1.283   4.208  0.6032 -0.1168 -0.8166
13185TIP3   OH261045   3.650   2.931  16.822  0.2915 -0.1272 -0.6125
13185TIP3    H161046   3.621   2.915  16.912  0.4921 -0.9445 -0.6916
13185TIP3    H261047   3.588   2.883  16.767 -0.7219  1.5522 -1.0041
13186TIP3   OH261048   4.477   4.566   3.012 -0.6624  0.1207 -0.1078
13186TIP3    H161049   4.411   4.506   3.047 -0.4082 -0.1138 -0.0213
13186TIP3    H261050   4.559   4.535   3.051 -0.8970  2.2403  2.1561
13187TIP3   OH261051   4.921   5.986   4.909  0.3617  0.2261  0.3328
13187TIP3    H161052   4.860   6.017   4.976 -0.3181  0.9525 -0.6064
13187TIP3    H261053   4.879   5.910   4.871 -0.2010  1.0336 -0.6681
13188TIP3   OH261054   2.532   0.331  11.818 -0.2742  0.0323  0.1696
13188TIP3    H161055   2.557   0.370  11.902 -0.2996  1.5788 -0.5275
13188TIP3    H261056   2.448   0.372  11.797 -2.6175 -3.6987  1.5594
13189TIP3   OH261057   3.181   3.861   3.965 -0.2387 -0.4165  0.2926
13189TIP3    H161058   3.174   3.954   3.941 -1.2780 -1.4328 -3.6003
13189TIP3    H261059   3.270   3.836   3.939  0.3540 -0.3319  2.1676
13190TIP3   OH261060   0.464   5.888   5.739  0.8793  0.4824 -0.2633
13190TIP3    H161061   0.480   5.945   5.664  1.6545  0.7905  0.1236
13190TIP3    H261062   0.520   5.924   5.808 -0.6371  0.8575  0.7982
13191TIP3   OH261063   5.876   0.168  12.466 -0.8017  0.1484  0.0130
13191TIP3    H161064   5.968   0.182  12.486 -0.2613 -0.8170 -1.6778
13191TIP3    H261065   5.870   0.178  12.371 -2.7538  1.8633  0.2568
13192TIP3   OH261066   6.534   0.161  15.758  0.3796  0.1848  0.5273
13192TIP3    H161067   6.577   0.085  15.798  0.8738  0.5308  0.6506
13192TIP3    H261068   6.475   0.193  15.826  0.8760  0.4917  0.8156
13193TIP3   OH261069   2.960   5.811   3.584  0.2249 -0.1109 -0.0147
13193TIP3    H161070   2.970   5.816   3.489  1.1493  1.1084  0.1248
13193TIP3    H261071   2.951   5.903   3.612 -0.5823 -0.4916  1.0186
13194TIP3   OH261072   5.184   2.499  13.718  0.4208 -0.5570  0.7389
13194TIP3    H161073   5.187   2.404  13.731  0.5186 -0.9561 -1.7895
13194TIP3    H261074   5.109   2.528  13.769  0.6060 -1.9337  1.8312
13195TIP3   OH261075   0.490   3.642  16.181  0.1761  0.0692  0.0986
13195TIP3    H161076   0.550   3.712  16.155  0.4127 -0.8916 -2.0476
13195TIP3    H261077   0.546   3.567  16.198 -0.2903 -0.4893 -0.7501
13196TIP3   OH261078   1.486   6.516   3.386  0.3870  0.2402 -0.0739
13196TIP3    H161079   1.544   6.568   3.330 -0.0056  1.0824  0.2865
13196TIP3    H261080   1.501   6.551   3.474 -2.1672  1.9052 -0.2322
13197TIP3   OH261081   0.069   6.787  16.653 -0.2054  0.1329 -0.0463
13197TIP3    H161082   0.113   6.791  16.738 -1.1861 -1.5273  0.5747
13197TIP3    H261083   0.000   6.721  16.665 -0.8211  0.4047 -1.9173
13198TIP3   OH261084   0.229   6.784  11.019 -0.6311  0.0545  0.4253
13198TIP3    H161085   0.217   6.877  11.001  1.4698 -0.0214 -1.4742
13198TIP3    H261086   0.212   6.741  10.935 -0.3692 -1.1771  0.9987
13199TIP3   OH261087   2.852   4.274  12.222  0.0767 -0.1586  0.3799
13199TIP3    H161088   2.877   4.182  12.211  2.6025  0.5514 -0.0893
13199TIP3    H261089   2.766   4.270  12.265 -1.1805 -2.7555 -2.2189
13200TIP3   OH261090   6.019   5.525  15.748  0.0403 -0.6608  0.1615
13200TIP3    H161091   6.058   5.592  15.803  0.0412  1.1377 -1.9322
13200TIP3    H261092   5.939   5.499  15.794 -0.9060  2.0971  0.1725
13201TIP3   OH261093   4.747   4.433  13.830 -0.5440 -0.3803 -0.0281
13201TIP3    H161094   4.690   4.491  13.778  1.9116  1.0496 -1.2304
13201TIP3    H261095   4.744   4.349  13.784 -1.3799 -0.2105 -0.2934
13202TIP3   OH261096   0.857   4.156  13.633 -0.0868 -0.4345  0.0329
13202TIP3    H161097   0.942   4.172  13.674  1.1044 -2.4077 -1.5768
13202TIP3    H261098   0.849   4.222  13.565  0.6587 -0.8757 -0.4982
13203TIP3   OH261099   3.037   3.390  11.615  0.2183  0.2767  0.2824
13203TIP3    H161100   2.969   3.370  11.550 -1.0013  1.2557  1.2339
13203TIP3    H261101   2.990   3.430  11.688  1.6812 -0.0567  1.4363
13204TIP3   OH261102   5.212   5.790  17.057 -0.1321  0.1842 -0.4168
13204TIP3    H161103   5.241   5.847  16.985  1.0983  0.6171  0.4195
13204TIP3    H261104   5.263   5.818  17.132  0.4458 -2.0090  0.0305
13205TIP3   OH261105   0.535   2.578  16.648 -0.3732 -0.3334 -0.1755
13205TIP3    H161106   0.566   2.576  16.738 -0.6639  0.0083 -0.0640
13205TIP3    H261107   0.613   2.562  16.595  0.2159  1.6175  0.0554
13206TIP3   OH261108   6.678   6.268  16.385 -0.1220  0.3941  0.4325
13206TIP3    H161109   6.596   6.232  16.352  0.0216 -0.8452  1.4105
13206TIP3    H261110   6.725   6.192  16.421  1.6558  0.9940 -0.5338
13207TIP3   OH261111   1.405   3.602  14.082  0.8522 -0.6837  0.4702
13207TIP3    H161112   1.472   3.548  14.039  0.2961  0.1012 -1.4154
13207TIP3    H261113   1.443   3.621  14.168  3.7107  0.8876 -1.0456
13208TIP3   OH261114   4.065   2.817   4.944 -0.6755  0.0534 -0.8295
13208TIP3    H161115   4.035   2.852   5.028  3.9086  2.1542  0.0884
13208TIP3    H261116   4.082   2.724   4.961  0.3661  0.4982  0.6708
13209TIP3   OH261117   1.083   3.090   6.163 -0.0227  0.4847 -0.3918
13209TIP3    H161118   1.171   3.061   6.139  0.1204  0.0175  0.6788
13209TIP3    H261119   1.060   3.037   6.239 -0.3615  2.1311  0.6872
13210TIP3   OH261120   5.161   6.554  14.080 -0.3582  0.3268 -0.2831
13210TIP3    H161121   5.086   6.598  14.120  1.1552  1.4564  1.3870
13210TIP3    H261122   5.205   6.511  14.154  1.0850  0.3485 -1.1166
13211TIP3   OH261123   0.702   3.401   3.834  0.0612  0.0284 -0.8766
13211TIP3    H161124   0.738   3.484   3.805 -0.7259  0.7315  0.1396
13211TIP3    H261125   0.607   3.414   3.835 -0.0244 -0.5729  0.1734
13212TIP3   OH261126   1.232   2.101   2.393 -0.4951  0.1278  0.0416
13212TIP3    H161127   1.199   2.078   2.480  1.5829 -1.3476  0.4651
13212TIP3    H261128   1.292   2.030   2.370  1.7217  2.2848 -1.0551
13213TIP3   OH261129   2.810   4.081  11.468 -0.4226 -0.1054  0.2473
13213TIP3    H161130   2.810   4.139  11.544 -1.0170 -0.7763  0.7675
13213TIP3    H261131   2.750   4.123  11.406 -0.0202  0.3872  0.1832
13214TIP3   OH261132   3.483   1.743  13.945 -0.4775  0.3449 -0.1457
13214TIP3    H161133   3.461   1.668  14.001  0.6391  0.0956 -0.0365
13214TIP3    H261134   3.564   1.778  13.982 -1.4593  2.1684  0.3389
13215TIP3   OH261135   4.667   5.628  11.218  0.0806  0.2309 -0.3220
13215TIP3    H161136   4.631   5.708  11.257  1.4753  1.0831 -0.7408
13215TIP3    H261137   4.639   5.632  11.127  0.6200  0.5339 -0.4762
13216TIP3   OH261138   6.366   1.380   1.601 -0.1211  0.4061  0.5172
13216TIP3    H161139   6.457   1.357   1.618 -0.5006 -1.5557  0.0911
13216TIP3    H261140   6.354   1.363   1.508  0.0753  4.3512 -0.2806
13217TIP3   OH261141   4.179   2.014   3.513 -0.2496 -0.0086  0.3451
13217TIP3    H161142   4.231   1.984   3.438  0.2432  1.0364  0.2630
13217TIP3    H261143   4.117   2.077   3.477 -0.7483 -0.3232  0.6434
13218TIP3   OH261144   1.150   6.377   2.773 -0.3141  0.4671 -0.0880
13218TIP3    H161145   1.135   6.313   2.843  1.5552  1.0458  0.8840
13218TIP3    H261146   1.069   6.427   2.768 -0.8467 -0.2839  0.9385
13219TIP3   OH261147   2.860   1.974   4.554 -0.2930  0.3666 -0.7170
13219TIP3    H161148   2.885   2.017   4.472  2.0860  0.9568  0.2586
13219TIP3    H261149   2.832   2.046   4.610  0.2164  0.2323 -0.2874
13220TIP3   OH261150   4.954   4.675  11.009 -0.6369  0.4978 -0.1834
13220TIP3    H161151   4.934   4.763  10.976 -0.0158  0.7074 -0.0014
13220TIP3    H261152   4.954   4.619  10.932  1.6533  1.1280 -0.6856
13221TIP3   OH261153   4.200   2.923   6.528  0.3638  0.3526 -0.4725
13221TIP3    H161154   4.175   3.011   6.556  0.3310  0.6253 -1.3481
13221TIP3    H261155   4.275   2.901   6.584  1.3941  1.5840 -1.3444
13222TIP3   OH261156   2.787   1.760  15.790 -0.0308  0.5114  0.2065
13222TIP3    H161157   2.801   1.725  15.877  0.1018 -2.7116 -1.0499
13222TIP3    H261158   2.695   1.740  15.770 -0.1503  1.4902 -0.2969
13223TIP3   OH261159   4.739   0.241   4.245 -0.1850 -0.2916 -0.6812
13223TIP3    H161160   4.759   0.258   4.337  0.1075 -0.1113 -0.7770
13223TIP3    H261161   4.821   0.260   4.198 -0.4611  0.0484 -1.0298
13224TIP3   OH261162   2.342   2.866   3.841  0.2357 -0.1390 -0.0701
13224TIP3    H161163   2.269   2.805   3.834  0.4352 -0.5466  1.3120
13224TIP3    H261164   2.395   2.832   3.913  0.1760  1.8211  0.9422
13225TIP3   OH261165   1.456   5.827   2.334  0.3867 -0.3268  0.1479
13225TIP3    H161166   1.490   5.744   2.301  1.2693  0.2572 -0.4219
13225TIP3    H261167   1.501   5.840   2.417  0.5286 -0.2190  0.0520
13226TIP3   OH261168   5.736   5.025   3.603  0.3351  0.1415  0.2401
13226TIP3    H161169   5.679   5.073   3.542  1.3634  1.1765  0.0766
13226TIP3    H261170   5.798   4.979   3.548 -0.6288 -1.3876  0.4022
13227TIP3   OH261171   2.012   2.749  14.218  0.4505 -0.5267 -0.0552
13227TIP3    H161172   2.079   2.786  14.161  1.0174 -0.6819  0.4983
13227TIP3    H261173   1.930   2.761  14.171  0.8181  0.0632 -0.5433
13228TIP3   OH261174   1.787   0.780   3.826  0.1867 -0.3149  0.1435
13228TIP3    H161175   1.732   0.703   3.827 -1.4641  0.8385  0.4522
13228TIP3    H261176   1.804   0.797   3.733  1.9036 -1.9547  0.1279
13229TIP3   OH261177   6.730   3.770   0.245  0.6944 -0.3557 -0.5199
13229TIP3    H161178   6.757   3.760   0.336  0.7922  0.7192 -0.4172
13229TIP3    H261179   6.760   3.691   0.202  3.7754  0.6504 -0.3596
13230TIP3   OH261180   0.672   3.373  11.710 -0.3817  0.3541  0.4641
13230TIP3    H161181   0.692   3.434  11.638  1.9428 -1.7715 -0.7852
13230TIP3    H261182   0.593   3.328  11.682 -1.7157  2.2552  1.0709
13231TIP3   OH261183   0.459   5.470  11.904 -0.0327  0.3044  0.3240
13231TIP3    H161184   0.368   5.487  11.880 -0.2637  2.9372  2.8305
13231TIP3    H261185   0.454   5.426  11.988  1.0117  1.0565  0.7826
13232TIP3   OH261186   3.118   5.063  14.337 -0.2131 -0.0073 -0.1133
13232TIP3    H161187   3.027   5.071  14.364  0.0509  1.0079  0.4844
13232TIP3    H261188   3.155   5.150  14.348  1.4045 -0.8935  1.7411
13233TIP3   OH261189   3.282   0.895  17.101 -0.5546  0.5157  0.2055
13233TIP3    H161190   3.200   0.927  17.063 -1.3032 -0.0150  1.3623
13233TIP3    H261191   3.284   0.932  17.189  0.3782  0.4007  0.2401
13234TIP3   OH261192   1.806   1.271  16.160  0.5159 -0.3179  0.0843
13234TIP3    H161193   1.816   1.313  16.075 -0.5995 -0.4239 -0.1187
13234TIP3    H261194   1.828   1.179  16.144 -0.1465 -0.4294 -0.2032
13235TIP3   OH261195   6.108   6.491  16.690  0.2502  0.4016 -0.2698
13235TIP3    H161196   6.090   6.402  16.660  2.0024 -0.0950  0.0558
13235TIP3    H261197   6.096   6.486  16.785 -0.0562  0.6080 -0.2980
13236TIP3   OH261198   1.688   0.305   5.309 -0.6292  0.1800  0.2742
13236TIP3    H161199   1.752   0.240   5.339 -0.4455  0.5489  0.6865
13236TIP3    H261200   1.690   0.299   5.214  0.0195  0.1840  0.2862
13237TIP3   OH261201   2.852   1.611  16.956  0.0505 -0.1726 -0.0078
13237TIP3    H161202   2.936   1.573  16.982  1.4399  1.0487 -2.5854
13237TIP3    H261203   2.818   1.551  16.889  0.0548  0.6587 -0.7584
13238TIP3   OH261204   3.955   1.885   0.177 -0.5509 -0.4638  1.0338
13238TIP3    H161205   3.888   1.818   0.175  0.4942 -1.5376  1.3015
13238TIP3    H261206   3.939   1.939   0.100 -1.4398 -0.9616  0.8683
13239TIP3   OH261207   0.816   6.731   0.187  0.1199 -0.0781 -0.4270
13239TIP3    H161208   0.736   6.780   0.167  0.7528  2.6035  2.9737
13239TIP3    H261209   0.883   6.772   0.133  0.2709  1.6594  1.0117
13240TIP3   OH261210   1.707   2.448  16.278 -0.2169  0.1942  0.2030
13240TIP3    H161211   1.785   2.484  16.237  0.0892 -0.3540  0.3076
13240TIP3    H261212   1.656   2.413  16.205  0.4717 -1.0606  0.3114
13241TIP3   OH261213   4.822   5.474  11.974 -0.3740 -0.0322 -0.0378
13241TIP3    H161214   4.784   5.473  12.062  1.9852  1.0604  1.0422
13241TIP3    H261215   4.798   5.389  11.937  0.4081 -1.4338  2.4932
13242TIP3   OH261216   4.546   0.199   4.569 -0.5541 -0.3448  0.2739
13242TIP3    H161217   4.537   0.108   4.540 -0.0503 -0.3097  0.0026
13242TIP3    H261218   4.546   0.194   4.664  0.4922 -0.7361  0.2664
13243TIP3   OH261219   1.644   1.466  13.001  0.3161 -0.6180 -0.0685
13243TIP3    H161220   1.681   1.491  13.086 -1.8261  0.2372  0.6478
13243TIP3    H261221   1.667   1.374  12.991 -0.1366 -0.9658  1.8557
13244TIP3   OH261222   2.880   6.075  15.177 -0.1596  0.2018 -0.5699
13244TIP3    H161223   2.874   6.159  15.222 -1.7232 -1.0145  1.5791
13244TIP3    H261224   2.809   6.076  15.113  1.1130  1.3158 -2.0018
13245TIP3   OH261225   0.661   4.431  11.725  0.6013  0.3653 -0.2033
13245TIP3    H161226   0.610   4.431  11.806 -0.8975 -0.0321 -1.1355
13245TIP3    H261227   0.748   4.460  11.752  0.3681 -0.6415  1.6964
13246TIP3   OH261228   6.241   4.848  10.868 -0.6835 -0.1820 -0.0568
13246TIP3    H161229   6.286   4.839  10.952 -1.9188 -1.5872  0.4536
13246TIP3    H261230   6.309   4.880  10.808  0.3258  0.3186  1.3469
13247TIP3   OH261231   4.486   3.690   3.310  0.6853  0.0100 -0.4021
13247TIP3    H161232   4.411   3.669   3.255  0.0313  0.6052  0.2500
13247TIP3    H261233   4.483   3.626   3.381  1.0518 -0.2407 -0.6099
13248TIP3   OH261234   1.201   1.672  16.446  0.5080  0.7914  0.7191
13248TIP3    H161235   1.277   1.695  16.393  0.4523 -2.4728 -0.8985
13248TIP3    H261236   1.138   1.743  16.430  2.2909  2.2924  0.2203
13249TIP3   OH261237   3.176   3.381  13.997  0.3017 -0.2067  0.3872
13249TIP3    H161238   3.199   3.352  13.909 -0.6478 -0.5731  0.2529
13249TIP3    H261239   3.135   3.304  14.038  2.1346 -0.5192  1.6857
13250TIP3   OH261240   2.572   4.747   5.487 -0.7505  1.0074 -0.0833
13250TIP3    H161241   2.650   4.723   5.538 -0.5643  1.1753 -0.2891
13250TIP3    H261242   2.501   4.698   5.528  0.1781 -2.7063 -2.6208
13251TIP3   OH261243   6.389   1.007  12.920  0.0615 -0.1049 -0.2977
13251TIP3    H161244   6.420   0.918  12.939 -0.0653 -0.0038  0.3700
13251TIP3    H261245   6.436   1.031  12.840  1.0402 -0.2906  0.2149
13252TIP3   OH261246   6.795   1.007  11.938  0.0418  0.2964  0.0325
13252TIP3    H161247   6.775   1.016  12.031 -1.1955 -0.4949 -0.1489
13252TIP3    H261248   6.765   0.919  11.915  1.7067 -0.0945 -0.7726
13253TIP3   OH261249   4.639   0.613   5.697 -0.0192  0.0798  0.3235
13253TIP3    H161250   4.618   0.699   5.734 -1.1295  0.7623 -1.7874
13253TIP3    H261251   4.555   0.580   5.665  0.5770 -1.3576  0.1775
13254TIP3   OH261252   4.116   6.531   2.385  0.1219 -0.0920  0.3157
13254TIP3    H161253   4.065   6.487   2.454  1.5898  0.5318  1.8420
13254TIP3    H261254   4.206   6.528   2.418  0.6154  1.6469 -0.8419
13255TIP3   OH261255   6.379   0.982  14.362 -0.4783  0.0004 -0.4926
13255TIP3    H161256   6.356   1.016  14.449 -1.5598 -0.8735 -0.4236
13255TIP3    H261257   6.321   0.907  14.350 -0.1215 -0.0653 -1.8523
13256TIP3   OH261258   0.983   6.258  14.896 -0.4267 -0.5340 -0.2311
13256TIP3    H161259   1.013   6.338  14.852 -2.1215 -1.2297 -2.8241
13256TIP3    H261260   0.928   6.289  14.968 -0.2762  0.6456 -0.6169
13257TIP3   OH261261   6.148   3.761  10.912  0.3211 -0.3816 -0.2771
13257TIP3    H161262   6.064   3.768  10.956  0.2436  2.0601 -0.7383
13257TIP3    H261263   6.204   3.826  10.955  1.6668 -1.3047 -0.6101
13258TIP3   OH261264   0.767   2.162  15.765  0.5518 -0.1783  0.3846
13258TIP3    H161265   0.749   2.162  15.859  0.7342  1.8412  0.4395
13258TIP3    H261266   0.701   2.104  15.728  0.5575 -1.0909  1.7680
13259TIP3   OH261267   3.522   2.851   3.178 -0.5094  0.4657  0.0550
13259TIP3    H161268   3.571   2.914   3.125 -1.4735  0.6510 -0.6299
13259TIP3    H261269   3.515   2.773   3.123 -1.6005  0.6956 -0.1294
13260TIP3   OH261270   4.292   1.633   1.520  0.0672 -0.1494  0.1637
13260TIP3    H161271   4.294   1.722   1.555 -0.2213 -0.0523 -0.0663
13260TIP3    H261272   4.357   1.586   1.571 -0.2679  0.0238  0.7587
13261TIP3   OH261273   3.714   6.041   2.078 -0.0880 -0.0034  0.3675
13261TIP3    H161274   3.794   6.048   2.026 -0.2867  1.7573  0.2526
13261TIP3    H261275   3.745   6.030   2.168  0.2944  0.6288  0.3189
13262TIP3   OH261276   3.247   3.264  13.738 -0.5999  0.2834 -0.5438
13262TIP3    H161277   3.238   3.263  13.643 -0.6517  0.1088 -0.5359
13262TIP3    H261278   3.261   3.173  13.763 -0.6301  0.3225 -0.3801
13263TIP3   OH261279   2.817   1.689  11.364 -0.2842 -0.4602  0.3847
13263TIP3    H161280   2.828   1.750  11.437 -1.5596  1.0501 -0.6544
13263TIP3    H261281   2.867   1.729  11.292 -2.2180  0.0584 -0.6887
13264TIP3   OH261282   3.747   2.115   4.895  0.4119 -0.0518 -0.1142
13264TIP3    H161283   3.715   2.033   4.857 -0.5997  0.8975 -1.3503
13264TIP3    H261284   3.737   2.104   4.990 -0.2021 -1.1527 -0.3024
13265TIP3   OH261285   5.436   1.531   3.476 -0.1882  0.1005  0.3481
13265TIP3    H161286   5.507   1.525   3.413 -1.1158  1.2530 -0.8576
13265TIP3    H261287   5.469   1.488   3.555  2.2826  1.6802  0.2205
13266TIP3   OH261288   1.434   1.425   0.387 -0.3448  0.0469  0.3286
13266TIP3    H161289   1.363   1.426   0.323  0.4463 -2.2486 -0.6296
13266TIP3    H261290   1.400   1.377   0.462 -0.3289  0.3437  0.5300
13267TIP3   OH261291   2.018   6.433  16.388 -0.3551  0.5108 -0.1396
13267TIP3    H161292   1.966   6.422  16.468 -1.7768 -0.3888 -1.1444
13267TIP3    H261293   2.048   6.523  16.390  1.8337 -0.2142  2.6855
13268TIP3   OH261294   1.116   5.115  15.321  0.0286  0.3299  0.0071
13268TIP3    H161295   1.168   5.172  15.263  0.5371 -0.9146 -0.7834
13268TIP3    H261296   1.141   5.143  15.410  0.3925  1.2236 -0.3637
13269TIP3   OH261297   1.358   5.629  13.034  0.0663 -0.9257  0.0193
13269TIP3    H161298   1.377   5.694  12.967  0.1525  0.4200  1.3212
13269TIP3    H261299   1.279   5.585  13.004  0.4270 -0.7310 -1.2338
13270TIP3   OH261300   3.545   6.394   3.952  0.2263 -0.2718 -0.0189
13270TIP3    H161301   3.555   6.476   3.903  0.2265  0.8442  1.7865
13270TIP3    H261302   3.622   6.342   3.929  2.3168  1.8844  1.8163
13271TIP3   OH261303   4.254   1.102   3.142 -0.2968 -0.0866  0.6251
13271TIP3    H161304   4.191   1.045   3.099  0.3076  0.0112 -0.4177
13271TIP3    H261305   4.330   1.046   3.158  0.0076  0.2316  0.2942
13272TIP3   OH261306   4.156   3.548   4.859 -0.2292 -0.2495 -0.3591
13272TIP3    H161307   4.159   3.590   4.945  0.0604  0.3873 -0.6731
13272TIP3    H261308   4.103   3.607   4.805 -0.2633 -0.5556 -0.6655
13273TIP3   OH261309   6.169   1.876   1.771  0.2215  0.6755  0.5292
13273TIP3    H161310   6.121   1.797   1.794  0.2262  0.1831 -1.1000
13273TIP3    H261311   6.189   1.917   1.856 -0.6626 -0.5227  1.3408
13274TIP3   OH261312   2.822   4.820  13.645 -0.1031  0.0940 -0.4377
13274TIP3    H161313   2.867   4.783  13.569 -0.6075  0.7703 -1.0764
13274TIP3    H261314   2.881   4.888  13.677  0.7664 -1.1399  0.6591
13275TIP3   OH261315   0.552   5.242  13.511 -0.0992 -0.4195  0.0801
13275TIP3    H161316   0.621   5.192  13.467  0.8243 -0.8893  2.0074
13275TIP3    H261317   0.549   5.325  13.465 -1.5976 -2.1588 -3.1515
13276TIP3   OH261318   3.391   1.505  14.052  0.1755  0.4424 -0.4941
13276TIP3    H161319   3.326   1.435  14.059  0.7173  0.0013  0.1625
13276TIP3    H261320   3.474   1.460  14.045  0.7640  1.0128  2.2156
13277TIP3   OH261321   2.944   1.025  11.726  0.3666 -0.1629 -0.2641
13277TIP3    H161322   2.869   0.983  11.767  0.9496 -0.4780  0.4765
13277TIP3    H261323   2.952   1.109  11.771 -0.9354  0.8890 -1.8885
13278TIP3   OH261324   1.363   6.717  14.444  0.1375 -0.0962 -0.1992
13278TIP3    H161325   1.362   6.697  14.538  0.7529 -0.4222 -0.2590
13278TIP3    H261326   1.455   6.737  14.425 -0.1603  0.9968 -0.5153
13279TIP3   OH261327   2.848   3.728  17.273  0.3526  0.4495  0.3079
13279TIP3    H161328   2.926   3.687  17.311 -0.2973 -2.8881 -1.7234
13279TIP3    H261329   2.775   3.676  17.304 -0.6582  0.8733 -1.2665
13280TIP3   OH261330   1.717   2.068   5.598 -0.2471 -0.1652  0.0673
13280TIP3    H161331   1.636   2.115   5.578  0.0298  0.6803  0.8889
13280TIP3    H261332   1.759   2.121   5.665  1.2874 -0.2854 -0.7847
13281TIP3   OH261333   1.033   2.718   4.575 -0.1941  0.6195 -0.0449
13281TIP3    H161334   0.939   2.708   4.592  0.2607 -0.1762  2.2652
13281TIP3    H261335   1.071   2.637   4.607  1.3951  1.3634 -0.0378
13282TIP3   OH261336   2.419   4.628  13.736  0.2904  1.0471  0.2398
13282TIP3    H161337   2.461   4.620  13.650 -2.1609  2.6121 -1.1521
13282TIP3    H261338   2.337   4.580  13.728 -0.3825  1.9602  1.4248
13283TIP3   OH261339   3.865   5.939  11.680 -0.6216  0.3472 -0.3839
13283TIP3    H161340   3.830   5.855  11.651 -0.9090  0.4664 -0.3801
13283TIP3    H261341   3.938   5.916  11.737 -1.0798  0.0879  0.1080
13284TIP3   OH261342   3.299   1.117  15.446 -0.4402 -1.0003  0.4819
13284TIP3    H161343   3.223   1.084  15.493  0.2077 -0.0555  2.2835
13284TIP3    H261344   3.313   1.056  15.374 -1.5436 -2.4319  1.4736
13285TIP3   OH261345   5.099   4.336   3.564 -0.5806  0.1709 -0.3794
13285TIP3    H161346   5.022   4.292   3.598 -0.3542  1.1141  1.3986
13285TIP3    H261347   5.065   4.397   3.498 -1.1391 -0.8179 -1.0130
13286TIP3   OH261348   5.148   4.361  11.570 -0.1903  0.1950 -0.7245
13286TIP3    H161349   5.062   4.386  11.603 -0.5346  0.1479 -1.5625
13286TIP3    H261350   5.165   4.276  11.609 -1.8440 -1.1679 -2.8352
13287TIP3   OH261351   1.965   2.498  16.938  0.7954 -0.6780  0.4438
13287TIP3    H161352   1.928   2.447  17.010 -0.7510 -1.0212 -0.5553
13287TIP3    H261353   2.044   2.451  16.913  1.2803 -0.6244  1.8216
13288TIP3   OH261354   2.849   5.538   3.433  0.0449 -0.5395 -0.3537
13288TIP3    H161355   2.921   5.547   3.371  0.7830  0.4317  0.6280
13288TIP3    H261356   2.823   5.445   3.427  0.1171 -0.4639 -2.0696
13289TIP3   OH261357   3.296   0.737   1.237  0.1541  0.4422  0.9750
13289TIP3    H161358   3.320   0.767   1.325 -0.1740 -2.3173  2.0324
13289TIP3    H261359   3.219   0.683   1.249  0.5869 -0.6571 -0.9233
13290TIP3   OH261360   1.164   6.488  12.257  0.4176 -0.2292  0.0620
13290TIP3    H161361   1.256   6.514  12.253 -0.1707  1.7712 -1.4201
13290TIP3    H261362   1.117   6.569  12.278 -1.2615 -0.6057 -2.1019
13291TIP3   OH261363   4.177   3.496   2.475 -0.3316 -0.5144  0.7934
13291TIP3    H161364   4.178   3.591   2.467 -0.9927 -0.6421 -0.8516
13291TIP3    H261365   4.258   3.467   2.432 -1.8261 -0.9093 -1.8337
13292TIP3   OH261366   5.470   0.929  15.427  0.2066  0.0878  0.3851
13292TIP3    H161367   5.528   0.908  15.354 -0.8642  0.9102 -0.7163
13292TIP3    H261368   5.489   1.020  15.448 -1.1423  0.5885 -0.4493
13293TIP3   OH261369   3.232   1.289   1.454 -0.4665  0.8711 -0.1622
13293TIP3    H161370   3.327   1.288   1.459 -0.4097  0.9251 -1.0645
13293TIP3    H261371   3.208   1.380   1.472 -0.6091  0.1455  3.7741
13294TIP3   OH261372   2.671   2.170   5.980  0.2367  0.0178  0.1641
13294TIP3    H161373   2.717   2.171   6.063 -0.3272 -0.2840  0.4822
13294TIP3    H261374   2.694   2.086   5.940 -0.8899 -0.6009  0.8054
13295TIP3   OH261375   4.858   5.875  12.523 -1.0921  0.0877 -0.1621
13295TIP3    H161376   4.842   5.904  12.613  0.8817 -0.0609  0.2541
13295TIP3    H261377   4.903   5.949  12.482  0.9411 -1.0517 -0.0627
13296TIP3   OH261378   0.808   4.164  12.114 -0.5455  0.1596  0.3693
13296TIP3    H161379   0.820   4.229  12.184 -1.4231  0.9467 -0.2009
13296TIP3    H261380   0.897   4.143  12.086 -0.2502  1.2909  0.4178
13297TIP3   OH261381   4.986   4.604  12.606 -0.1019  0.0078 -0.3692
13297TIP3    H161382   4.979   4.512  12.632  0.8610  0.1441  0.3783
13297TIP3    H261383   5.004   4.651  12.687  0.2195  0.7618 -0.8734
13298TIP3   OH261384   0.918   2.481   3.327 -0.5214 -0.0582  0.3847
13298TIP3    H161385   0.885   2.417   3.264 -1.0621 -0.1803  0.7854
13298TIP3    H261386   0.895   2.444   3.413  0.1394  0.1410  0.6526
13299TIP3   OH261387   5.102   0.892  15.598  0.5743  0.1297 -0.1475
13299TIP3    H161388   5.085   0.958  15.665 -1.8222 -1.6928  1.1086
13299TIP3    H261389   5.131   0.815  15.648  0.9561 -0.5397 -1.3901
13300TIP3   OH261390   6.422   2.945   4.191  0.2281 -0.3939 -0.2166
13300TIP3    H161391   6.486   2.926   4.260 -0.5906 -0.3707  0.5535
13300TIP3    H261392   6.431   2.873   4.130 -1.7906 -2.5223  1.9179
13301TIP3   OH261393   3.433   4.753   2.129  0.1142  0.0900  0.0051
13301TIP3    H161394   3.508   4.696   2.114  0.2081  0.0359  0.6483
13301TIP3    H261395   3.360   4.709   2.087  0.3716 -0.0458 -0.2976
13302TIP3   OH261396   2.315   4.273   6.559 -0.0594  0.3027 -0.0835
13302TIP3    H161397   2.308   4.307   6.470 -0.5297 -0.8766 -0.5062
13302TIP3    H261398   2.373   4.335   6.604  1.8563 -0.2363 -1.7749
13303TIP3   OH261399   1.573   2.448   4.698  0.1016 -0.0925 -0.0403
13303TIP3    H161400   1.646   2.483   4.750  0.6988 -0.2782 -0.7374
13303TIP3    H261401   1.594   2.355   4.687 -1.4297 -0.6479  1.7189
13304TIP3   OH261402   5.812   0.491  14.008 -0.4570  0.3895 -0.1618
13304TIP3    H161403   5.901   0.485  13.972 -0.4749 -0.6987 -0.0223
13304TIP3    H261404   5.759   0.526  13.936 -0.2260 -0.4832 -0.7638
13305TIP3   OH261405   0.429   0.771  14.854 -0.9252 -0.1007  0.0238
13305TIP3    H161406   0.347   0.817  14.836 -1.5299 -1.4867 -0.8759
13305TIP3    H261407   0.405   0.701  14.913  0.0550  0.9064  1.6665
13306TIP3   OH261408   4.871   2.107   2.327 -0.6508  0.2589  0.0920
13306TIP3    H161409   4.781   2.135   2.347 -0.6942  0.6304 -0.6064
13306TIP3    H261410   4.863   2.013   2.309 -0.8615  0.2425  0.2719
13307TIP3   OH261411   6.318   4.810  13.206  0.5420  0.7457 -0.1585
13307TIP3    H161412   6.309   4.733  13.262  3.0916  0.9764  0.6327
13307TIP3    H261413   6.237   4.812  13.155 -0.7970 -0.8312  1.8102
13308TIP3   OH261414   4.643   5.935  16.638  0.2336 -0.5589 -0.2527
13308TIP3    H161415   4.689   5.972  16.714 -1.3378  0.6228  0.1606
13308TIP3    H261416   4.712   5.915  16.575  1.5208 -1.0804  1.2870
13309TIP3   OH261417   4.470   5.486  17.025 -0.3694 -0.4577 -0.1134
13309TIP3    H161418   4.469   5.484  16.929  2.5840 -0.0871 -0.1928
13309TIP3    H261419   4.498   5.398  17.050 -0.6900 -0.4132  0.4146
13310TIP3   OH261420   5.036   6.455   0.358 -0.2517  0.7254  0.0288
13310TIP3    H161421   5.006   6.401   0.432 -1.1281 -0.1953 -0.9720
13310TIP3    H261422   5.007   6.544   0.379 -0.3902  0.4848  0.8506
13311TIP3   OH261423   2.554   6.014   3.775  0.2013 -0.7955 -1.3503
13311TIP3    H161424   2.514   6.060   3.850  1.0207  0.8749 -1.9005
13311TIP3    H261425   2.640   5.987   3.808 -0.0006 -1.3276 -1.2525
13312TIP3   OH261426   5.047   4.460  13.623  0.0085  0.5932 -0.0197
13312TIP3    H161427   5.050   4.486  13.715 -1.9993 -1.6051  0.7017
13312TIP3    H261428   4.959   4.425  13.611  1.2418 -1.9258 -2.0185
13313TIP3   OH261429   3.543   5.671   5.828  0.2883  0.1054  0.0855
13313TIP3    H161430   3.495   5.635   5.902  1.8277 -0.3100  0.9111
13313TIP3    H261431   3.629   5.628   5.832  1.0631  1.5339 -0.7645
13314TIP3   OH261432   4.999   4.089  11.947 -0.5745  0.1817  0.0010
13314TIP3    H161433   4.956   4.009  11.918 -0.6776  0.1524  0.2316
13314TIP3    H261434   4.993   4.148  11.871 -0.4673 -0.0402 -0.1782
13315TIP3   OH261435   3.400   2.664   5.389 -0.1694  1.0114  0.5844
13315TIP3    H161436   3.435   2.581   5.357 -0.4580  0.1923  2.3224
13315TIP3    H261437   3.353   2.701   5.314  2.0799  0.8400 -0.9616
13316TIP3   OH261438   4.986   6.505  14.623 -0.4505 -0.2186  0.6830
13316TIP3    H161439   4.989   6.579  14.684 -1.3418 -0.4531  1.0145
13316TIP3    H261440   5.025   6.432  14.673  1.0924  0.1903  0.1058
13317TIP3   OH261441   0.170   2.155   3.670  0.0234 -0.3282 -0.1984
13317TIP3    H161442   0.249   2.193   3.708 -0.5660  0.1585  0.5623
13317TIP3    H261443   0.127   2.229   3.627  0.8285 -0.9282 -2.0915
13318TIP3   OH261444   1.986   1.327   4.505  0.8769 -0.2758 -0.2722
13318TIP3    H161445   1.964   1.379   4.427  2.2887  1.7886  0.6813
13318TIP3    H261446   1.945   1.242   4.488 -3.1884  1.6852 -0.9967
13319TIP3   OH261447   0.201   2.636   3.427 -0.4342 -0.3221 -0.3438
13319TIP3    H161448   0.186   2.667   3.517 -1.6618 -0.3798 -0.5246
13319TIP3    H261449   0.188   2.713   3.372  0.3104 -0.2891 -0.4735
13320TIP3   OH261450   5.649   2.497  13.958  0.5041 -0.0057 -0.0751
13320TIP3    H161451   5.598   2.442  14.017  1.8570 -1.4426 -0.1927
13320TIP3    H261452   5.626   2.587  13.982 -1.4510 -0.6133  0.3802
13321TIP3   OH261453   6.756   1.856   6.763 -0.1045  0.1386 -0.4693
13321TIP3    H161454   6.739   1.877   6.671  0.8215  3.4088  0.0252
13321TIP3    H261455   6.836   1.904   6.784  0.4176 -1.6289  1.6868
13322TIP3   OH261456   5.023   4.371  14.791 -0.6117  0.2570  0.3013
13322TIP3    H161457   5.018   4.430  14.866 -1.1238  2.4998 -1.4440
13322TIP3    H261458   5.084   4.413  14.731 -0.4879 -1.3276 -0.7106
13323TIP3   OH261459   6.352   5.590  11.145 -0.4070 -0.1346  0.3873
13323TIP3    H161460   6.443   5.561  11.145  0.5548  2.7296  1.1485
13323TIP3    H261461   6.321   5.572  11.056  1.0759 -0.5357 -0.0544
13324TIP3   OH261462   5.372   2.028   0.683 -0.1736  0.1694  0.1447
13324TIP3    H161463   5.365   2.081   0.763 -2.5356  1.4308 -0.8648
13324TIP3    H261464   5.282   2.010   0.658  0.5578 -0.7456 -1.9080
13325TIP3   OH261465   5.669   0.035  11.923  0.5045 -0.0074 -0.2771
13325TIP3    H161466   5.679  -0.017  11.844  1.4148 -1.6441  0.8978
13325TIP3    H261467   5.574   0.040  11.937  0.3859 -0.6297 -0.8465
13326TIP3   OH261468   3.821   2.886  15.449 -0.0777 -0.1801 -0.3726
13326TIP3    H161469   3.794   2.899  15.358  2.1090 -0.8580 -1.1628
13326TIP3    H261470   3.814   2.792  15.463  0.7106 -0.2158 -0.2087
13327TIP3   OH261471   2.168   4.103  16.605  0.0725  0.3701  0.3419
13327TIP3    H161472   2.228   4.093  16.679  0.4446  0.6783  0.0848
13327TIP3    H261473   2.204   4.044  16.538 -0.5431 -0.2836  0.5770
13328TIP3   OH261474   4.092   1.306   1.780 -0.5110  0.3873 -0.1189
13328TIP3    H161475   4.063   1.258   1.703 -0.1351  1.8772 -1.2063
13328TIP3    H261476   4.176   1.345   1.755 -0.1255  0.4706  1.2200
13329TIP3   OH261477   5.000   4.708   4.558  0.3170 -0.6046  0.1251
13329TIP3    H161478   5.039   4.672   4.637 -1.2199 -1.9916  0.2716
13329TIP3    H261479   5.015   4.641   4.491  0.5242  0.0240 -0.4686
13330TIP3   OH261480   6.679   6.554   6.418 -0.3047  0.4656  0.5732
13330TIP3    H161481   6.651   6.476   6.370  0.9754 -0.0430  0.6393
13330TIP3    H261482   6.716   6.611   6.351  0.4323  0.2422  0.7877
13331TIP3   OH261483   2.589   4.791  13.993 -0.0490  0.2289  0.0121
13331TIP3    H161484   2.619   4.858  13.932  1.1869 -1.0420 -0.8083
13331TIP3    H261485   2.493   4.799  13.993 -0.1440 -0.3605 -2.8265
13332TIP3   OH261486   4.544   5.615   1.454 -0.2109 -0.2851 -0.6405
13332TIP3    H161487   4.492   5.542   1.486 -1.9641  0.8499 -0.8181
13332TIP3    H261488   4.482   5.670   1.405  1.0127  1.4200 -0.3550
13333TIP3   OH261489   0.255   4.744  16.702  0.5151  0.0001 -0.2351
13333TIP3    H161490   0.237   4.680  16.771  0.8756  0.0518 -0.0917
13333TIP3    H261491   0.169   4.777  16.677  0.1891 -1.6741 -1.3922
13334TIP3   OH261492   2.825   0.483   2.970 -0.0463 -0.0573 -0.3487
13334TIP3    H161493   2.791   0.570   2.947  0.5422  0.5902  1.1537
13334TIP3    H261494   2.760   0.447   3.031  1.4460  0.8036  1.7998
13335TIP3   OH261495   1.265   5.348  16.863  0.6642  0.3626  0.1675
13335TIP3    H161496   1.308   5.373  16.945  1.6793  0.3536 -0.3486
13335TIP3    H261497   1.275   5.253  16.858  0.5002  0.3491  0.0936
13336TIP3   OH261498   4.924   4.254   1.464 -0.2329  0.2408 -0.0662
13336TIP3    H161499   4.937   4.347   1.446  1.0133  0.4145  1.6062
13336TIP3    H261500   4.902   4.216   1.379  1.1910  1.7335 -1.1372
13337TIP3   OH261501   6.372   0.715   1.180  0.1994 -0.2735 -0.4832
13337TIP3    H161502   6.449   0.740   1.232 -0.4231 -0.1443  0.3854
13337TIP3    H261503   6.299   0.718   1.242 -0.8373  1.5742 -1.7417
13338TIP3   OH261504   4.370   5.113  11.059  0.6348  0.1405  0.4416
13338TIP3    H161505   4.414   5.126  10.975 -1.2238 -1.5669 -0.8489
13338TIP3    H261506   4.414   5.036  11.097  0.4070 -0.0588  0.2996
13339TIP3   OH261507   0.351   5.229  12.527  0.2872 -0.0739  0.0130
13339TIP3    H161508   0.421   5.294  12.528 -0.4103  0.7140  2.8010
13339TIP3    H261509   0.270   5.281  12.527 -0.3016 -0.9683 -2.1668
13340TIP3   OH261510   5.927   5.531   4.378 -0.4523 -0.0986 -0.0811
13340TIP3    H161511   5.924   5.626   4.370 -0.7314 -0.2812 -2.3748
13340TIP3    H261512   5.957   5.501   4.293 -4.5440 -2.3180 -0.8720
13341TIP3   OH261513   6.752   3.411  15.522 -0.3299  0.1441 -0.0420
13341TIP3    H161514   6.787   3.491  15.562  0.0418 -0.1610  0.2453
13341TIP3    H261515   6.731   3.436  15.432 -0.0062  0.5077 -0.0152
13342TIP3   OH261516   2.842   3.062  13.615  0.0037  0.3434  0.6565
13342TIP3    H161517   2.874   2.987  13.665  0.2166  0.6343  0.9638
13342TIP3    H261518   2.894   3.136  13.647 -1.1469  0.8682  1.3236
13343TIP3   OH261519   3.132   6.798  13.459  0.3259 -0.4995  0.3447
13343TIP3    H161520   3.074   6.858  13.412  1.4020 -1.1361 -1.8773
13343TIP3    H261521   3.113   6.712  13.422 -0.1006 -1.3409  2.4101
13344TIP3   OH261522   5.139   1.539  14.551  0.2601  0.5811 -0.2057
13344TIP3    H161523   5.168   1.509  14.637 -0.4944  1.0492  0.2100
13344TIP3    H261524   5.220   1.563  14.506  0.6706  0.1870  0.3119
13345TIP3   OH261525   6.789   4.961  14.821  0.0276 -0.0882  0.1218
13345TIP3    H161526   6.798   4.932  14.730 -1.1270 -0.0510 -0.0129
13345TIP3    H261527   6.851   5.034  14.830 -0.3071  0.3155 -0.8161
13346TIP3   OH261528   0.970   5.796   3.146  0.0934  0.2361  0.2411
13346TIP3    H161529   0.994   5.788   3.053 -1.5999 -0.3540 -0.1636
13346TIP3    H261530   0.882   5.832   3.145 -0.0891 -0.1517  1.6170
13347TIP3   OH261531   5.494   6.474  11.239  0.6950  0.1080  0.1939
13347TIP3    H161532   5.533   6.482  11.153 -0.0329 -3.0541 -0.5042
13347TIP3    H261533   5.407   6.438  11.222  0.4698 -0.3653  2.2415
13348TIP3   OH261534   2.073   4.847   5.801  0.3174  0.1932  0.0328
13348TIP3    H161535   2.101   4.856   5.710  0.1077 -2.4070 -0.3153
13348TIP3    H261536   1.987   4.889   5.804  0.1029 -0.1483 -1.0708
13349TIP3   OH261537   4.623   0.825  15.048 -0.4071  0.0255 -0.7118
13349TIP3    H161538   4.551   0.847  15.108 -0.3979 -1.1245 -0.2653
13349TIP3    H261539   4.702   0.849  15.096 -0.4049 -0.7621 -0.3172
13350TIP3   OH261540   4.903   5.454  11.616 -0.1895  0.1270  0.8324
13350TIP3    H161541   4.901   5.444  11.521  1.5168 -0.7647  0.8577
13350TIP3    H261542   4.996   5.441  11.639 -0.8105 -1.1607  2.7551
13351TIP3   OH261543   6.151   4.627   4.206 -0.4329 -0.2366 -0.4897
13351TIP3    H161544   6.219   4.645   4.141  0.6819 -0.0857  0.6952
13351TIP3    H261545   6.087   4.697   4.194  0.6377  0.8022 -0.2514
13352TIP3   OH261546   6.141   1.460  10.280  0.0235 -0.6680  0.1922
13352TIP3    H161547   6.070   1.403  10.248 -0.3564  0.4187 -0.9470
13352TIP3    H261548   6.097   1.526  10.333  0.1276  0.1695 -0.7353
13353TIP3   OH261549   6.485   5.290  14.604  0.7965 -0.5166  0.2697
13353TIP3    H161550   6.431   5.368  14.596 -0.4691 -1.4613 -0.6567
13353TIP3    H261551   6.528   5.282  14.519  1.0929 -0.7022  0.4383
13354TIP3   OH261552   0.714   4.563  12.110  0.4515 -0.2537  0.1338
13354TIP3    H161553   0.770   4.554  12.033  0.4801  0.5676  0.0613
13354TIP3    H261554   0.758   4.511  12.177  1.2138  0.2435  0.0286
13355TIP3   OH261555   6.777   2.905  13.122  0.0035 -0.4558 -0.2935
13355TIP3    H161556   6.767   2.943  13.209 -0.7055 -1.2912 -0.0117
13355TIP3    H261557   6.837   2.965  13.077  0.1792  0.1104  0.6814
13356TIP3   OH261558   5.972   1.684  12.502  0.0700  0.0840 -0.4368
13356TIP3    H161559   5.941   1.593  12.496 -2.6464  1.0517 -1.9328
13356TIP3    H261560   6.020   1.698  12.420 -0.5337  0.3521 -0.7460
13357TIP3   OH261561   3.315   5.849   5.501  0.3914 -1.0998  0.6172
13357TIP3    H161562   3.358   5.869   5.585  0.1461 -0.1216  0.5151
13357TIP3    H261563   3.352   5.913   5.440  0.1362 -1.4332  0.1141
13358TIP3   OH261564   5.865   0.184   5.156  0.1961 -0.0400 -0.1325
13358TIP3    H161565   5.789   0.127   5.152  0.7082 -0.6733 -0.9602
13358TIP3    H261566   5.926   0.148   5.092  0.8918  0.9030 -0.0166
13359TIP3   OH261567   2.212   0.689  10.940 -0.1595  0.2073 -0.7510
13359TIP3    H161568   2.141   0.726  10.992 -0.7100  0.5873 -1.7390
13359TIP3    H261569   2.230   0.756  10.874  1.6802  0.4585 -0.0171
13360TIP3   OH261570   4.457   5.869   2.171 -0.0997 -0.4037 -0.2122
13360TIP3    H161571   4.516   5.860   2.247 -0.5406  1.0397  0.3259
13360TIP3    H261572   4.501   5.933   2.115  0.1271 -1.3232 -1.0917
13361TIP3   OH261573   2.028   4.079  16.340  0.0183 -0.1932  1.1554
13361TIP3    H161574   2.070   4.110  16.420  1.0772 -0.0788  0.5651
13361TIP3    H261575   2.027   3.983  16.349  0.4214 -0.1971  1.1662
13362TIP3   OH261576   6.135   2.437  13.677  0.1961  0.5205 -0.7739
13362TIP3    H161577   6.176   2.484  13.604 -1.5724  0.7591 -1.6449
13362TIP3    H261578   6.137   2.499  13.750  1.3035  0.5502 -0.8182
13363TIP3   OH261579   5.619   3.169  10.477  0.3719 -0.3138  0.2935
13363TIP3    H161580   5.713   3.177  10.458  0.6881 -1.5385  1.2517
13363TIP3    H261581   5.581   3.251  10.445  1.6659 -0.1011 -0.7403
13364TIP3   OH261582   5.536   0.120   4.869  1.0440  0.4886  0.6533
13364TIP3    H161583   5.498   0.202   4.838  0.0765 -0.1136  0.1994
13364TIP3    H261584   5.520   0.058   4.798 -2.5514 -1.3135  2.8620
13365TIP3   OH261585   6.602   3.319  12.289  0.3588  0.2781  0.4622
13365TIP3    H161586   6.609   3.253  12.358  1.6425 -0.2412 -0.1453
13365TIP3    H261587   6.671   3.382  12.308 -0.6189  1.2622  0.8246
13366TIP3   OH261588   0.248   4.611   0.955  0.4510  0.4302  0.9474
13366TIP3    H161589   0.340   4.600   0.982  0.4852 -0.1298  0.6207
13366TIP3    H261590   0.231   4.704   0.966  1.1000  0.5603  0.8939
13367TIP3   OH261591   0.067   3.463  14.097 -0.5167 -0.0715 -0.3606
13367TIP3    H161592   0.081   3.368  14.101  0.2834  0.1276  2.7748
13367TIP3    H261593  -0.012   3.478  14.150 -0.4717  1.0460 -0.5977
13368TIP3   OH261594   4.465   5.864   5.252 -0.3349 -0.0116 -0.2205
13368TIP3    H161595   4.485   5.927   5.322 -0.0016  1.7004 -1.8318
13368TIP3    H261596   4.520   5.891   5.179 -0.9454 -1.5802 -1.2883
13369TIP3   OH261597   1.217   4.211   6.168 -0.3060  0.6146 -0.0832
13369TIP3    H161598   1.214   4.179   6.258 -1.5206  1.5502  0.2322
13369TIP3    H261599   1.145   4.275   6.163 -0.1427  0.7020 -1.6618
13370TIP3   OH261600   4.391   4.815  15.902 -0.1019 -0.3570 -0.1467
13370TIP3    H161601   4.392   4.737  15.848  0.8869 -0.7167  0.3817
13370TIP3    H261602   4.330   4.875  15.858  0.6639 -0.6517 -1.6119
13371TIP3   OH261603   3.042   2.466   3.610  0.5450  1.0222  0.0011
13371TIP3    H161604   3.051   2.429   3.522 -0.6584  1.3593 -0.2717
13371TIP3    H261605   3.132   2.489   3.636  1.0489 -0.1615 -0.6554
13372TIP3   OH261606   1.244   4.315  12.451 -0.2844  0.7456 -0.0223
13372TIP3    H161607   1.169   4.257  12.468 -1.1550  2.1764  1.1008
13372TIP3    H261608   1.318   4.255  12.442 -1.3426 -0.6173  0.0962
13373TIP3   OH261609   5.724   5.107  10.741  0.5690  0.5938  0.0823
13373TIP3    H161610   5.727   5.187  10.689  0.3096  0.8226  0.4160
13373TIP3    H261611   5.728   5.137  10.831 -2.7128  0.4475  0.3283
13374TIP3   OH261612   0.924   1.166   1.536 -0.0053  0.7930 -0.1657
13374TIP3    H161613   0.930   1.123   1.621 -0.4331  0.3557 -0.3506
13374TIP3    H261614   0.979   1.244   1.544  0.7253  0.2477  0.1944
13375TIP3   OH261615   2.711   1.401   5.675 -0.5258  0.3279 -0.0431
13375TIP3    H161616   2.752   1.457   5.609 -1.0823  0.5206 -0.2291
13375TIP3    H261617   2.637   1.361   5.630  0.8039 -1.8418 -0.3819
13376TIP3   OH261618   1.057   0.121   1.276 -0.0276  0.1326 -0.4333
13376TIP3    H161619   1.085   0.069   1.201  1.7195 -0.6893  0.7719
13376TIP3    H261620   1.036   0.057   1.344 -2.0224  0.8544 -0.3301
13377TIP3   OH261621   0.662   4.613   1.416  0.4220 -0.3637  0.0918
13377TIP3    H161622   0.645   4.674   1.487 -0.2675 -0.7943  0.2994
13377TIP3    H261623   0.742   4.567   1.443  2.2856  2.0626 -1.1653
13378TIP3   OH261624   3.177   5.364   2.120 -0.8954  0.0260 -0.5175
13378TIP3    H161625   3.179   5.454   2.152 -0.1878  0.0269 -0.5490
13378TIP3    H261626   3.268   5.345   2.099 -0.4953 -1.8822  2.7260
13379TIP3   OH261627   3.364   2.408  13.575 -0.2401 -0.3894  0.5191
13379TIP3    H161628   3.278   2.366  13.573 -0.6819  0.5490 -1.5083
13379TIP3    H261629   3.422   2.347  13.529  0.2017 -1.0721  1.9809
13380TIP3   OH261630   4.975   6.688   4.643 -0.3785  0.2413 -0.8870
13380TIP3    H161631   5.005   6.600   4.621  1.3726  0.1242  1.6564
13380TIP3    H261632   5.047   6.726   4.693 -3.1812  1.1209  2.7474
13381TIP3   OH261633   6.753   6.663  14.465 -0.1291 -0.0357 -0.2374
13381TIP3    H161634   6.845   6.686  14.452  0.0973 -0.0950  1.1356
13381TIP3    H261635   6.741   6.583  14.413 -0.0457  1.2664 -2.3191
13382TIP3   OH261636   0.008   1.264   3.644  0.7400 -0.0409 -0.0849
13382TIP3    H161637   0.023   1.245   3.737  1.7009  0.7599 -0.0739
13382TIP3    H261638  -0.033   1.350   3.644 -0.5976 -0.6554 -0.3347
13383TIP3   OH261639   1.121   6.257   0.309  0.6347 -0.4250 -0.6548
13383TIP3    H161640   1.183   6.323   0.278  2.1508 -1.5260 -0.0843
13383TIP3    H261641   1.176   6.194   0.357 -0.7057 -2.2185 -1.3919
13384TIP3   OH261642   5.975   4.231  16.549  0.0680 -0.6813  0.4435
13384TIP3    H161643   6.063   4.258  16.524 -0.4046  0.3833 -0.0683
13384TIP3    H261644   5.917   4.278  16.489 -0.8440 -1.4439  0.7239
13385TIP3   OH261645   0.911   6.561   2.806  0.1581  0.0990  0.2682
13385TIP3    H161646   0.938   6.585   2.894 -1.3692 -0.7226  0.9616
13385TIP3    H261647   0.830   6.609   2.791  0.6990  0.6780 -0.9126
13386TIP3   OH261648   6.138   6.217  12.842 -0.2874  0.7507  0.1510
13386TIP3    H161649   6.097   6.279  12.782 -1.5125  0.5825  0.7965
13386TIP3    H261650   6.069   6.194  12.904  0.0395 -1.5662 -0.3015
13387TIP3   OH261651   6.739   2.132  11.322  0.1093  0.1186 -0.0052
13387TIP3    H161652   6.813   2.179  11.358 -0.8932  1.1528  0.7426
13387TIP3    H261653   6.742   2.150  11.228  0.1980  1.0164  0.1701
13388TIP3   OH261654   3.275   5.333  16.351  1.4990 -0.3342 -0.3241
13388TIP3    H161655   3.221   5.398  16.396  1.7021 -0.7706  0.5567
13388TIP3    H261656   3.344   5.312  16.413  1.3943 -1.4400 -0.5826
13389TIP3   OH261657   5.644   5.342   1.907 -0.1135  0.2728 -0.7668
13389TIP3    H161658   5.669   5.286   1.980  1.9463  1.6667 -0.3609
13389TIP3    H261659   5.662   5.289   1.829  0.5198 -0.1277 -0.3558
13390TIP3   OH261660   0.895   1.746  12.607  0.9163  0.3709  0.4169
13390TIP3    H161661   0.929   1.806  12.540 -0.3692  0.2890 -0.3486
13390TIP3    H261662   0.836   1.800  12.659  1.3411  0.2537  1.0133
13391TIP3   OH261663   4.606   3.189  14.742  0.2130  0.1816 -0.6204
13391TIP3    H161664   4.560   3.109  14.716  1.0780 -0.3328 -0.5823
13391TIP3    H261665   4.648   3.166  14.825  0.6715  0.5947 -0.7402
13392TIP3   OH261666   3.326   6.161   2.898 -0.6706 -0.4385  0.6702
13392TIP3    H161667   3.390   6.094   2.875 -1.5508 -1.3753  0.9102
13392TIP3    H261668   3.375   6.226   2.948  0.5157 -0.1420 -0.8337
13393TIP3   OH261669   5.076   1.383   2.385  0.6837 -0.1335 -0.2021
13393TIP3    H161670   5.045   1.454   2.329 -0.4609  1.3250  2.1824
13393TIP3    H261671   5.139   1.425   2.444  0.2567 -1.1657  1.0141
13394TIP3   OH261672   1.866   2.102   0.300 -0.2072  0.2352  0.3335
13394TIP3    H161673   1.858   2.190   0.262  0.2273  0.0342 -0.2368
13394TIP3    H261674   1.960   2.090   0.312 -0.3293  0.1936  1.2429
13395TIP3   OH261675   3.318   4.643   4.227 -0.0185  0.5920  0.0985
13395TIP3    H161676   3.338   4.702   4.300 -1.0285  1.7923 -0.5614
13395TIP3    H261677   3.394   4.649   4.170  1.7137 -1.9771  2.0395
13396TIP3   OH261678   1.253   3.194  13.890 -0.0224 -0.1741 -0.9500
13396TIP3    H161679   1.347   3.182  13.878  0.0168 -0.7048 -0.0911
13396TIP3    H261680   1.237   3.285  13.864  0.8366  0.1246 -0.4346
13397TIP3   OH261681   1.644   6.803  15.832  0.0794  0.5596 -0.0058
13397TIP3    H161682   1.740   6.811  15.836  0.0419  1.8841 -1.1787
13397TIP3    H261683   1.628   6.709  15.831  1.3486  0.3156  0.6867
13398TIP3   OH261684   4.447   2.623  15.863  0.6302 -0.3058 -0.1112
13398TIP3    H161685   4.407   2.710  15.866 -1.1952 -1.1094 -0.4083
13398TIP3    H261686   4.517   2.627  15.928  0.2212  1.2163  0.2598
13399TIP3   OH261687   3.000   3.773   0.904  0.2592 -1.0079 -0.3440
13399TIP3    H161688   3.075   3.779   0.964 -1.3593 -1.6170  1.8245
13399TIP3    H261689   2.985   3.863   0.876  0.0239 -0.4374  1.5254
13400TIP3   OH261690   4.058   5.180   6.336 -0.1675 -0.0930 -1.1350
13400TIP3    H161691   3.965   5.195   6.348 -0.1574 -0.9247  0.0721
13400TIP3    H261692   4.099   5.214   6.416  0.5198 -0.0710 -1.4943
13401TIP3   OH261693   0.493   0.307   5.699  0.2748  0.1854  0.3406
13401TIP3    H161694   0.467   0.218   5.721  1.5221 -0.1499  0.4566
13401TIP3    H261695   0.587   0.311   5.717  0.3672  1.3259 -0.3098
13402TIP3   OH261696   4.348   6.257   2.138  0.2726  0.2272  0.4517
13402TIP3    H161697   4.399   6.202   2.197  1.0696  0.5923  0.1228
13402TIP3    H261698   4.366   6.222   2.051 -0.4130  0.0688  0.3708
13403TIP3   OH261699   0.142   0.635  14.093  0.3990  0.7877  0.1091
13403TIP3    H161700   0.153   0.726  14.063  0.7976  0.2766 -1.3712
13403TIP3    H261701   0.099   0.591  14.019 -4.4346  0.8756  2.7017
13404TIP3   OH261702   0.366   2.490   4.626  0.3666 -0.2251 -0.0461
13404TIP3    H161703   0.362   2.536   4.710  0.2191  0.3118 -0.3523
13404TIP3    H261704   0.459   2.488   4.604  0.3106  0.4874 -0.3483
13405TIP3   OH261705   4.156   6.089  12.114  0.0734 -0.0193  0.2773
13405TIP3    H161706   4.076   6.108  12.163 -0.5798 -1.0211 -0.3923
13405TIP3    H261707   4.227   6.109  12.176 -0.7304 -0.4784  1.3550
13406TIP3   OH261708   2.941   3.530  16.213  0.2971 -0.2075  0.4932
13406TIP3    H161709   2.877   3.542  16.284  0.4063 -0.4304  0.6302
13406TIP3    H261710   2.915   3.448  16.171 -0.0310  0.1519 -0.0012
13407TIP3   OH261711   0.279   5.258  11.736  0.0812 -0.0503 -0.3443
13407TIP3    H161712   0.228   5.337  11.720  2.1855  1.2170 -1.0005
13407TIP3    H261713   0.324   5.241  11.653  1.3398 -0.6673  0.4462
13408TIP3   OH261714   0.487   5.422   1.934 -0.1021  0.2961  0.0966
13408TIP3    H161715   0.504   5.434   1.840  2.3913 -1.0688  0.3289
13408TIP3    H261716   0.554   5.475   1.977 -0.3821 -0.1470  1.0901
13409TIP3   OH261717   5.668   6.400   2.617 -0.2551 -0.1180 -0.4271
13409TIP3    H161718   5.763   6.400   2.607 -0.1357 -0.6321  0.7081
13409TIP3    H261719   5.638   6.469   2.558  1.1432  2.9981  2.3716
13410TIP3   OH261720   3.497   2.283   0.131 -0.5488  0.4345 -0.2367
13410TIP3    H161721   3.507   2.370   0.169  1.5240 -0.0480  0.3446
13410TIP3    H261722   3.574   2.234   0.160 -2.0368 -1.8166  0.0383
13411TIP3   OH261723   1.255   6.802  16.062  1.0889 -0.0088 -0.3354
13411TIP3    H161724   1.220   6.837  16.144  2.2042  0.2501  0.0465
13411TIP3    H261725   1.180   6.796  16.003 -0.0271 -1.7685  1.2435
13412TIP3   OH261726   2.827   2.279   2.317  0.5694 -0.4569  0.4620
13412TIP3    H161727   2.868   2.199   2.348 -1.7551 -2.1925 -0.8024
13412TIP3    H261728   2.743   2.283   2.363  0.2520  0.7507 -0.1895
13413TIP3   OH261729   4.640   5.736  17.039 -0.2569 -0.2533 -0.3951
13413TIP3    H161730   4.730   5.707  17.025  0.2038  1.3359 -0.8080
13413TIP3    H261731   4.591   5.655  17.054  1.3043 -1.0987  0.2352
13414TIP3   OH261732   2.967   4.483  14.681  0.4014  0.1470 -0.0227
13414TIP3    H161733   2.933   4.399  14.711  1.5743 -0.9059 -1.5723
13414TIP3    H261734   3.061   4.469  14.671  0.2430  0.7890 -2.9634
13415TIP3   OH261735   1.285   2.155  11.546  0.2760 -0.3923 -0.5613
13415TIP3    H161736   1.344   2.144  11.471 -1.4534  0.8840 -2.1639
13415TIP3    H261737   1.256   2.246  11.541 -0.3083 -0.4484  1.3675
13416TIP3   OH261738   4.885   1.070  11.116  1.0636  0.4244  0.3695
13416TIP3    H161739   4.837   1.085  11.198  1.4575 -1.7288  1.0163
13416TIP3    H261740   4.819   1.085  11.047  0.1152 -0.0313  1.1647
13417TIP3   OH261741   2.471   4.597   4.708 -0.4121  0.1280  0.3045
13417TIP3    H161742   2.483   4.605   4.802 -2.8121  0.5301  0.6115
13417TIP3    H261743   2.394   4.651   4.688 -1.0629 -1.3981 -1.5846
13418TIP3   OH261744   2.317   3.507   6.622  0.0804 -0.5164  0.8586
13418TIP3    H161745   2.254   3.494   6.692 -1.3631 -1.2252 -0.5564
13418TIP3    H261746   2.295   3.592   6.584  0.3343 -0.5114  0.7183
13419TIP3   OH261747   6.441   3.933   0.689 -0.3168 -0.6763 -0.0820
13419TIP3    H161748   6.411   3.859   0.741 -0.3194 -0.7426 -0.1765
13419TIP3    H261749   6.360   3.975   0.658 -0.3266 -0.1369  0.6628
13420TIP3   OH261750   4.308   0.347   4.871  0.2105 -0.3792  0.0729
13420TIP3    H161751   4.390   0.396   4.861 -0.4631  0.7767  0.1873
13420TIP3    H261752   4.336   0.262   4.905  1.5160 -0.5690 -1.4428
13421TIP3   OH261753   5.464   0.067  16.361  0.5471  0.1185  0.3380
13421TIP3    H161754   5.386   0.077  16.417 -0.3620  0.2597 -0.9343
13421TIP3    H261755   5.448   0.125  16.287  1.7389 -0.0762 -0.0786
13422TIP3   OH261756   4.592   1.396  14.494 -0.1213 -0.4931  0.4532
13422TIP3    H161757   4.629   1.434  14.574  0.4571  0.1975 -0.1282
13422TIP3    H261758   4.656   1.331  14.467  1.9038  2.3298 -1.8466
13423TIP3   OH261759   4.963   0.615   3.887 -0.4175  0.1948 -0.0318
13423TIP3    H161760   5.019   0.677   3.840 -0.1757 -0.4531 -0.5995
13423TIP3    H261761   4.877   0.623   3.844 -0.3622  0.0693 -0.1671
13424TIP3   OH261762   2.705   0.033   2.169  0.4273  0.1938 -0.0418
13424TIP3    H161763   2.624   0.001   2.208  1.0074 -1.5820 -0.2575
13424TIP3    H261764   2.733  -0.037   2.110  1.0124  1.6955 -1.5793
13425TIP3   OH261765   3.103   0.024   3.072  0.5255 -0.1502 -0.0355
13425TIP3    H161766   3.015   0.062   3.071 -0.0399 -1.4251 -1.3780
13425TIP3    H261767   3.098  -0.047   3.136  0.7290  0.1387  0.2975
13426TIP3   OH261768   5.009   1.850   2.258 -0.6877  0.0313  1.0416
13426TIP3    H161769   4.998   1.885   2.169 -2.5770  0.7629  1.5339
13426TIP3    H261770   5.080   1.902   2.296 -2.1849  2.0890  1.1167
13427TIP3   OH261771   3.807   2.000  11.386  0.0041  0.2538  0.3703
13427TIP3    H161772   3.894   1.998  11.427  0.6147  2.3467 -0.7708
13427TIP3    H261773   3.808   1.929  11.323  1.2599  0.9242 -0.3641
13428TIP3   OH261774   0.005   3.436  12.905  0.1549  0.3158  0.5644
13428TIP3    H161775   0.019   3.381  12.827  1.0556  1.6222 -0.2117
13428TIP3    H261776   0.014   3.375  12.978 -0.0672 -0.8164 -0.3209
13429TIP3   OH261777   3.322   3.206  14.585 -0.1354 -0.0657  0.1266
13429TIP3    H161778   3.411   3.205  14.621  0.5047  1.0460 -1.3669
13429TIP3    H261779   3.297   3.113  14.581  0.8204 -0.3602  0.8895
13430TIP3   OH261780   2.513   2.781  16.359  0.2607  0.2220 -0.5207
13430TIP3    H161781   2.507   2.854  16.297  1.0532  0.2481 -0.5817
13430TIP3    H261782   2.571   2.814  16.429  2.5805 -1.1305 -1.7250
13431TIP3   OH261783   2.638   2.172  12.960  0.4108  0.1122  0.2858
13431TIP3    H161784   2.685   2.134  12.886 -0.2711  1.0164 -0.6069
13431TIP3    H261785   2.563   2.216  12.921  0.3975  1.1413  1.4551
13432TIP3   OH261786   2.933   4.032   2.817 -0.1293 -0.6135  0.1039
13432TIP3    H161787   2.953   3.998   2.905 -0.7834 -0.2397  0.4039
13432TIP3    H261788   3.012   4.080   2.792 -0.4525  0.4849  1.0984
13433TIP3   OH261789   4.252   1.562  11.055  0.0760  0.5631 -0.7478
13433TIP3    H161790   4.234   1.539  10.964  0.0843 -0.2020 -0.5552
13433TIP3    H261791   4.342   1.595  11.054 -0.6915  2.7629 -1.4083
13434TIP3   OH261792   2.012   4.372  12.346 -0.4997 -0.8239 -0.4322
13434TIP3    H161793   2.013   4.345  12.254  0.2118 -1.5128 -0.2201
13434TIP3    H261794   2.104   4.384  12.369 -0.6657 -0.8997  0.2706
13435TIP3   OH261795   3.372   2.275  14.458  0.0130  0.4330 -0.5472
13435TIP3    H161796   3.313   2.267  14.384 -0.4504 -0.7188 -0.0735
13435TIP3    H261797   3.456   2.302  14.420 -0.0587 -0.7104 -1.5616
13436TIP3   OH261798   0.943   0.252  11.759 -0.1262 -0.1724 -0.6720
13436TIP3    H161799   0.858   0.257  11.804 -0.1811  1.2320 -0.9103
13436TIP3    H261800   0.998   0.314  11.805 -0.0316  0.9204 -2.2228
13437TIP3   OH261801   1.004   3.219  11.360 -0.1957  0.2929  0.7927
13437TIP3    H161802   0.972   3.249  11.275  1.4779  0.5257  0.2271
13437TIP3    H261803   1.096   3.196  11.345 -0.1624 -0.6370  2.3006
13438TIP3   OH261804   1.625   6.646  12.101  0.0864 -0.8098  0.1329
13438TIP3    H161805   1.702   6.612  12.056 -0.7625 -1.6412 -0.7265
13438TIP3    H261806   1.558   6.653  12.032 -0.1549  1.3338  0.5674
13439TIP3   OH261807   2.870   5.453   0.067  0.1974  0.6821 -0.4566
13439TIP3    H161808   2.932   5.479   0.135  0.9319  4.6305 -2.4454
13439TIP3    H261809   2.784   5.470   0.105  0.5119  0.3920  0.3913
13440TIP3   OH261810   3.659   2.282   4.465 -0.1470  0.5609  0.0244
13440TIP3    H161811   3.725   2.295   4.534 -1.0891  1.2446  0.8231
13440TIP3    H261812   3.637   2.189   4.471 -0.3616  0.6499  0.7990
13441TIP3   OH261813   5.886   0.582   1.350 -0.5136  1.1592  0.2313
13441TIP3    H161814   5.840   0.541   1.277  0.4246  1.8043 -0.7476
13441TIP3    H261815   5.948   0.642   1.308  0.4667  1.0841  1.5454
13442TIP3   OH261816   3.356   2.614  12.026 -0.7317  0.2316  0.8536
13442TIP3    H161817   3.369   2.558  11.950  0.0625 -0.9265  1.8351
13442TIP3    H261818   3.440   2.613  12.072 -1.2445  0.8162  1.8247
13443TIP3   OH261819   4.939   5.359   2.072  0.2019  0.0709 -0.1931
13443TIP3    H161820   4.968   5.302   2.143  0.1391  1.3549  0.8875
13443TIP3    H261821   5.013   5.419   2.058 -1.0567  1.9664  1.0802
13444TIP3   OH261822   6.634   1.130  15.788 -0.3429  0.5855  0.0142
13444TIP3    H161823   6.592   1.177  15.716 -0.4100  0.7094  0.1348
13444TIP3    H261824   6.715   1.096  15.750 -1.6659 -1.6854 -0.9096
13445TIP3   OH261825   1.761   1.821   2.365  0.0123 -0.1024 -0.1520
13445TIP3    H161826   1.686   1.878   2.347  1.0833  1.3636 -0.0371
13445TIP3    H261827   1.815   1.828   2.286  1.1990  0.7385  0.7126
13446TIP3   OH261828   6.424   6.765   3.029  0.2076  0.5403 -0.1626
13446TIP3    H161829   6.454   6.740   2.942  2.5760  2.0109  0.1671
13446TIP3    H261830   6.412   6.860   3.023 -3.4548  0.1223  0.0390
13447TIP3   OH261831   4.492   5.901  13.979  0.2369  0.5048  0.3862
13447TIP3    H161832   4.429   5.952  14.030  0.5989 -0.1404  1.4930
13447TIP3    H261833   4.540   5.849  14.044  0.2931 -0.7930 -0.6679
13448TIP3   OH261834   2.328   5.138  13.105 -0.6306 -0.0498  0.8182
13448TIP3    H161835   2.284   5.081  13.042  0.4691  0.4548 -0.4449
13448TIP3    H261836   2.303   5.227  13.079  2.0069  0.3261 -0.6864
13449TIP3   OH261837   5.412   3.447   2.051  0.3438 -0.0110  0.0355
13449TIP3    H161838   5.332   3.452   2.103  0.5568 -1.6445  0.5671
13449TIP3    H261839   5.450   3.362   2.074  2.2176  0.7250 -0.2201
13450TIP3   OH261840   3.072   0.548   1.851 -0.5807 -0.3895 -0.0927
13450TIP3    H161841   3.131   0.541   1.926  0.2013  0.8939 -0.5597
13450TIP3    H261842   3.115   0.496   1.782 -0.3742 -0.0839 -0.1970
13451TIP3   OH261843   0.417   5.199  16.518 -0.1149 -0.0651  0.3528
13451TIP3    H161844   0.451   5.110  16.527  0.9539  0.4178  1.2324
13451TIP3    H261845   0.354   5.193  16.446  0.8803 -1.2654 -0.4518
13452TIP3   OH261846   2.857   4.370  13.717  0.1968 -0.3035 -0.4219
13452TIP3    H161847   2.848   4.463  13.736  1.4281  0.0858 -1.6145
13452TIP3    H261848   2.910   4.335  13.788 -0.5026 -0.1542  0.1730
13453TIP3   OH261849   4.697   6.326  10.723  0.4264  0.2519  0.1569
13453TIP3    H161850   4.675   6.288  10.808  1.5513 -0.5337  0.1138
13453TIP3    H261851   4.644   6.405  10.717 -2.0712 -1.3744  0.2081
13454TIP3   OH261852   4.566   1.622  13.312 -0.3266 -0.4386 -0.1596
13454TIP3    H161853   4.607   1.708  13.298  1.8946 -1.5892 -0.9471
13454TIP3    H261854   4.574   1.606  13.406 -1.0778  0.3546  0.0482
13455TIP3   OH261855   2.641   5.693  16.779  0.2482 -0.1486  0.2359
13455TIP3    H161856   2.636   5.614  16.832 -0.0635 -1.2461 -1.4037
13455TIP3    H261857   2.675   5.664  16.694  0.3529  1.5040 -0.3157
13456TIP3   OH261858   3.046   4.330  12.988 -1.1042 -0.2585  0.7371
13456TIP3    H161859   3.062   4.408  13.041 -2.1204  0.6137 -0.2142
13456TIP3    H261860   2.951   4.317  12.994 -1.3689  0.4011 -1.5787
13457TIP3   OH261861   6.000   1.838   5.622 -0.0463 -0.3936 -0.3415
13457TIP3    H161862   6.004   1.774   5.551 -1.1019 -1.1066  0.2299
13457TIP3    H261863   6.040   1.795   5.697 -0.0708 -0.1001 -0.1577
13458TIP3   OH261864   0.709   3.163  12.252  0.3374 -0.3089  0.0766
13458TIP3    H161865   0.759   3.236  12.286 -1.6510  0.1149  2.1668
13458TIP3    H261866   0.660   3.130  12.327 -4.2688  0.7217 -2.3212
13459TIP3   OH261867   4.445   5.074  16.373  0.1540  0.3390 -0.7525
13459TIP3    H161868   4.376   5.067  16.307  0.0199 -0.2894 -0.5513
13459TIP3    H261869   4.431   4.999  16.431  1.4416 -0.2168 -1.1383
13460TIP3   OH261870   5.314   0.696   2.016 -0.4542 -0.0907 -0.7252
13460TIP3    H161871   5.316   0.791   2.029 -1.1696 -0.0775 -0.7015
13460TIP3    H261872   5.221   0.674   2.011 -0.2826 -0.4257 -3.3509
13461TIP3   OH261873   2.946   6.702   5.688  0.2154  0.4422 -0.2383
13461TIP3    H161874   2.970   6.732   5.600  0.1880  1.6179  0.1499
13461TIP3    H261875   2.854   6.676   5.680  0.1135  0.8653 -0.4841
13462TIP3   OH261876   2.630   3.874   4.010  0.1383  0.5925 -0.0934
13462TIP3    H161877   2.684   3.797   3.992  0.3868  0.3240  1.7087
13462TIP3    H261878   2.673   3.945   3.961  0.0846 -0.3228 -1.5127
13463TIP3   OH261879   2.138   1.527   4.884  0.2715  0.2509 -0.8162
13463TIP3    H161880   2.117   1.567   4.799 -0.7227  0.5537 -0.4284
13463TIP3    H261881   2.060   1.479   4.909  1.0896 -1.0831 -0.7647
13464TIP3   OH261882   5.638   3.321   3.911 -0.2092 -0.4005 -0.2792
13464TIP3    H161883   5.585   3.331   3.831 -1.9912  1.7629  1.0923
13464TIP3    H261884   5.727   3.345   3.884 -0.6696 -0.3171 -1.7658
13465TIP3   OH261885   1.813   2.068  11.309 -0.1610  0.1944 -0.2239
13465TIP3    H161886   1.788   2.013  11.383 -1.2807  1.8742  0.6751
13465TIP3    H261887   1.887   2.023  11.269 -0.5957 -1.5793  0.9263
13466TIP3   OH261888   5.511   2.536   4.817  0.1707 -0.5158 -0.4408
13466TIP3    H161889   5.427   2.533   4.863 -0.4463 -0.0189 -1.5350
13466TIP3    H261890   5.566   2.474   4.865 -0.8349 -0.8900  0.2469
13467TIP3   OH261891   3.507   6.432  16.331  0.5497 -0.5516  0.1377
13467TIP3    H161892   3.514   6.451  16.425 -0.2594 -0.0995  0.1055
13467TIP3    H261893   3.579   6.370  16.314  1.1892 -0.0253  0.8884
13468TIP3   OH261894   1.544   5.900   1.687 -0.2118 -0.1684 -0.3175
13468TIP3    H161895   1.583   5.853   1.613 -0.3256  0.0310 -0.5036
13468TIP3    H261896   1.485   5.964   1.646  0.6226  0.7558 -0.0968
13469TIP3   OH261897   4.442   1.949  11.705 -0.3003 -0.6886  0.1219
13469TIP3    H161898   4.353   1.972  11.679  0.0994  0.6308 -0.1069
13469TIP3    H261899   4.460   2.005  11.781  1.0436  0.4973 -1.0466
13470TIP3   OH261900   2.060   5.555   5.794 -0.3229 -0.3505  0.0411
13470TIP3    H161901   2.098   5.573   5.708  0.1361 -1.3408  0.0238
13470TIP3    H261902   2.029   5.465   5.788 -0.5959 -0.3141  0.8085
13471TIP3   OH261903   3.846   4.526  16.916  0.8019 -0.3800  0.0467
13471TIP3    H161904   3.862   4.602  16.972  0.0026 -2.7975  3.7685
13471TIP3    H261905   3.768   4.549  16.865  0.6117  1.3319  1.0720
13472TIP3   OH261906   5.216   0.206   4.976 -0.0135 -0.4884  0.4884
13472TIP3    H161907   5.272   0.266   4.928 -0.2569 -0.2745  0.4712
13472TIP3    H261908   5.175   0.259   5.044 -0.3128 -0.6066  0.4060
13473TIP3   OH261909   6.803   1.319  13.421  0.1508 -0.0407  0.0628
13473TIP3    H161910   6.769   1.395  13.372  0.8059 -0.0081 -0.3591
13473TIP3    H261911   6.765   1.243  13.377 -0.7915  0.0581  0.7104
13474TIP3   OH261912   6.567   3.880  16.655  0.4195 -0.6573  0.0550
13474TIP3    H161913   6.610   3.795  16.644 -0.8465 -1.2182 -0.6757
13474TIP3    H261914   6.542   3.882  16.747 -0.1784 -1.3803 -0.0892
13475TIP3   OH261915   5.961   4.695  11.694 -0.7108 -1.0332 -0.5571
13475TIP3    H161916   5.932   4.719  11.606 -2.0761 -1.7786 -0.3182
13475TIP3    H261917   5.946   4.601  11.700 -0.4558 -1.0225  0.4185
13476TIP3   OH261918   4.184   6.197   5.684 -0.5667 -0.1606  0.6614
13476TIP3    H161919   4.107   6.218   5.631 -0.3980 -0.8813  0.1282
13476TIP3    H261920   4.214   6.113   5.650  0.6431  0.2664  0.6602
13477TIP3   OH261921   2.242   2.215   3.510  0.2766  0.2993 -0.1543
13477TIP3    H161922   2.179   2.275   3.549 -0.2343  0.7556 -1.6206
13477TIP3    H261923   2.203   2.128   3.520  0.8093  0.2399  1.5750
13478TIP3   OH261924   1.312   4.603  16.915  0.4621  0.2418  0.2320
13478TIP3    H161925   1.352   4.556  16.988  0.7604 -0.2405 -0.2373
13478TIP3    H261926   1.276   4.535  16.859  0.8728  0.5662 -0.4350
13479TIP3   OH261927   3.624   0.203  13.729 -0.1783  0.4742 -0.5755
13479TIP3    H161928   3.558   0.174  13.666  0.0447  1.7513 -1.3951
13479TIP3    H261929   3.576   0.256  13.792  0.1046  1.6076 -1.3101
13480TIP3   OH261930   4.778   4.479   0.766 -0.1872  0.2807  0.6008
13480TIP3    H161931   4.749   4.399   0.721  1.1904 -0.0017  0.2070
13480TIP3    H261932   4.845   4.516   0.710 -0.5106  1.5021  1.0029
13481TIP3   OH261933   4.192   0.828   4.113  0.6405  0.1238  0.4008
13481TIP3    H161934   4.268   0.773   4.091 -0.9717 -1.9969 -0.0500
13481TIP3    H261935   4.157   0.790   4.194  0.6056  1.6586  1.1108
13482TIP3   OH261936   4.493   2.279  10.341 -0.0035  0.1170  1.2853
13482TIP3    H161937   4.444   2.300  10.261  0.1192 -3.7688  0.0664
13482TIP3    H261938   4.526   2.363  10.372 -1.8171  1.9829 -1.5898
13483TIP3   OH261939   2.465   2.613  13.623  0.4686  0.2619  0.2723
13483TIP3    H161940   2.550   2.605  13.665  0.8755 -0.1857 -0.6292
13483TIP3    H261941   2.444   2.707  13.629  0.3901  0.1643  1.7050
13484TIP3   OH261942   0.658   5.472  15.835 -0.0027 -0.5726 -0.3359
13484TIP3    H161943   0.622   5.392  15.797  0.4191 -1.2000  0.5743
13484TIP3    H261944   0.753   5.465  15.819  0.1478 -0.7349  0.6465
13485TIP3   OH261945   3.093   0.532  12.784  0.9432  0.3188 -0.2030
13485TIP3    H161946   3.102   0.550  12.691  1.2882 -0.7353 -0.3870
13485TIP3    H261947   3.178   0.556  12.822  0.4721  1.6756  0.0012
13486TIP3   OH261948   4.636   6.657  16.605  0.1138  0.3808 -0.0931
13486TIP3    H161949   4.636   6.734  16.548 -1.8133  0.4299 -0.0750
13486TIP3    H261950   4.700   6.677  16.673  0.2887  1.5872 -0.6028
13487TIP3   OH261951   0.578   4.209  16.737  0.0537  0.2364  0.1137
13487TIP3    H161952   0.669   4.240  16.740 -0.0862  0.5707  1.1422
13487TIP3    H261953   0.532   4.263  16.802 -0.3837 -1.4888  1.2699
13488TIP3   OH261954   3.802   5.603  17.190 -0.1047 -0.6855 -0.2057
13488TIP3    H161955   3.744   5.663  17.143 -0.5440 -1.7059 -0.9939
13488TIP3    H261956   3.879   5.656  17.210 -0.7276  0.3023 -0.3779
13489TIP3   OH261957   4.977   3.258   5.559  0.8743  0.2729 -0.5975
13489TIP3    H161958   4.906   3.220   5.610  0.9021  0.6164 -0.3069
13489TIP3    H261959   5.054   3.253   5.616  1.0194  0.1861 -0.7957
13490TIP3   OH261960   4.273   3.961   2.194  0.1910 -0.2363 -0.2708
13490TIP3    H161961   4.316   4.035   2.237 -1.4838  0.6689 -0.1307
13490TIP3    H261962   4.257   3.991   2.104 -0.2849 -0.5055 -0.2767
13491TIP3   OH261963   3.017   0.113  14.382 -0.1250  0.5364 -0.3177
13491TIP3    H161964   3.011   0.045  14.315  0.4544 -0.1436  0.3094
13491TIP3    H261965   2.931   0.156  14.381 -0.9517 -1.0761  0.1904
13492TIP3   OH261966   1.151   3.176   3.402 -0.6119  0.4129 -0.2741
13492TIP3    H161967   1.152   3.086   3.369 -1.2459  0.8641 -1.5617
13492TIP3    H261968   1.075   3.216   3.360 -0.7844  1.3299  0.8981
13493TIP3   OH261969   0.594   1.743  12.487  0.0724  0.8087  0.1813
13493TIP3    H161970   0.621   1.779  12.571  1.1623  0.8981 -0.2078
13493TIP3    H261971   0.630   1.803  12.421 -1.1553  0.9990 -0.3483
13494TIP3   OH261972   3.076   1.801  11.640  0.2945  0.5015  0.0580
13494TIP3    H161973   3.171   1.794  11.651  0.2979 -0.1280 -0.3266
13494TIP3    H261974   3.061   1.892  11.617  0.7438  0.7521  0.7380
13495TIP3   OH261975   2.498   3.434  13.638  0.4054 -0.3796 -0.1070
13495TIP3    H161976   2.582   3.394  13.613 -0.0923 -0.3732 -1.8979
13495TIP3    H261977   2.522   3.520  13.672  1.2211 -0.8579  0.5514
13496TIP3   OH261978   5.714   6.352   0.725  0.2524 -0.1911 -0.0584
13496TIP3    H161979   5.657   6.358   0.802  0.3465 -1.4016  0.1177
13496TIP3    H261980   5.685   6.423   0.668 -1.7383 -1.0644 -0.1591
13497TIP3   OH261981   1.163   1.119   1.130 -0.2214 -0.1963 -0.3813
13497TIP3    H161982   1.078   1.162   1.141 -1.2991 -2.4546  0.2963
13497TIP3    H261983   1.154   1.067   1.051  1.6905  2.1938 -2.2320
13498TIP3   OH261984   2.830   3.295   0.962 -0.0636 -0.0930 -0.7985
13498TIP3    H161985   2.869   3.376   0.929 -0.8123  0.5503 -0.1364
13498TIP3    H261986   2.845   3.231   0.893 -0.0541  0.7866 -1.6231
13499TIP3   OH261987   1.670   0.776   5.054  0.6937  0.0591 -0.0190
13499TIP3    H161988   1.604   0.795   4.988  1.0307  0.8962 -0.1249
13499TIP3    H261989   1.751   0.765   5.004  0.4928 -1.7564  0.0356
13500TIP3   OH261990   3.923   5.633  15.791  0.1961 -0.1420 -0.4193
13500TIP3    H161991   3.983   5.558  15.790 -1.1269 -1.2665  1.5418
13500TIP3    H261992   3.836   5.594  15.791 -0.5126  1.3833  0.9094
13501TIP3   OH261993   3.897   3.217   4.087 -0.5704 -0.2888  0.1772
13501TIP3    H161994   3.924   3.143   4.032  0.3938 -0.3274  0.6924
13501TIP3    H261995   3.918   3.294   4.035 -1.2142 -0.3640 -0.1989
13502TIP3   OH261996   1.435   5.805  13.256  0.0558  0.4160  0.5715
13502TIP3    H161997   1.406   5.747  13.185 -0.3120  0.8348  0.3717
13502TIP3    H261998   1.508   5.759  13.297 -1.5764 -1.1470  1.7591
13503TIP3   OH261999   4.023   4.321   0.444 -0.2083  0.0733  0.8169
13503TIP3    H162000   4.070   4.360   0.370  0.6501 -0.9494  0.7990
13503TIP3    H262001   3.997   4.396   0.498  0.3799  0.7375  0.1986
13504TIP3   OH262002   1.620   3.331  16.163 -0.4548  0.2033  0.0874
13504TIP3    H162003   1.550   3.396  16.165 -1.7642 -1.2043  0.9622
13504TIP3    H262004   1.655   3.331  16.252 -0.0120  0.1637 -0.0821
13505TIP3   OH262005   4.991   0.998   2.154 -0.1259  0.2240 -0.4599
13505TIP3    H162006   5.008   1.092   2.157 -1.7131  0.5157  0.0019
13505TIP3    H262007   4.895   0.991   2.157  0.0038 -1.4372  0.3004
13506TIP3   OH262008   2.150   5.829   1.746  0.1088  0.1177  0.0773
13506TIP3    H162009   2.086   5.899   1.735  1.4235  1.2963 -0.1582
13506TIP3    H262010   2.183   5.840   1.835 -0.2694 -0.7098  0.3269
13507TIP3   OH262011   5.570   6.767   1.490 -0.3589  0.1888  0.5538
13507TIP3    H162012   5.604   6.854   1.513 -2.3043  1.3806 -0.9507
13507TIP3    H262013   5.528   6.779   1.405 -2.0114 -1.8872  1.0250
13508TIP3   OH262014   2.902   5.518  11.903  0.4180  0.5569  0.2003
13508TIP3    H162015   2.848   5.596  11.895  0.3876  0.5716  0.5553
13508TIP3    H262016   2.992   5.550  11.908  0.6506  0.4518 -2.3873
13509TIP3   OH262017   3.624   4.320  13.178 -0.3783  0.4569 -0.1706
13509TIP3    H162018   3.623   4.358  13.090 -0.1163  1.1399  0.1164
13509TIP3    H262019   3.717   4.316  13.201 -0.5063  1.4115  0.5531
13510TIP3   OH262020   5.889   0.226   0.703 -0.2137 -0.0385  0.0715
13510TIP3    H162021   5.834   0.215   0.780  0.3797  0.4566  0.5777
13510TIP3    H262022   5.932   0.142   0.691  0.9179  0.3520  1.2531
13511TIP3   OH262023   0.271   4.422  14.438 -0.2102 -0.0837  0.7253
13511TIP3    H162024   0.304   4.448  14.352 -0.5218  1.3497  1.0211
13511TIP3    H262025   0.337   4.362  14.472  1.5838  1.9299  0.8862
13512TIP3   OH262026   2.071   0.668  11.331 -1.0092  0.1442  0.7214
13512TIP3    H162027   2.020   0.651  11.410 -0.3512  1.6661  1.5005
13512TIP3    H262028   2.031   0.747  11.293 -0.1929  0.4664  0.5243
13513TIP3   OH262029   2.693   2.032  12.104 -0.0549  0.0202  0.7049
13513TIP3    H162030   2.747   1.954  12.093 -0.2940  0.1313 -1.5305
13513TIP3    H262031   2.748   2.105  12.076 -1.2068  0.1775 -1.2164
13514TIP3   OH262032   3.798   5.531  11.209  0.2871 -0.6039 -0.1379
13514TIP3    H162033   3.727   5.592  11.188  0.2625 -0.4346  0.4449
13514TIP3    H262034   3.808   5.538  11.304  0.6947 -1.0556 -0.1506
13515TIP3   OH262035   0.937   0.703  12.290  0.5809 -0.0095 -0.7753
13515TIP3    H162036   0.925   0.657  12.207 -1.7872 -0.1719 -0.3712
13515TIP3    H262037   0.854   0.747  12.305  1.8165  1.9869  0.3348
13516TIP3   OH262038   3.636   3.201   3.363  0.5511  0.3822  0.1148
13516TIP3    H162039   3.658   3.218   3.454  2.8167  2.1847 -0.7203
13516TIP3    H262040   3.689   3.263   3.313 -2.1350  0.8371 -2.3528
13517TIP3   OH262041   4.558   3.612  14.398 -0.1765  0.5104 -0.1987
13517TIP3    H162042   4.517   3.626  14.483  0.3141  2.4746 -0.2747
13517TIP3    H262043   4.646   3.582  14.419 -0.3638  0.0557 -0.0355
13518TIP3   OH262044   4.729   5.223  13.063 -0.2701  0.8569  0.7190
13518TIP3    H162045   4.740   5.143  13.114 -2.4678 -0.3935 -0.6836
13518TIP3    H262046   4.651   5.265  13.100 -1.3098  0.4287 -0.9661
13519TIP3   OH262047   1.009   5.204   3.714  0.4729  0.7066  0.8795
13519TIP3    H162048   1.001   5.206   3.809  0.6250  0.6522  0.8929
13519TIP3    H262049   0.992   5.113   3.690 -0.2329  0.8594  0.7986
13520TIP3   OH262050   4.136   4.752  12.588 -0.9779  0.4632 -0.0673
13520TIP3    H162051   4.152   4.660  12.569 -4.5920 -0.2672 -0.0336
13520TIP3    H262052   4.181   4.768  12.671  2.1520 -0.4127 -1.5205
13521TIP3   OH262053   6.131   2.747   2.369  0.6796 -0.4340  0.1587
13521TIP3    H162054   6.042   2.744   2.401  0.3940  2.7756 -0.1820
13521TIP3    H262055   6.129   2.696   2.288 -1.0180  0.1437 -0.1863
13522TIP3   OH262056   6.462   4.739   4.606 -0.1952  0.0445  0.3938
13522TIP3    H162057   6.457   4.824   4.649 -1.4316  0.6320 -0.8604
13522TIP3    H262058   6.371   4.717   4.585  0.1534 -1.3870  0.3231
13523TIP3   OH262059   5.993   4.273   1.586  0.2678 -0.4487 -0.7178
13523TIP3    H162060   6.041   4.324   1.651  1.9705 -0.8380 -1.6337
13523TIP3    H262061   5.901   4.284   1.609  0.6974  1.7977  0.0037
13524TIP3   OH262062   2.932   5.144   3.928  0.0268  0.2604  0.3424
13524TIP3    H162063   2.865   5.078   3.909 -0.7298  0.3385  2.5285
13524TIP3    H262064   2.978   5.109   4.005  0.5129  1.6362  0.6804
13525TIP3   OH262065   3.809   1.796  14.000  0.0641 -0.0535 -0.3004
13525TIP3    H162066   3.896   1.828  14.021  0.6124 -0.1850 -2.3212
13525TIP3    H262067   3.816   1.700  14.006  0.0542 -0.0648 -0.4784
13526TIP3   OH262068   3.601   5.147   3.063  0.0747  0.4907  0.0260
13526TIP3    H162069   3.635   5.057   3.061 -0.0765  0.4054  1.0412
13526TIP3    H262070   3.651   5.193   2.996  0.4392 -0.2531 -0.2184
13527TIP3   OH262071   1.069   3.761  16.077  0.1588  0.2770 -0.5190
13527TIP3    H162072   1.111   3.844  16.054  2.2712 -0.5485  0.2374
13527TIP3    H262073   1.043   3.772  16.169 -1.0303  0.6566 -0.8837
13528TIP3   OH262074   0.559   5.568   4.664 -0.1896 -0.1263 -0.8801
13528TIP3    H162075   0.572   5.644   4.607  0.6172  0.8675  0.5786
13528TIP3    H262076   0.463   5.560   4.672 -0.2830  0.5252 -1.3412
13529TIP3   OH262077   2.624   4.828  14.255  0.6482  0.5159  0.0295
13529TIP3    H162078   2.610   4.773  14.179  1.4477  2.2343 -1.4060
13529TIP3    H262079   2.602   4.773  14.330 -0.9480 -0.9295 -1.4832
13530TIP3   OH262080   5.036   1.527   1.649  0.3772  0.2896 -0.3302
13530TIP3    H162081   5.073   1.572   1.725 -0.8480  0.7273  0.0289
13530TIP3    H262082   5.103   1.535   1.581  1.3234  0.2396  0.5793
13531TIP3   OH262083   1.406   1.600  12.051  0.3659  0.5645  0.3342
13531TIP3    H162084   1.328   1.625  12.101  0.8240  0.3575  1.1593
13531TIP3    H262085   1.393   1.641  11.966 -0.5842  0.6470  0.5076
13532TIP3   OH262086   1.709   3.682  15.299  0.5950 -0.4847  0.5445
13532TIP3    H162087   1.667   3.765  15.322  1.9059  0.7542 -1.3834
13532TIP3    H262088   1.695   3.626  15.375 -0.9991  1.2440  1.5577
13533TIP3   OH262089   6.019   3.813   0.843 -0.0104  0.2331 -0.2003
13533TIP3    H162090   5.995   3.731   0.800  0.2820  0.1402 -0.1840
13533TIP3    H262091   5.936   3.861   0.850 -0.3365 -0.4380  0.5953
13534TIP3   OH262092   3.383   0.506  17.194 -0.5933  0.4584 -0.0775
13534TIP3    H162093   3.413   0.574  17.255 -0.6219  0.2197  0.2063
13534TIP3    H262094   3.414   0.424  17.233  1.4771  0.4684 -1.6471
13535TIP3   OH262095   4.796   3.017  12.170 -0.0163 -0.1316 -0.2731
13535TIP3    H162096   4.874   2.964  12.189 -0.3864 -0.4543  0.3774
13535TIP3    H262097   4.791   3.018  12.075  1.0495  0.2817 -0.3382
13536TIP3   OH262098   1.554   1.891   0.614 -0.0511 -0.4598  0.0186
13536TIP3    H162099   1.534   1.810   0.566  1.9696 -1.3260  0.5925
13536TIP3    H262100   1.627   1.867   0.671  1.1650  2.0342 -0.4679
13537TIP3   OH262101   4.049   2.663  12.047 -0.4756  0.4388  0.6757
13537TIP3    H162102   4.021   2.720  11.975  0.3312 -0.2830 -0.2168
13537TIP3    H262103   4.023   2.575  12.019  2.0594 -0.1627  0.1295
13538TIP3   OH262104   5.879   5.726   3.495 -0.1729 -0.5139  0.5723
13538TIP3    H162105   5.894   5.654   3.434 -1.6857 -1.1858  0.9835
13538TIP3    H262106   5.935   5.705   3.571 -0.3647 -1.0840  0.5570
13539TIP3   OH262107   1.958   1.241  13.776  0.4509  0.1274  0.6201
13539TIP3    H162108   1.925   1.246  13.686  1.8802 -1.7843 -0.0402
13539TIP3    H262109   1.894   1.187  13.822  0.6197 -0.3438  0.3073
13540TIP3   OH262110   5.419   6.638   5.782  0.3979  0.0135  0.1508
13540TIP3    H162111   5.423   6.648   5.878 -1.6303 -0.1878  0.2606
13540TIP3    H262112   5.393   6.724   5.750 -0.1334 -0.2574 -0.1396
13541TIP3   OH262113   5.821   0.582   2.193  0.1955 -0.3294  0.0047
13541TIP3    H162114   5.879   0.653   2.165  0.0617 -0.6218 -1.0239
13541TIP3    H262115   5.818   0.590   2.288  0.0694  1.1270 -0.1198
13542TIP3   OH262116   3.151   1.041   1.606 -0.3105  0.3519  0.0893
13542TIP3    H162117   3.182   1.128   1.578 -0.1766  0.5506  0.8511
13542TIP3    H262118   3.060   1.039   1.577 -0.9106  1.5313  1.7802
13543TIP3   OH262119   0.095   0.091   1.554  0.2523 -0.3971  0.0016
13543TIP3    H162120   0.141   0.155   1.609  0.8230 -0.6426 -0.1880
13543TIP3    H262121   0.053   0.032   1.616  0.1820 -0.1676  0.1755
13544TIP3   OH262122   3.467   5.902   4.660 -0.4363 -0.2155  0.1368
13544TIP3    H162123   3.556   5.933   4.680 -0.9688  1.1431  0.4471
13544TIP3    H262124   3.471   5.807   4.673  1.3682 -0.3800 -1.3445
13545TIP3   OH262125   0.394   4.113   0.092  0.5083  0.1442 -0.1336
13545TIP3    H162126   0.411   4.140   0.002  0.1967 -0.4812 -0.3847
13545TIP3    H262127   0.303   4.083   0.091  0.9114 -1.1185  0.0841
13546TIP3   OH262128   4.983   6.165  14.311  0.0341  0.1061 -0.5295
13546TIP3    H162129   4.894   6.200  14.318 -0.5560 -1.2133 -1.2274
13546TIP3    H262130   4.990   6.137  14.220  0.3751 -1.8429  0.0838
13547TIP3   OH262131   5.921   1.096  17.087  0.1187  0.0079 -0.5206
13547TIP3    H162132   5.986   1.139  17.032  0.6125 -0.4975 -0.3370
13547TIP3    H262133   5.929   1.140  17.172 -0.6381  0.7822 -0.8422
13548TIP3   OH262134   5.440   3.470  12.370 -0.1109 -0.2885 -0.1190
13548TIP3    H162135   5.383   3.449  12.444  1.5002  1.2014  1.6067
13548TIP3    H262136   5.396   3.432  12.294 -0.8101 -3.5857  1.8511
13549TIP3   OH262137   2.140   2.259  12.005  0.3561  0.2101  0.1653
13549TIP3    H162138   2.155   2.167  11.981  4.2646  0.9229 -0.5591
13549TIP3    H262139   2.085   2.255  12.083 -2.7341 -2.5742 -2.0305
13550TIP3   OH262140   3.902   4.840  15.764  0.3526  0.3486 -0.3393
13550TIP3    H162141   3.864   4.845  15.676  1.8568  0.6749 -0.9751
13550TIP3    H262142   3.863   4.762  15.802 -2.3819  1.6714 -0.2964
13551TIP3   OH262143   1.765   3.810   4.859 -0.1282  0.6022  0.3771
13551TIP3    H162144   1.671   3.793   4.867 -0.1171  0.5560  0.4094
13551TIP3    H262145   1.795   3.751   4.790  0.0840 -0.1921  1.1305
13552TIP3   OH262146   4.778   6.112  16.824  0.3254  0.0280 -0.5748
13552TIP3    H162147   4.742   6.196  16.852  1.0963  0.5381 -1.1175
13552TIP3    H262148   4.824   6.131  16.743 -0.3714 -1.1098 -1.2479
13553TIP3   OH262149   1.742   4.621   5.070  0.4632 -0.1300 -0.5620
13553TIP3    H162150   1.682   4.591   5.002 -0.0429  2.6745 -1.3829
13553TIP3    H262151   1.805   4.677   5.025  1.3216  0.1759  0.9631
13554TIP3   OH262152   0.893   6.528   5.335  0.3066 -0.3331 -0.2993
13554TIP3    H162153   0.856   6.564   5.416  2.4882  1.4513 -0.0481
13554TIP3    H262154   0.966   6.473   5.364  0.0886 -0.9991 -0.9834
13555TIP3   OH262155   0.265   3.254  12.214  0.4833 -0.0380 -0.2219
13555TIP3    H162156   0.191   3.268  12.155 -0.4300 -2.7410  0.1707
13555TIP3    H262157   0.339   3.295  12.170 -0.1216 -2.1494 -3.3939
13556TIP3   OH262158   5.622   1.808   2.441  0.4197  0.1760  0.0928
13556TIP3    H162159   5.632   1.903   2.435  0.8626  0.2428  1.7122
13556TIP3    H262160   5.702   1.774   2.403  0.2870  0.4475 -0.4407
13557TIP3   OH262161   6.235   4.936  12.754 -0.0175  0.4055  0.1914
13557TIP3    H162162   6.287   4.887  12.817  0.3490 -0.2211 -0.5920
13557TIP3    H262163   6.299   4.977  12.696 -0.4045 -1.3489 -1.5133
13558TIP3   OH262164   6.328   0.099   1.297 -0.2018  0.5490 -0.5059
13558TIP3    H162165   6.258   0.115   1.361 -1.2372  0.5280 -1.6079
13558TIP3    H262166   6.283   0.055   1.224  0.8208  1.1966 -1.5380
13559TIP3   OH262167   6.045   4.539  13.916  0.1112  0.2674 -0.0195
13559TIP3    H162168   6.003   4.574  13.994 -0.6783 -0.1290 -0.2608
13559TIP3    H262169   5.972   4.518  13.857  0.4487 -2.9976  0.6097
13560TIP3   OH262170   5.084   5.891  12.129  0.1119  0.2908  0.1442
13560TIP3    H162171   5.019   5.888  12.199  3.9373 -0.8458  3.9103
13560TIP3    H262172   5.046   5.841  12.058 -2.7631 -1.0656  2.5565
13561TIP3   OH262173   6.073   2.948   2.097 -0.3849 -0.1506 -0.0848
13561TIP3    H162174   6.074   2.954   2.001 -2.3031  0.2610 -0.0945
13561TIP3    H262175   6.068   2.854   2.115 -0.1520 -0.2221 -0.3900
13562TIP3   OH262176   4.821   0.905   2.674  0.3809 -0.4665  0.0288
13562TIP3    H162177   4.904   0.906   2.626 -0.6902 -2.7259 -1.9907
13562TIP3    H262178   4.773   0.981   2.640  0.5796 -0.6854 -0.7511
13563TIP3   OH262179   1.371   4.543   3.101  0.0167 -0.1665 -0.1231
13563TIP3    H162180   1.318   4.600   3.044  0.8158  1.1425  0.4300
13563TIP3    H262181   1.343   4.566   3.190  0.3415 -0.6457  0.0998
13564TIP3   OH262182   5.929   5.906   1.285 -0.3838 -0.0250  0.5066
13564TIP3    H162183   5.907   5.996   1.260  0.0054  0.2443  1.1261
13564TIP3    H262184   5.859   5.880   1.344 -0.7658 -0.3079 -0.0678
13565TIP3   OH262185   5.358   6.348   3.041  0.0276  0.0670 -0.0439
13565TIP3    H162186   5.413   6.384   2.972 -2.4921  0.6790 -1.8242
13565TIP3    H262187   5.337   6.422   3.097  1.1808 -0.2210  0.7990
13566TIP3   OH262188   2.806   6.689   4.585 -0.5290  0.2247  0.0420
13566TIP3    H162189   2.872   6.663   4.521  1.2110 -1.3848  2.3993
13566TIP3    H262190   2.741   6.736   4.534  0.0598 -2.2257 -3.1351
13567TIP3   OH262191   1.199   3.743   5.781 -0.2497 -0.0039 -0.3305
13567TIP3    H162192   1.289   3.720   5.761 -0.8337 -2.5192 -0.2695
13567TIP3    H262193   1.205   3.801   5.857  1.4333  1.9375 -1.9182
13568TIP3   OH262194   2.219   4.012   5.748 -0.1228 -0.1933  1.2239
13568TIP3    H162195   2.295   4.062   5.777 -0.4878  1.9623 -1.3329
13568TIP3    H262196   2.255   3.931   5.712  1.1422  1.5674 -1.5654
13569TIP3   OH262197   4.032   4.926   0.416 -0.3402 -0.3568  0.1625
13569TIP3    H162198   4.064   4.982   0.345  1.2327 -0.2671  0.9238
13569TIP3    H262199   4.077   4.843   0.404 -0.4914 -0.5244  0.7295
13570TIP3   OH262200   6.016   5.509   1.854  0.4296 -0.2229 -0.1154
13570TIP3    H162201   6.056   5.596   1.864  0.9595 -0.4368 -0.3732
13570TIP3    H262202   6.081   5.458   1.806  0.0431 -0.7129 -0.1193
13571TIP3   OH262203   6.812   5.623   3.348  0.2915 -0.2816 -0.4512
13571TIP3    H162204   6.728   5.668   3.341 -0.1267 -0.8535  0.8290
13571TIP3    H262205   6.876   5.694   3.357 -0.1018  0.1305 -0.8676
13572TIP3   OH262206   2.077   1.924  16.185 -0.0035  0.2241 -0.3291
13572TIP3    H162207   2.104   1.912  16.094  1.9324 -0.3222  0.2823
13572TIP3    H262208   2.071   2.019  16.196  0.0779  0.3009 -0.9478
13573TIP3   OH262209   0.749   5.259  13.994  0.0927  0.7386  0.6285
13573TIP3    H162210   0.691   5.230  13.923  0.7032 -1.5064  1.0010
13573TIP3    H262211   0.833   5.276  13.952  0.1100  0.6300  0.6194
13574TIP3   OH262212   1.047   4.450  14.083 -0.6003 -0.1987  0.3427
13574TIP3    H162213   1.025   4.442  13.990  0.4128 -0.7717  0.1517
13574TIP3    H262214   1.075   4.363  14.109  1.4286  0.5131  0.5982
13575TIP3   OH262215   2.192   4.168  12.871  0.1041  0.7887 -0.7905
13575TIP3    H162216   2.186   4.246  12.926 -0.7170  0.1792  0.0022
13575TIP3    H262217   2.103   4.152  12.841  0.3700  0.5130 -1.4528
13576TIP3   OH262218   4.012   2.491  13.644 -0.8354 -0.1171 -0.4276
13576TIP3    H162219   3.972   2.414  13.685  1.1115 -0.3628  1.0894
13576TIP3    H262220   4.080   2.455  13.588 -1.0817  0.4191 -1.0717
13577TIP3   OH262221   2.155   3.156   0.174  0.1249  0.0210  0.9574
13577TIP3    H162222   2.201   3.185   0.253 -1.1603  0.7010  1.4776
13577TIP3    H262223   2.144   3.061   0.186  2.5217 -0.3879  0.2082
13578TIP3   OH262224   4.933   3.724  16.266  0.8593 -0.3166 -1.0239
13578TIP3    H162225   4.838   3.734  16.267  0.7890 -0.9847  0.4519
13578TIP3    H262226   4.950   3.650  16.325  2.2690 -0.4032 -1.5223
13579TIP3   OH262227   1.904   5.864   5.315 -0.4589  0.3122 -0.3178
13579TIP3    H162228   1.833   5.851   5.252 -0.4266 -1.1773 -0.0788
13579TIP3    H262229   1.918   5.777   5.354  0.2947  0.9620  0.9166
13580TIP3   OH262230   6.523   4.673   3.494  0.0559 -0.1165 -0.0092
13580TIP3    H162231   6.439   4.720   3.489  0.2981  0.2514 -0.7099
13580TIP3    H262232   6.564   4.705   3.574  0.3425  1.0770 -0.6313
13581TIP3   OH262233   1.988   6.629  17.292  0.0800 -0.4028  0.0860
13581TIP3    H162234   2.052   6.572  17.334 -0.5699 -1.1995  0.0045
13581TIP3    H262235   1.994   6.711  17.341 -1.3413 -1.6145  2.3839
13582TIP3   OH262236   6.132   5.235  14.634 -0.5707 -0.0189  0.2180
13582TIP3    H162237   6.178   5.152  14.645 -0.5183  0.0619  0.6433
13582TIP3    H262238   6.199   5.302  14.647 -0.0380  0.0919 -2.7846
13583TIP3   OH262239   1.991   3.320  12.869  0.5415 -0.2517  0.1089
13583TIP3    H162240   2.033   3.336  12.953  0.5268 -0.4280  0.1513
13583TIP3    H262241   1.920   3.259  12.889  0.1439  0.1992  0.0707
13584TIP3   OH262242   5.485   5.117   0.692 -0.1538  0.2836  0.2475
13584TIP3    H162243   5.476   5.105   0.787 -0.0365  1.2947  0.3869
13584TIP3    H262244   5.575   5.092   0.673  0.4750  2.1203  0.7287
13585TIP3   OH262245   6.663   1.896  12.710  0.5326  0.5348  0.1888
13585TIP3    H162246   6.627   1.849  12.635 -0.7449  1.1304  0.4133
13585TIP3    H262247   6.741   1.846  12.735 -0.0463 -0.6790 -0.4049
13586TIP3   OH262248   3.540   3.062  14.034  0.0866  0.0978 -0.1419
13586TIP3    H162249   3.629   3.069  13.998  0.4624 -2.1407  0.3104
13586TIP3    H262250   3.502   3.149  14.019  1.8159  0.6237 -1.7136
13587TIP3   OH262251   1.063   2.965   5.857 -0.4156  0.4466 -0.1108
13587TIP3    H162252   1.111   2.889   5.887 -0.1362  0.2646 -1.0014
13587TIP3    H262253   0.979   2.930   5.827  0.1267  0.3197 -1.5491
13588TIP3   OH262254   6.486   2.017   6.496  0.1833 -0.3638  0.6025
13588TIP3    H162255   6.429   1.940   6.495  0.6760 -0.7281  0.2738
13588TIP3    H262256   6.429   2.089   6.523 -0.6801 -0.5381 -0.6883
13589TIP3   OH262257   2.458   1.221   3.641 -0.0170  0.1771  0.5196
13589TIP3    H162258   2.400   1.297   3.635 -1.7376 -1.0199  1.5258
13589TIP3    H262259   2.509   1.235   3.720 -0.7627 -0.0037  1.0320
13590TIP3   OH262260   4.225   3.325   0.242 -0.6025  0.4094 -0.2618
13590TIP3    H162261   4.269   3.410   0.245  0.8901 -0.3842  0.8895
13590TIP3    H262262   4.178   3.326   0.159  2.8342  0.6835 -2.3055
13591TIP3   OH262263   2.982   3.921   1.409  0.1687 -0.6671  0.0578
13591TIP3    H162264   2.979   3.837   1.363  2.0406 -0.3539 -0.6971
13591TIP3    H262265   3.075   3.941   1.416 -0.1391 -0.0070  2.7672
13592TIP3   OH262266   6.576   4.660  14.675 -0.5450 -0.1411 -0.4639
13592TIP3    H162267   6.554   4.573  14.707 -0.7581  0.1085  0.0629
13592TIP3    H262268   6.671   4.668  14.688 -0.4954 -0.3627 -0.6855
13593TIP3   OH262269   4.913   0.731   5.756  0.1643 -0.3311  0.0369
13593TIP3    H162270   4.833   0.680   5.744 -0.0907  0.0802 -0.0049
13593TIP3    H262271   4.884   0.822   5.759  0.7226 -0.1095 -0.9370
13594TIP3   OH262272   4.491   1.378  10.984 -0.3668 -0.2634 -0.2494
13594TIP3    H162273   4.500   1.464  10.944 -2.9130 -0.1136 -0.5815
13594TIP3    H262274   4.411   1.342  10.945 -0.0172 -2.2576  0.8211
13595TIP3   OH262275   2.862   0.605   0.262  0.1044  0.5525  0.7068
13595TIP3    H162276   2.909   0.552   0.197 -1.7341 -1.0677  0.6558
13595TIP3    H262277   2.931   0.641   0.318  1.6145  0.9290 -1.3674
13596TIP3   OH262278   6.091   1.987  11.187  0.0191 -0.3730 -0.1486
13596TIP3    H162279   6.045   1.929  11.247 -0.7055  0.5135  0.1696
13596TIP3    H262280   6.179   1.949  11.178 -0.1412 -0.9653  0.8134
13597TIP3   OH262281   1.259   4.075  13.604  0.6452  0.1774  0.2434
13597TIP3    H162282   1.285   3.995  13.649 -0.0549 -0.5503 -0.6311
13597TIP3    H262283   1.302   4.070  13.518 -0.1695  0.2710 -0.1766
13598TIP3   OH262284   3.203   0.648  16.802 -0.0653  0.0567  0.3429
13598TIP3    H162285   3.162   0.604  16.876  0.4030  1.7015  1.6170
13598TIP3    H262286   3.296   0.654  16.826  0.1702  0.1753 -0.5854
13599TIP3   OH262287   2.840   1.497   6.970 -0.4296 -0.4848 -0.3070
13599TIP3    H162288   2.803   1.414   7.002  0.2169 -0.6220  0.0790
13599TIP3    H262289   2.934   1.481   6.964 -0.2337  0.4145  0.3468
13600TIP3   OH262290   4.706   3.518  10.756  0.0312  0.5317 -0.7969
13600TIP3    H162291   4.633   3.579  10.761 -0.7360 -0.2858 -1.9029
13600TIP3    H262292   4.668   3.437  10.721  1.1861 -0.3349 -0.0892
13601TIP3   OH262293   5.238   1.394   2.733 -0.7342 -0.3600 -0.0904
13601TIP3    H162294   5.165   1.359   2.784 -1.3529 -0.1929 -0.8612
13601TIP3    H262295   5.259   1.477   2.775 -1.7124  0.1153 -0.5421
13602TIP3   OH262296   2.492   4.584  14.594  0.7000 -0.2391 -0.1556
13602TIP3    H162297   2.494   4.492  14.620 -0.6011 -0.7179 -1.6673
13602TIP3    H262298   2.527   4.585  14.504 -1.5617  0.3826 -1.0693
13603TIP3   OH262299   0.961   6.293  16.052  0.3296  0.1768 -0.4308
13603TIP3    H162300   0.962   6.233  16.126 -1.0718 -0.1617 -0.6626
13603TIP3    H262301   0.905   6.366  16.081 -1.1117 -0.4575 -1.5058
13604TIP3   OH262302   0.982   3.113   4.882 -0.1077  0.2675  0.0157
13604TIP3    H162303   0.928   3.167   4.939 -1.8676 -0.4658 -0.9179
13604TIP3    H262304   0.977   3.155   4.796 -1.1987 -1.1609 -0.6345
13605TIP3   OH262305   6.193   4.856   0.009  0.0422  0.5090  0.8596
13605TIP3    H162306   6.210   4.940  -0.033  0.5124  0.5038  1.0317
13605TIP3    H262307   6.098   4.852   0.016 -0.0170  0.6853  0.1666
13606TIP3   OH262308   4.775   0.725   4.826  0.0989 -0.6167 -0.3577
13606TIP3    H162309   4.851   0.705   4.770  0.1509  2.3943 -1.4622
13606TIP3    H262310   4.810   0.782   4.894 -0.7271 -1.1417  0.5095
13607TIP3   OH262311   0.320   3.315  16.311 -0.2244 -0.5282 -0.3786
13607TIP3    H162312   0.317   3.397  16.262 -2.8805  0.6109  1.5667
13607TIP3    H262313   0.357   3.340  16.396 -1.3475 -1.2554  0.3399
13608TIP3   OH262314   5.345   2.112   4.601 -0.1720 -0.1353  0.5902
13608TIP3    H162315   5.312   2.201   4.593  1.7698  0.3671 -2.8772
13608TIP3    H262316   5.427   2.121   4.651 -0.0849 -0.0150  0.4238
13609TIP3   OH262317   4.962   5.936   0.624  0.0607 -0.1012 -0.0453
13609TIP3    H162318   4.926   5.986   0.550  0.5994 -0.4482 -0.5538
13609TIP3    H262319   5.027   5.994   0.663 -0.4084  0.1825  0.3150
13610TIP3   OH262320   6.110   5.982   0.718 -0.4379  0.1617  0.0262
13610TIP3    H162321   6.053   6.037   0.771 -0.0434 -0.4448  1.0781
13610TIP3    H262322   6.059   5.964   0.639 -0.1978  2.8367 -0.7858
13611TIP3   OH262323   6.654   4.499   1.749 -0.4536  0.4935  0.6460
13611TIP3    H162324   6.640   4.428   1.812 -0.9355  0.6030  0.6607
13611TIP3    H262325   6.664   4.577   1.804  0.7961  0.3382  0.6713
13612TIP3   OH262326   6.507   5.754   5.722  0.0956  0.0463  0.0898
13612TIP3    H162327   6.561   5.677   5.740  1.0296  0.3413 -1.3750
13612TIP3    H262328   6.425   5.719   5.688  0.5141 -0.3005 -0.5609
13613TIP3   OH262329   2.437   5.847  10.943 -0.4823  0.2236  0.1772
13613TIP3    H162330   2.467   5.756  10.932 -0.7692  0.1651 -0.1419
13613TIP3    H262331   2.353   5.838  10.988 -1.3389  0.2317 -1.3913
13614TIP3   OH262332   0.353   3.519   3.515  0.6039  0.4431  0.4552
13614TIP3    H162333   0.317   3.493   3.430  2.8295 -2.6005  0.3677
13614TIP3    H262334   0.394   3.604   3.499 -0.1413  0.5058 -1.1737
13615TIP3   OH262335   2.768   2.587   3.066 -0.1489 -0.9579 -0.5028
13615TIP3    H162336   2.688   2.538   3.049  0.5253 -1.6825 -1.6067
13615TIP3    H262337   2.827   2.563   2.995 -0.1151  2.1403 -1.6078
13616TIP3   OH262338   6.584   2.791  13.556 -0.4201  0.4593  0.0066
13616TIP3    H162339   6.588   2.695  13.563  0.4729  0.5486  0.8096
13616TIP3    H262340   6.651   2.813  13.492  0.0919  0.6320  0.6043
13617TIP3   OH262341   1.017   6.150   2.947 -0.5424  0.1642  0.4829
13617TIP3    H162342   0.946   6.181   3.003 -1.7631 -0.4009 -0.7183
13617TIP3    H262343   0.973   6.116   2.869  1.0753  0.1891 -0.4691
13618TIP3   OH262344   3.355   0.923  16.325  0.7496 -0.7662 -0.6824
13618TIP3    H162345   3.285   0.864  16.354  1.2058 -0.8590  0.2533
13618TIP3    H262346   3.330   1.009  16.361  1.2138 -0.8382 -0.1919
13619TIP3   OH262347   5.488   0.851  10.916  0.4331  0.5098 -0.2329
13619TIP3    H162348   5.431   0.848  10.839  0.2386 -0.5798 -0.0546
13619TIP3    H262349   5.561   0.906  10.890  1.3641 -1.4377 -1.8873
13620TIP3   OH262350   5.360   1.543   1.829  0.0386 -0.2262  0.0488
13620TIP3    H162351   5.311   1.624   1.817 -0.8311 -0.4831  1.7180
13620TIP3    H262352   5.418   1.560   1.903  0.0634 -1.0221  0.2193
13621TIP3   OH262353   1.374   4.182  14.995  0.4709  0.2413 -0.4486
13621TIP3    H162354   1.310   4.137  15.049  1.0872 -1.0862 -0.8029
13621TIP3    H262355   1.405   4.255  15.049  0.2365 -0.3869  0.5386
13622TIP3   OH262356   1.736   4.963   0.909  0.1839 -0.2100  0.2011
13622TIP3    H162357   1.728   4.950   0.815  1.5343 -0.4260  0.0995
13622TIP3    H262358   1.742   4.874   0.945  0.2463 -0.1117  0.4336
13623TIP3   OH262359   6.801   4.104  10.620 -0.4617  0.3842 -0.3909
13623TIP3    H162360   6.769   4.051  10.693 -0.4437  1.1176  0.1498
13623TIP3    H262361   6.883   4.062  10.594  0.1809  0.8507  0.8306
13624TIP3   OH262362   2.872   2.033  11.177 -0.4328 -0.2783 -0.2981
13624TIP3    H162363   2.794   2.032  11.123  0.2572 -0.6406 -1.3061
13624TIP3    H262364   2.907   1.944  11.170  0.6209  0.1537 -0.6834
13625TIP3   OH262365   0.150   3.825  13.059 -0.0127 -0.2690 -0.2333
13625TIP3    H162366   0.181   3.916  13.058 -1.5170  0.2779  0.6559
13625TIP3    H262367   0.148   3.800  12.967 -1.9873  1.4684 -0.7019
13626TIP3   OH262368   1.587   3.670   0.928  0.0820 -0.6114  0.3086
13626TIP3    H162369   1.592   3.761   0.959 -0.2975 -0.9086  1.2695
13626TIP3    H262370   1.557   3.678   0.837 -0.8094  0.1964  0.6569
13627TIP3   OH262371   4.800   2.551  14.617 -0.0106 -0.2972 -0.1129
13627TIP3    H162372   4.888   2.514  14.627  1.0442  1.0371 -3.6467
13627TIP3    H262373   4.805   2.636  14.662 -0.5209 -1.5767  2.4636
13628TIP3   OH262374   5.696   3.705  10.985  0.3130 -0.6160  0.1149
13628TIP3    H162375   5.701   3.610  10.981 -2.3150 -0.6951 -2.4899
13628TIP3    H262376   5.702   3.734  10.894  0.2510  1.6588  0.8008
13629TIP3   OH262377   4.741   0.993   4.209 -0.1057  0.2082  0.1457
13629TIP3    H162378   4.768   0.995   4.117 -0.8740  0.0904 -0.0802
13629TIP3    H262379   4.687   1.072   4.219  0.1732  0.3460  0.5536
13630TIP3   OH262380   1.849   0.144   1.057 -0.1194  0.2335 -0.2050
13630TIP3    H162381   1.933   0.181   1.030  0.2034  0.4189  1.0194
13630TIP3    H262382   1.787   0.216   1.048  0.6605  1.4170  2.9821
13631TIP3   OH262383   5.878   5.628  12.398 -0.7769  0.1771 -0.0703
13631TIP3    H162384   5.945   5.694  12.379 -2.6216  1.7581 -1.3766
13631TIP3    H262385   5.852   5.595  12.313 -1.6874 -0.3668  0.4087
13632TIP3   OH262386   3.229   0.579  14.589 -0.3925 -0.3472  0.4940
13632TIP3    H162387   3.215   0.485  14.574 -2.0137 -0.2843  1.4670
13632TIP3    H262388   3.205   0.620  14.506  1.1357 -0.8451 -0.2114
13633TIP3   OH262389   3.634   3.469  15.408 -0.5609  0.2768 -0.7417
13633TIP3    H162390   3.575   3.491  15.480  0.2514 -0.3831  0.1414
13633TIP3    H262391   3.617   3.377  15.390 -0.8903  0.4894 -1.5171
13634TIP3   OH262392   1.168   5.661  12.286 -0.0328 -0.0039  0.1021
13634TIP3    H162393   1.156   5.661  12.381 -0.6324  0.5812  0.0285
13634TIP3    H262394   1.097   5.606  12.254 -1.2271  1.6460 -0.1666
13635TIP3   OH262395   0.430   5.058  15.554 -0.0864 -0.7882  0.9799
13635TIP3    H162396   0.350   5.017  15.587 -2.3172  3.0961  0.6664
13635TIP3    H262397   0.416   5.066  15.460  0.3193  0.6134  1.0302
13636TIP3   OH262398   3.966   3.624  17.047 -0.2589 -0.2184  0.1324
13636TIP3    H162399   3.877   3.613  17.015 -0.0729 -0.5123 -0.2918
13636TIP3    H262400   4.019   3.632  16.967  0.2057 -0.9194  0.3733
13637TIP3   OH262401   4.114   0.819  16.996  0.3041 -0.2283 -0.2743
13637TIP3    H162402   4.019   0.806  16.990 -0.2007  2.3177  1.3160
13637TIP3    H262403   4.136   0.794  17.085  0.9839  0.1076 -0.3461
13638TIP3   OH262404   0.227   0.611   3.578 -0.2667 -0.3456  0.4671
13638TIP3    H162405   0.278   0.550   3.524  1.0488 -0.1385  1.4558
13638TIP3    H262406   0.185   0.670   3.515  3.8939  2.0071 -0.2724
13639TIP3   OH262407   0.644   4.071  11.243 -0.4773 -0.3729  0.6436
13639TIP3    H162408   0.710   4.028  11.188  0.8998  3.1530 -0.5907
13639TIP3    H262409   0.607   4.000  11.296  2.9828 -2.7553  0.0371
13640TIP3   OH262410   3.701   0.975   1.549  0.1076  0.1803  0.5549
13640TIP3    H162411   3.782   0.925   1.549  1.1249  1.7227  2.7947
13640TIP3    H262412   3.680   0.987   1.457  2.3888 -0.3201 -0.0593
13641TIP3   OH262413   5.828   3.008  13.351  0.2749 -0.1824 -0.4155
13641TIP3    H162414   5.771   2.975  13.282  0.5173 -1.1842 -0.1606
13641TIP3    H262415   5.861   3.091  13.318 -2.2776  1.0136 -0.0481
13642TIP3   OH262416   3.655   2.885   1.919  0.1522  0.1599  0.9264
13642TIP3    H162417   3.564   2.867   1.943 -0.3088  1.4000  0.1351
13642TIP3    H262418   3.694   2.921   1.998 -0.1885  0.1613  1.0959
13643TIP3   OH262419   1.140   1.111  11.843  0.0921  0.1647  0.2026
13643TIP3    H162420   1.204   1.098  11.913 -0.6252  0.6746  0.9662
13643TIP3    H262421   1.181   1.177  11.786  0.7529 -0.3794  0.0483
13644TIP3   OH262422   1.454   6.774  14.016 -0.6626  0.3216 -0.2362
13644TIP3    H162423   1.441   6.866  14.038  2.9457  0.8238  0.1370
13644TIP3    H262424   1.534   6.773  13.963 -0.3926 -2.6336  0.1413
13645TIP3   OH262425   2.881   6.094   2.690 -0.7444 -0.1883  0.9377
13645TIP3    H162426   2.827   6.047   2.627  1.3961 -0.5797 -0.6523
13645TIP3    H262427   2.969   6.059   2.677  0.0843  1.0876  2.8499
13646TIP3   OH262428   2.885   4.615   0.233 -0.7113  0.0614 -0.5297
13646TIP3    H162429   2.937   4.680   0.281 -0.8329  0.1184 -0.4752
13646TIP3    H262430   2.826   4.666   0.179 -2.4287  0.0107  1.2516
13647TIP3   OH262431   3.701   2.873   2.578 -0.1543  0.1028  0.4329
13647TIP3    H162432   3.775   2.929   2.600  0.3971  0.0127 -1.1790
13647TIP3    H262433   3.662   2.851   2.663  0.4252  1.8212  1.1685
13648TIP3   OH262434   5.086   1.073   3.762 -0.3044 -0.2056  0.4932
13648TIP3    H162435   5.021   1.143   3.758 -0.8671 -0.6950  0.9314
13648TIP3    H262436   5.075   1.025   3.680  1.2450  1.2191 -0.5914
13649TIP3   OH262437   3.947   4.707   2.330  0.6644  0.0018  0.4370
13649TIP3    H162438   4.032   4.739   2.361  1.7240 -1.0398 -1.3068
13649TIP3    H262439   3.954   4.710   2.235 -0.3294 -2.4841  0.2552
13650TIP3   OH262440   6.814   6.793  11.161 -0.0185  0.3804 -0.4512
13650TIP3    H162441   6.852   6.879  11.177 -2.2744  1.6224 -1.4961
13650TIP3    H262442   6.882   6.745  11.113  1.8369  1.0263  1.4806
13651TIP3   OH262443   6.710   4.264   2.976  0.0967 -0.4313  1.0748
13651TIP3    H162444   6.650   4.301   3.041 -0.7607 -1.1165  0.6843
13651TIP3    H262445   6.796   4.265   3.019 -0.4897 -1.0554  2.2903
13652TIP3   OH262446   0.673   2.786   2.090 -0.0916 -0.3865 -0.4514
13652TIP3    H162447   0.716   2.866   2.058  0.2492 -0.1030  0.7107
13652TIP3    H262448   0.579   2.808   2.090 -0.0915 -0.3676 -1.1928
13653TIP3   OH262449   6.323   0.676   5.408  0.0346 -0.6157  0.9591
13653TIP3    H162450   6.394   0.661   5.471  1.7084 -0.5223 -0.8379
13653TIP3    H262451   6.327   0.599   5.350 -0.2404  0.1985 -0.1481
13654TIP3   OH262452   4.544   1.186  13.418 -0.2081 -0.1154  0.5197
13654TIP3    H162453   4.564   1.127  13.346 -0.6760  0.0613  0.2381
13654TIP3    H262454   4.600   1.157  13.490 -0.2200 -0.7132  0.2909
13655TIP3   OH262455   4.607   5.221  13.719 -0.2321 -0.0024  0.3965
13655TIP3    H162456   4.603   5.250  13.628 -0.3952 -2.0313 -0.2638
13655TIP3    H262457   4.560   5.138  13.720 -1.7438  0.8285  2.6825
13656TIP3   OH262458   4.032   4.585  15.298 -0.0447 -0.2029  0.2907
13656TIP3    H162459   4.079   4.508  15.332  0.3313 -0.5653 -1.0402
13656TIP3    H262460   3.940   4.568  15.320  0.0265 -1.0732 -0.0734
13657TIP3   OH262461   5.843   1.379   4.231  0.0753  0.5348  0.0904
13657TIP3    H162462   5.899   1.427   4.293 -1.1618 -0.4384  2.0159
13657TIP3    H262463   5.856   1.287   4.254 -1.5648  0.2471 -0.0693
13658TIP3   OH262464   0.014   4.801  12.649  0.0334 -0.2244  0.1775
13658TIP3    H162465   0.069   4.776  12.723 -0.3844  1.2209  0.9832
13658TIP3    H262466  -0.074   4.809  12.686 -0.2785 -0.0400 -0.5921
13659TIP3   OH262467   1.716   3.012  16.063 -0.0797  0.0982 -0.2951
13659TIP3    H162468   1.660   2.940  16.092  0.1242 -0.1035 -0.3950
13659TIP3    H262469   1.668   3.091  16.085  0.1834 -0.0509  0.8243
13660TIP3   OH262470   2.864   2.574  10.831 -0.0054 -0.4690  0.1205
13660TIP3    H162471   2.906   2.511  10.891 -1.0217 -0.5686  0.7279
13660TIP3    H262472   2.919   2.571  10.753  0.8254 -1.0037  0.7092
13661TIP3   OH262473   4.399   1.649   0.270  0.0792 -0.4198  0.0904
13661TIP3    H162474   4.380   1.730   0.317  1.5484  0.4576 -0.7896
13661TIP3    H262475   4.360   1.580   0.324 -1.2736  0.8802  0.7852
13662TIP3   OH262476   0.748   6.810  14.815 -0.4654 -0.3836 -0.1474
13662TIP3    H162477   0.839   6.784  14.796 -0.6522 -1.7511  0.7123
13662TIP3    H262478   0.755   6.865  14.893 -0.3923 -0.7542  0.1120
13663TIP3   OH262479   2.448   0.799  17.207  0.1121 -0.0018  0.4929
13663TIP3    H162480   2.444   0.894  17.217 -0.5993  0.0577 -0.2735
13663TIP3    H262481   2.473   0.767  17.293  0.5676  0.8929  0.7046
13664TIP3   OH262482   5.273   6.292  13.480  0.3328  1.0406  0.5402
13664TIP3    H162483   5.182   6.322  13.487  0.5588  1.8623  0.0726
13664TIP3    H262484   5.266   6.199  13.457 -0.4015  1.5054 -1.2103
13665TIP3   OH262485   0.774   5.402   4.610  0.5924  0.1071  0.0097
13665TIP3    H162486   0.840   5.455   4.566  1.9068  0.7240  2.6517
13665TIP3    H262487   0.695   5.457   4.609  0.6051  0.1190 -1.5168
13666TIP3   OH262488   5.179   3.552   3.460 -0.2286 -0.2322 -0.0762
13666TIP3    H162489   5.222   3.592   3.385  0.7776 -0.7216  0.2320
13666TIP3    H262490   5.185   3.458   3.444 -1.3151 -0.3004 -0.0997
13667TIP3   OH262491   6.421   2.483   0.416  0.7710 -0.0573 -0.1655
13667TIP3    H162492   6.361   2.460   0.488  1.2125 -1.3081 -0.1735
13667TIP3    H262493   6.384   2.440   0.339  0.6465  0.7537 -0.5643
13668TIP3   OH262494   2.536   2.253   2.466 -0.2610  0.2253 -1.1006
13668TIP3    H162495   2.478   2.323   2.496 -1.0665 -1.0410  0.3843
13668TIP3    H262496   2.478   2.191   2.422  0.2556 -0.1358 -1.2753
13669TIP3   OH262497   4.899   4.216  11.720 -0.5789 -0.3129  0.3015
13669TIP3    H162498   4.910   4.189  11.628 -1.3109  0.0846  0.0923
13669TIP3    H262499   4.818   4.266  11.720 -0.0817  0.4984  0.9966
13670TIP3   OH262500   3.697   2.900  15.721 -0.4901 -0.1221  0.0930
13670TIP3    H162501   3.647   2.946  15.653  0.2448 -1.0325 -1.0858
13670TIP3    H262502   3.780   2.878  15.678 -0.9814 -2.8803  0.4937
13671TIP3   OH262503   4.477   6.411  14.658 -0.0466 -0.6175 -0.2829
13671TIP3    H162504   4.512   6.373  14.577 -2.7981  0.3395 -1.9959
13671TIP3    H262505   4.418   6.345  14.693  0.2411 -0.5534  0.3413
13672TIP3   OH262506   1.163   2.077   5.725  0.8687 -0.4685  0.3012
13672TIP3    H162507   1.193   2.003   5.672  2.2390  1.1932 -1.3411
13672TIP3    H262508   1.243   2.123   5.750 -0.0266  1.5284 -0.3492
13673TIP3   OH262509   2.534   5.479  12.946 -0.1952  0.1074  0.1168
13673TIP3    H162510   2.464   5.460  13.008 -0.5531  0.2190 -0.2539
13673TIP3    H262511   2.589   5.544  12.991 -1.6195  1.7926 -0.4978
13674TIP3   OH262512   0.605   5.871   1.002 -0.0186  1.0127  0.1373
13674TIP3    H162513   0.516   5.885   0.970  0.2471  2.0974 -0.1387
13674TIP3    H262514   0.616   5.937   1.071  0.9777  1.6731 -0.6387
13675TIP3   OH262515   2.805   4.884   5.178 -0.3322  0.0262  0.2804
13675TIP3    H162516   2.822   4.796   5.145 -0.0876  0.3571 -0.4998
13675TIP3    H262517   2.882   4.906   5.231 -0.7801 -0.5556  1.1736
13676TIP3   OH262518   2.607   4.627  16.715  0.3343 -0.0543  0.5726
13676TIP3    H162519   2.598   4.548  16.769  0.1844  1.0908  2.2767
13676TIP3    H262520   2.679   4.675  16.755  0.1455  0.8639 -0.1863
13677TIP3   OH262521   1.696   2.483   3.246  0.6698 -0.0665 -0.1459
13677TIP3    H162522   1.755   2.455   3.316  1.1973 -0.7046 -0.8387
13677TIP3    H262523   1.687   2.578   3.259  0.8414 -0.1711  0.7285
13678TIP3   OH262524   4.624   5.215   2.482  0.5501  0.4513  0.1380
13678TIP3    H162525   4.538   5.256   2.491  2.1986  3.7148  1.8049
13678TIP3    H262526   4.661   5.254   2.403  1.7503  1.4455  1.1819
13679TIP3   OH262527   6.660   3.945  10.826  0.3226 -0.0248  0.3686
13679TIP3    H162528   6.586   4.002  10.810 -0.5334 -1.7117 -1.8750
13679TIP3    H262529   6.625   3.856  10.813  2.5510 -0.8693 -0.0415
13680TIP3   OH262530   5.343   5.308  13.913 -0.5129  0.6427 -0.8721
13680TIP3    H162531   5.297   5.320  13.830 -1.1402  2.3438 -0.3007
13680TIP3    H262532   5.273   5.302  13.978 -0.1366 -2.9777 -0.6633
13681TIP3   OH262533   3.502   4.145  11.190 -0.5028  0.2333 -0.0244
13681TIP3    H162534   3.502   4.152  11.094 -0.1541  0.7265  0.0098
13681TIP3    H262535   3.594   4.153  11.214 -0.4896 -0.8168  0.2902
13682TIP3   OH262536   0.460   6.472   6.308 -0.4029 -0.0673  0.5709
13682TIP3    H162537   0.553   6.457   6.323 -0.0427 -0.3066 -1.7370
13682TIP3    H262538   0.417   6.395   6.345  0.6890 -2.1405 -2.2851
13683TIP3   OH262539   4.016   2.451   4.002  0.3923  0.1909 -0.1087
13683TIP3    H162540   4.007   2.386   3.932  0.4799  1.3261 -1.1821
13683TIP3    H262541   4.110   2.467   4.008  0.3365  0.5314 -0.1338
13684TIP3   OH262542   4.225   3.742  15.454 -0.9358  0.1451 -0.1506
13684TIP3    H162543   4.248   3.833  15.473 -0.4989  0.0836 -0.3913
13684TIP3    H262544   4.143   3.728  15.503  0.5305 -0.2357  2.2518
13685TIP3   OH262545   3.562   1.067   0.354  0.0478 -0.5000  0.7436
13685TIP3    H162546   3.641   1.117   0.332 -0.2187  0.0197  0.9433
13685TIP3    H262547   3.549   1.084   0.447 -1.8985  1.7399  0.1092
13686TIP3   OH262548   1.098   6.445  15.847 -0.1174 -0.2574  0.5555
13686TIP3    H162549   1.047   6.416  15.922 -0.2384 -2.6027 -0.3998
13686TIP3    H262550   1.033   6.469  15.781 -0.0027  0.5028  0.7170
13687TIP3   OH262551   1.429   6.100   1.105 -0.2936  0.3269 -0.4297
13687TIP3    H162552   1.343   6.105   1.147 -0.0890  1.2881 -0.1193
13687TIP3    H262553   1.462   6.013   1.129 -0.7820  0.3119  0.2108
13688TIP3   OH262554   3.523   1.347  16.673 -0.9111 -0.2030  0.1734
13688TIP3    H162555   3.450   1.317  16.728 -1.6802 -2.3078 -1.9318
13688TIP3    H262556   3.525   1.442  16.686 -1.1070 -0.6315  3.7383
13689TIP3   OH262557   5.095   3.285   3.350  0.2953  0.7148  0.2897
13689TIP3    H162558   5.054   3.273   3.264 -0.6362  0.9996  0.6971
13689TIP3    H262559   5.182   3.245   3.340 -1.7683 -4.2135  0.8128
13690TIP3   OH262560   3.212   5.596   5.306  0.0174  0.1197 -0.2512
13690TIP3    H162561   3.210   5.544   5.225  1.6563  0.8148 -0.7663
13690TIP3    H262562   3.235   5.684   5.276 -3.0807  1.2914  0.5603
13691TIP3   OH262563   1.138   3.497  14.050  0.5250 -0.3596  0.4388
13691TIP3    H162564   1.223   3.540  14.060  0.1875  0.9027 -1.8080
13691TIP3    H262565   1.127   3.488  13.955 -2.9331  1.7868  0.5516
13692TIP3   OH262566   6.001   3.590   0.551  0.0289 -0.2584 -0.2215
13692TIP3    H162567   6.076   3.550   0.507  0.3225  0.6742 -0.5658
13692TIP3    H262568   5.995   3.543   0.635 -0.2533 -1.7291 -1.0417
13693TIP3   OH262569   5.382   1.233   1.909  0.4372 -0.2639  0.1298
13693TIP3    H162570   5.325   1.193   1.975  0.0053 -2.4829 -1.5139
13693TIP3    H262571   5.339   1.315   1.885 -0.2291 -0.2271  1.4475
13694TIP3   OH262572   1.467   2.943  16.225 -0.3015 -0.1321 -0.5428
13694TIP3    H162573   1.424   2.879  16.282 -0.9720  0.5142 -0.3028
13694TIP3    H262574   1.399   2.968  16.162 -0.2855  0.9129 -0.1560
13695TIP3   OH262575   1.241   0.996  12.088  0.3961  0.1314  0.2492
13695TIP3    H162576   1.203   0.932  12.149  1.4595 -2.3113 -1.5617
13695TIP3    H262577   1.336   0.983  12.095  0.5301 -0.7575 -2.4230
13696TIP3   OH262578   5.235   5.011  14.857 -0.2103 -0.0690 -0.5158
13696TIP3    H162579   5.158   4.967  14.822 -0.9010  0.7471 -0.0143
13696TIP3    H262580   5.239   5.095  14.812  0.0530  0.1369 -0.1175
13697TIP3   OH262581   4.742   2.810   3.757 -0.4981 -0.1443  0.1644
13697TIP3    H162582   4.717   2.746   3.691 -2.5412  3.3458 -2.5845
13697TIP3    H262583   4.677   2.801   3.826 -1.5290 -0.1277 -0.8064
13698TIP3   OH262584   1.691   0.588  15.691  0.5657 -0.1770  0.3119
13698TIP3    H162585   1.755   0.520  15.672  1.4393  0.9393 -0.8683
13698TIP3    H262586   1.742   0.658  15.733  0.1183  0.7008 -0.5876
13699TIP3   OH262587   3.937   1.870  14.766 -0.1106 -0.5258  0.0188
13699TIP3    H162588   4.016   1.871  14.712 -0.5740 -2.4324 -0.7557
13699TIP3    H262589   3.963   1.827  14.847 -0.5316 -1.9626 -0.5843
13700TIP3   OH262590   4.005   2.273  11.611  0.1124 -0.2957  0.1727
13700TIP3    H162591   4.044   2.192  11.646 -0.0341  0.0679  1.2157
13700TIP3    H262592   4.078   2.319  11.570  0.0528 -1.3003 -1.1077
13701TIP3   OH262593   3.702   5.294  10.855 -0.0423 -0.1544  0.3779
13701TIP3    H162594   3.619   5.340  10.868  1.2841  1.3869  4.0163
13701TIP3    H262595   3.684   5.204  10.880 -0.6631  0.1513  1.0357
13702TIP3   OH262596   2.457   2.156   5.670  0.3832 -0.5132 -0.0394
13702TIP3    H162597   2.374   2.134   5.629  0.8173 -1.5733 -0.3601
13702TIP3    H262598   2.435   2.176   5.761 -0.2629 -0.4551 -0.2107
13703TIP3   OH262599   3.691   5.546  14.919  0.0596  0.2470  0.4423
13703TIP3    H162600   3.636   5.608  14.871  0.6266  1.3143  1.1360
13703TIP3    H262601   3.699   5.585  15.007 -0.8906 -1.6180  1.3860
13704TIP3   OH262602   6.685   1.165   5.729  0.3961  0.2396  0.0462
13704TIP3    H162603   6.672   1.153   5.635  0.7653  1.5879 -0.1850
13704TIP3    H262604   6.632   1.096   5.769  1.1000 -1.0354 -1.1744
13705TIP3   OH262605   1.110   5.920  11.742 -0.2782 -0.4964 -0.2658
13705TIP3    H162606   1.124   5.900  11.649 -1.6556 -0.1690 -0.5535
13705TIP3    H262607   1.025   5.881  11.762  0.2539 -1.0211  1.0077
13706TIP3   OH262608   4.641   3.570   0.914 -0.2711  0.4171  0.4724
13706TIP3    H162609   4.663   3.496   0.859  0.0562 -0.7446  2.1157
13706TIP3    H262610   4.587   3.627   0.859  1.5907  0.2106 -1.6042
13707TIP3   OH262611   6.716   5.606   1.054  0.6005 -0.2308 -0.8239
13707TIP3    H162612   6.738   5.575   1.142  1.2903 -0.2229 -0.9895
13707TIP3    H262613   6.660   5.537   1.017 -1.5677  0.8116  0.4372
13708TIP3   OH262614   0.222   2.812   4.534 -0.5151 -0.6116  0.0346
13708TIP3    H162615   0.177   2.863   4.467 -1.5501  0.7206  1.6892
13708TIP3    H262616   0.313   2.810   4.505 -1.0807 -0.7544 -1.8100
13709TIP3   OH262617   6.196   0.559  13.738 -0.0703 -0.1418  0.6050
13709TIP3    H162618   6.288   0.568  13.764 -0.0292  2.7559 -0.4262
13709TIP3    H262619   6.199   0.535  13.646 -0.3444  0.9689  0.3019
13710TIP3   OH262620   3.221   5.041  14.743 -0.1502  0.7920  0.0024
13710TIP3    H162621   3.164   4.974  14.780 -0.5561  0.3361 -1.3841
13710TIP3    H262622   3.249   5.094  14.817  1.4183 -1.8352  1.3431
13711TIP3   OH262623   4.378   3.703  11.316 -0.2072 -0.3297  0.0179
13711TIP3    H162624   4.445   3.662  11.262  0.0852 -0.5881  0.5658
13711TIP3    H262625   4.331   3.629  11.355 -1.1091 -0.1494 -0.7310
13712TIP3   OH262626   2.149   5.075   6.069 -0.2057  0.1945  0.4320
13712TIP3    H162627   2.133   5.151   6.124 -1.0510 -0.4103  1.0267
13712TIP3    H262628   2.196   5.014   6.126  2.7797  1.2597 -0.7743
13713TIP3   OH262629   2.631   5.620  12.727  0.0606  0.5968 -0.1045
13713TIP3    H162630   2.576   5.583  12.796 -1.7703  0.8373 -1.4005
13713TIP3    H262631   2.575   5.684  12.683  1.5148  1.1336 -1.2231
13714TIP3   OH262632   5.516   3.971  15.089 -0.4707 -0.1497  0.7677
13714TIP3    H162633   5.574   3.939  15.157  1.0977 -0.0264 -0.4810
13714TIP3    H262634   5.461   3.897  15.067  1.0104 -1.0747  0.1090
13715TIP3   OH262635   6.296   3.132   2.219 -0.0410 -0.5745  0.1140
13715TIP3    H162636   6.361   3.080   2.267  0.5989 -0.5280 -0.6770
13715TIP3    H262637   6.237   3.067   2.180  0.5452 -0.7018 -0.5755
13716TIP3   OH262638   1.021   1.339   4.865 -0.3714 -0.5249 -0.4976
13716TIP3    H162639   1.006   1.264   4.807  2.0425 -1.5855  0.1718
13716TIP3    H262640   1.017   1.302   4.953 -1.7596  0.6569 -0.0402
13717TIP3   OH262641   1.245   4.755  11.822  0.1418  0.0786 -0.6282
13717TIP3    H162642   1.206   4.755  11.734 -1.9686 -1.3443  0.2702
13717TIP3    H262643   1.208   4.832  11.865 -0.4087 -0.3615 -0.3134
13718TIP3   OH262644   1.840   1.435  12.238  0.0290 -0.2275  0.4308
13718TIP3    H162645   1.850   1.433  12.143  1.4549  0.1253  0.5534
13718TIP3    H262646   1.748   1.458  12.253 -0.0539  0.2925 -0.8621
13719TIP3   OH262647   6.411   3.646  12.282 -0.3679  0.1298  0.3380
13719TIP3    H162648   6.448   3.734  12.278  0.2139 -0.1758 -1.5938
13719TIP3    H262649   6.481   3.593  12.322 -0.5916  0.4565  1.1860
13720TIP3   OH262650   3.544   4.796  16.610  0.4306 -0.2657 -0.2243
13720TIP3    H162651   3.479   4.751  16.557  1.0151  1.3146 -2.3727
13720TIP3    H262652   3.493   4.851  16.670 -0.2345  0.9306 -1.8599
13721TIP3   OH262653   0.565   3.430   3.123 -0.5038 -0.2296  0.4698
13721TIP3    H162654   0.641   3.444   3.065  0.0282  1.1473  1.4887
13721TIP3    H262655   0.550   3.336   3.118  1.1700 -0.5102  0.1104
13722TIP3   OH262656   0.732   1.699   4.244  0.4248 -0.0432 -0.4626
13722TIP3    H162657   0.758   1.634   4.179  2.2590  0.4031 -0.2036
13722TIP3    H262658   0.675   1.651   4.305  0.4790 -0.9954 -1.1578
13723TIP3   OH262659   1.623   6.786  14.393 -0.0901  0.0530  0.0008
13723TIP3    H162660   1.710   6.768  14.427  0.0481  1.7095  0.5291
13723TIP3    H262661   1.635   6.859  14.332 -0.9594 -0.3498 -0.6740
13724TIP3   OH262662   3.566   4.103   2.579 -0.1304 -0.6044 -0.3590
13724TIP3    H162663   3.620   4.040   2.531 -0.0071 -0.7303 -0.0550
13724TIP3    H262664   3.523   4.155   2.510 -1.8637 -2.3691 -0.6230
13725TIP3   OH262665   5.061   5.989   5.767 -0.0774  0.3406 -0.0872
13725TIP3    H162666   5.007   5.994   5.845  0.5167  0.9632  0.2895
13725TIP3    H262667   5.121   6.064   5.774  1.8984 -1.2163  0.3305
13726TIP3   OH262668   1.565   2.777   0.753  0.1458 -0.0390 -0.6763
13726TIP3    H162669   1.585   2.862   0.714  1.7252 -0.3283 -0.5609
13726TIP3    H262670   1.498   2.795   0.819 -0.8872  0.8041 -1.9420
13727TIP3   OH262671   4.389   2.291  17.245 -0.4378 -0.6608  0.9786
13727TIP3    H162672   4.464   2.338  17.281  0.5539 -1.2860 -0.2257
13727TIP3    H262673   4.421   2.201  17.231 -0.7104 -0.4244 -1.5570
13728TIP3   OH262674   1.580   0.825   1.562 -0.1965  0.4949 -0.3739
13728TIP3    H162675   1.634   0.901   1.584 -0.8355  1.2432 -1.3566
13728TIP3    H262676   1.527   0.854   1.488 -2.9204  0.1988  1.4161
13729TIP3   OH262677   1.797   6.070   3.989  0.2274 -0.1763 -0.1271
13729TIP3    H162678   1.860   6.015   4.035 -0.0874 -0.7391 -0.3677
13729TIP3    H262679   1.725   6.011   3.967 -0.1131  0.3315 -0.3841
13730TIP3   OH262680   0.975   6.501  11.178  0.5429  0.1492 -0.0907
13730TIP3    H162681   0.995   6.590  11.149  0.6384  0.0672 -0.2772
13730TIP3    H262682   1.035   6.486  11.252 -0.4611  0.7605  0.8702
13731TIP3   OH262683   2.355   5.458   2.209 -0.6821 -0.9635  0.6824
13731TIP3    H162684   2.345   5.455   2.304 -2.0328 -0.8602  0.5488
13731TIP3    H262685   2.415   5.386   2.189  1.4799  0.4435  1.8295
13732TIP3   OH262686   0.076   6.576   4.132  0.5893  0.2223 -0.1024
13732TIP3    H162687   0.087   6.576   4.037  0.6533  0.1791 -0.0957
13732TIP3    H262688  -0.007   6.621   4.147  0.9954  0.9855 -0.1341
13733TIP3   OH262689   2.426   4.697  11.707  0.1278  0.5226 -1.0196
13733TIP3    H162690   2.418   4.612  11.664 -1.3569  1.0149 -1.7090
13733TIP3    H262691   2.504   4.687  11.763  0.6119 -0.9198 -1.9123
13734TIP3   OH262692   1.967   0.559   2.596  0.3526 -0.4291  0.5310
13734TIP3    H162693   1.911   0.482   2.605 -0.4026 -0.0023 -0.3139
13734TIP3    H262694   2.036   0.547   2.660 -0.5590 -1.1185  1.3982
13735TIP3   OH262695   1.372   0.418  14.885  0.0096 -0.2247 -0.9723
13735TIP3    H162696   1.455   0.373  14.869  0.3875 -0.3688  1.2192
13735TIP3    H262697   1.393   0.511  14.874  1.2531 -0.0201  2.5111
13736TIP3   OH262698   4.239   5.776   5.079  0.1604  0.1982  0.1596
13736TIP3    H162699   4.280   5.690   5.079 -0.5878 -0.1788 -1.4996
13736TIP3    H262700   4.300   5.832   5.128  1.5747 -0.8499 -0.3848
13737TIP3   OH262701   2.666   4.190   2.875  0.2227  0.2039  0.5165
13737TIP3    H162702   2.728   4.211   2.805 -0.0682  0.2846  0.2807
13737TIP3    H262703   2.719   4.148   2.943  0.5682  0.4616  0.4032
13738TIP3   OH262704   6.743   6.799   3.458 -0.1836 -0.2416 -0.6260
13738TIP3    H162705   6.705   6.873   3.505 -0.2350 -1.6849  1.6583
13738TIP3    H262706   6.836   6.802   3.480  0.4057  0.9324 -3.0328
13739TIP3   OH262707   6.551   5.361  13.277  0.0383  0.2932 -0.5979
13739TIP3    H162708   6.545   5.272  13.312 -1.2004  0.2165 -0.9883
13739TIP3    H262709   6.576   5.349  13.185  0.3805  0.3832 -0.5213
13740TIP3   OH262710   3.639   4.804  15.325  0.4049  0.1718  0.0447
13740TIP3    H162711   3.625   4.711  15.342  0.9581  0.4139  1.8842
13740TIP3    H262712   3.553   4.844  15.340  0.5784  0.2003  0.9402
13741TIP3   OH262713   2.025   2.164  16.776  0.3271  1.0329 -0.5888
13741TIP3    H162714   2.034   2.102  16.703 -0.9735  0.2883 -0.1272
13741TIP3    H262715   2.077   2.126  16.846  1.7726  1.8682 -1.1839
13742TIP3   OH262716   3.316   5.649  13.024 -0.4462  0.2823 -0.1708
13742TIP3    H162717   3.293   5.633  12.932  0.6802 -0.1819 -0.3753
13742TIP3    H262718   3.308   5.564  13.066 -0.2595  0.3511  0.0055
13743TIP3   OH262719   3.201   0.132   1.662  0.4869  0.1877 -0.7010
13743TIP3    H162720   3.123   0.079   1.673 -0.7911  1.9696 -0.9934
13743TIP3    H262721   3.169   0.222   1.651  2.5976  1.1211  0.2769
13744TIP3   OH262722   0.650   4.003  11.715  0.1793 -0.2700  0.2633
13744TIP3    H162723   0.577   3.970  11.662 -1.9185  1.0409  2.1925
13744TIP3    H262724   0.685   4.076  11.664  0.6482 -1.3957 -1.0391
13745TIP3   OH262725   2.432   4.310   2.371  0.2769  0.2888  0.3560
13745TIP3    H162726   2.354   4.365   2.382 -0.0230  0.0180 -0.4135
13745TIP3    H262727   2.426   4.246   2.442 -0.5491 -0.1388 -0.0869
13746TIP3   OH262728   4.747   0.057   2.794 -0.0361  0.3308  0.8020
13746TIP3    H162729   4.708   0.089   2.713 -0.1292 -0.2609  0.6081
13746TIP3    H262730   4.678   0.005   2.835  1.2101 -2.5789 -0.6202
13747TIP3   OH262731   5.314   2.058  13.067 -0.1865 -0.1647  1.0095
13747TIP3    H162732   5.370   1.983  13.046  0.1332  0.3343  0.0638
13747TIP3    H262733   5.297   2.048  13.161  1.3354 -0.4361  1.2825
13748TIP3   OH262734   2.901   0.753  17.035  0.5715 -0.3822 -0.1158
13748TIP3    H162735   2.848   0.763  17.114  1.2209 -0.2057  0.3001
13748TIP3    H262736   2.962   0.827  17.038  0.4489 -0.2448 -0.8987
13749TIP3   OH262737   6.105   6.351  15.239  0.4028  0.1482  0.0757
13749TIP3    H162738   6.184   6.388  15.280  0.2450  2.9917 -2.0282
13749TIP3    H262739   6.044   6.424  15.234 -2.2804 -1.9187  1.2778
13750TIP3   OH262740   0.589   1.551  11.882 -0.4345  0.8562  0.0674
13750TIP3    H162741   0.616   1.521  11.795 -1.8388  0.8204 -0.3702
13750TIP3    H262742   0.631   1.636  11.892  1.4966 -0.0900  0.2603
13751TIP3   OH262743   0.402   0.722   0.357  0.1937  0.6103 -0.0937
13751TIP3    H162744   0.415   0.725   0.263 -2.2440  0.9096 -0.4371
13751TIP3    H262745   0.363   0.807   0.379 -4.2944 -1.4186  0.3402
13752TIP3   OH262746   1.456   3.567  12.278  0.0845 -0.0857  0.2607
13752TIP3    H162747   1.523   3.499  12.271  1.3412  1.0722  0.7910
13752TIP3    H262748   1.385   3.527  12.329  0.8461 -0.9693  0.6302
13753TIP3   OH262749   2.947   1.656   2.517  0.0353  0.3113 -0.1963
13753TIP3    H162750   2.925   1.740   2.558  1.5479 -0.2058  1.7670
13753TIP3    H262751   3.043   1.651   2.525  0.2547 -0.3142 -2.8520
13754TIP3   OH262752   0.222   1.071  16.169  0.4821  0.3616 -0.1735
13754TIP3    H162753   0.143   1.019  16.179  0.2338  1.1006  1.9032
13754TIP3    H262754   0.193   1.150  16.123  0.4672 -0.3593 -1.4355
13755TIP3   OH262755   0.203   2.339  14.207 -0.6218  0.2976 -0.4480
13755TIP3    H162756   0.138   2.294  14.154 -0.6900  0.8025 -0.7879
13755TIP3    H262757   0.285   2.294  14.187 -0.8742 -0.3765  0.0270
13756TIP3   OH262758   0.919   5.342  15.863 -0.0995  0.1155 -0.3623
13756TIP3    H162759   1.001   5.297  15.841 -0.9684 -0.4768 -2.4405
13756TIP3    H262760   0.886   5.295  15.939  0.7561 -0.5640 -0.3968
13757TIP3   OH262761   3.121   5.782   4.820 -0.1820 -0.3299  0.0135
13757TIP3    H162762   3.134   5.876   4.805 -1.0192 -0.1477  0.3709
13757TIP3    H262763   3.079   5.751   4.740  2.7896 -1.0137 -1.3374
13758TIP3   OH262764   5.475   4.663  14.347 -0.4822 -0.2142  0.1736
13758TIP3    H162765   5.569   4.658  14.365  0.0522 -0.3149 -2.4320
13758TIP3    H262766   5.463   4.750  14.310 -1.4529 -0.1410  0.6624
13759TIP3   OH262767   1.224   5.698  11.533 -0.1104 -0.6659  0.1997
13759TIP3    H162768   1.229   5.604  11.516  0.4653 -0.3574 -1.4061
13759TIP3    H262769   1.314   5.724  11.553 -0.0953 -0.2641 -0.3931
13760TIP3   OH262770   5.983   5.574   4.804 -0.2205  0.4839 -0.0471
13760TIP3    H162771   6.073   5.576   4.773 -0.0402  1.4883  0.5194
13760TIP3    H262772   5.943   5.501   4.757  0.9610 -0.1470 -0.0921
13761TIP3   OH262773   5.939   3.577  15.666  0.4038  0.1798  0.0096
13761TIP3    H162774   6.000   3.625  15.722 -0.7031  4.5070 -2.2880
13761TIP3    H262775   5.994   3.544  15.595  0.8309 -0.2199  0.5135
13762TIP3   OH262776   3.689   2.629  16.232 -0.8914 -0.3604 -0.1624
13762TIP3    H162777   3.693   2.590  16.145 -1.2569  1.0801 -0.8321
13762TIP3    H262778   3.754   2.581  16.283  0.3730 -0.2309 -1.6300
13763TIP3   OH262779   1.942   6.066  15.977  0.3033 -0.0431 -0.2328
13763TIP3    H162780   1.859   6.033  15.943 -0.1176 -0.6278  1.3404
13763TIP3    H262781   1.966   6.005  16.046  1.2078  1.0646  0.4486
13764TIP3   OH262782   4.561   3.549   4.231  0.5095 -0.1266 -0.0490
13764TIP3    H162783   4.526   3.502   4.307  1.0980 -1.3550 -0.5076
13764TIP3    H262784   4.485   3.570   4.177  0.3085 -1.3625 -0.2667
13765TIP3   OH262785   2.781   1.528   3.873  0.1538 -0.0552 -0.0508
13765TIP3    H162786   2.808   1.482   3.953 -0.5317 -2.4965 -1.1992
13765TIP3    H262787   2.864   1.554   3.832  0.5442 -0.4132  0.4960
13766TIP3   OH262788   0.536   6.556  11.416  0.4769 -0.4100 -0.7532
13766TIP3    H162789   0.587   6.514  11.347  0.9900 -0.4784 -0.3306
13766TIP3    H262790   0.476   6.614  11.369  1.9446  0.7829 -1.1822
13767TIP3   OH262791   5.988   0.034   2.766  0.2783 -0.6040  0.6225
13767TIP3    H162792   6.081   0.012   2.755  0.8127  1.3356  0.9391
13767TIP3    H262793   5.947   0.010   2.683  1.3653 -0.0975 -0.0795
13768TIP3   OH262794   3.015   2.668  13.406  0.8753  0.4092 -0.0779
13768TIP3    H162795   2.999   2.762  13.396 -0.5233  0.1313 -0.5232
13768TIP3    H262796   3.055   2.642  13.323 -0.5083  0.2537 -0.7131
13769TIP3   OH262797   2.657   6.514  16.850  0.2915  0.1538  0.2297
13769TIP3    H162798   2.666   6.607  16.828  2.5007  0.7632  3.2935
13769TIP3    H262799   2.564   6.501  16.866 -0.2158  1.5120 -1.4871
13770TIP3   OH262800   3.039   0.327  14.169 -0.2601 -0.0145 -0.3055
13770TIP3    H162801   3.061   0.276  14.091  0.3272 -0.0192 -0.1324
13770TIP3    H262802   3.067   0.273  14.242  0.4351  0.5846 -0.1218
13771TIP3   OH262803   0.230   2.988   0.125  0.3271  0.1854 -0.1802
13771TIP3    H162804   0.303   2.958   0.070  0.9482 -0.5193  1.0170
13771TIP3    H262805   0.194   3.063   0.077 -0.4945 -1.6907 -2.5921
13772TIP3   OH262806   3.287   4.492  14.243 -0.3239 -0.3581  0.5389
13772TIP3    H162807   3.320   4.437  14.315  0.3958  0.6100  0.9534
13772TIP3    H262808   3.318   4.580  14.264  0.0433 -0.0975 -1.0552
13773TIP3   OH262809   5.627   3.534  11.586  0.1520 -0.9585 -0.2284
13773TIP3    H162810   5.568   3.459  11.597 -1.9618  0.3857 -1.8400
13773TIP3    H262811   5.679   3.535  11.666 -0.9960 -3.0863  0.6136
13774TIP3   OH262812   3.458   5.169   2.798  0.1785  0.1266 -0.4381
13774TIP3    H162813   3.541   5.121   2.801  1.4625  2.1714 -2.1509
13774TIP3    H262814   3.471   5.243   2.858 -1.4398 -1.0438  1.4258
13775TIP3   OH262815   3.142   1.055   3.033 -0.1420  0.2408  0.1021
13775TIP3    H162816   3.139   0.989   3.102  0.9360  0.3605  0.2794
13775TIP3    H262817   3.051   1.069   3.008 -0.6823  1.3997  2.6322
13776TIP3   OH262818   0.688   3.807   2.914 -0.0934 -0.4931 -0.6664
13776TIP3    H162819   0.604   3.762   2.920  0.3749 -1.7942 -2.9065
13776TIP3    H262820   0.738   3.754   2.852  1.9393  0.9421 -0.2966
13777TIP3   OH262821   0.162   4.884  16.104 -0.1990  0.2648  0.4258
13777TIP3    H162822   0.207   4.915  16.025 -2.9848 -1.0647 -1.7527
13777TIP3    H262823   0.232   4.848  16.159  2.1277  3.4878 -0.2660
13778TIP3   OH262824   6.083   1.810   3.322  0.0207  0.3658  0.1468
13778TIP3    H162825   6.170   1.843   3.298  0.0888 -0.5729 -0.9847
13778TIP3    H262826   6.094   1.715   3.324 -0.7328  0.2934  1.0309
13779TIP3   OH262827   1.316   6.429  11.551 -0.1663  0.7165 -0.4295
13779TIP3    H162828   1.226   6.446  11.579 -0.3429 -1.0773  0.1816
13779TIP3    H262829   1.343   6.355  11.605  1.7569  1.3828 -0.4632
13780TIP3   OH262830   4.106   6.731   4.305 -0.1923  0.1533 -0.1893
13780TIP3    H162831   4.129   6.688   4.387  1.5104 -0.6087 -1.0301
13780TIP3    H262832   4.156   6.813   4.307 -1.8680  1.1685  0.5138
13781TIP3   OH262833   0.687   2.248   5.463 -0.4328  0.2275  0.3185
13781TIP3    H162834   0.607   2.242   5.515 -0.7991  1.0776 -0.1306
13781TIP3    H262835   0.746   2.301   5.517 -0.7419  0.9409 -0.0377
13782TIP3   OH262836   6.138   0.495   1.014 -0.3438 -0.4411  0.1096
13782TIP3    H162837   6.079   0.420   1.015  1.4660 -1.8789  0.8948
13782TIP3    H262838   6.190   0.484   0.935  0.2741 -0.2813  0.4916
13783TIP3   OH262839   2.732   5.867   2.047  0.3363  0.2005  0.1186
13783TIP3    H162840   2.821   5.850   2.016  1.1058 -0.4286  2.5817
13783TIP3    H262841   2.724   5.962   2.048  1.2742  0.2805  0.6132
13784TIP3   OH262842   3.550   1.984   5.927  0.1451 -0.5831  0.4547
13784TIP3    H162843   3.627   1.976   5.984  0.3520 -0.9491  0.1204
13784TIP3    H262844   3.483   1.931   5.969  0.1505 -0.4714  0.6075
13785TIP3   OH262845   4.803   3.502  17.185 -0.1045  0.1498 -0.0677
13785TIP3    H162846   4.829   3.594  17.187 -0.7675  0.3259  1.4364
13785TIP3    H262847   4.712   3.504  17.154 -0.4059  0.0872  0.7935
13786TIP3   OH262848   1.516   1.942   2.309  0.0257 -0.5099 -0.0857
13786TIP3    H162849   1.451   1.880   2.340 -1.7868  1.6871  0.6082
13786TIP3    H262850   1.482   1.973   2.225 -0.3616  1.3309  0.7075
13787TIP3   OH262851   4.257   2.634  16.122 -0.2152  0.4919 -1.2000
13787TIP3    H162852   4.256   2.637  16.026  1.6660  0.5516 -1.2354
13787TIP3    H262853   4.327   2.572  16.143  0.4021  1.6417  0.1533
13788TIP3   OH262854   4.089   2.100   3.984 -0.4722 -0.2895  0.9677
13788TIP3    H162855   4.121   2.105   3.894  1.2030  0.9480  1.6075
13788TIP3    H262856   4.168   2.108   4.038 -1.6590  1.0274  2.5674
13789TIP3   OH262857   5.686   4.056  12.619 -0.2835 -0.5337 -0.3951
13789TIP3    H162858   5.720   3.980  12.572  1.4153  0.1183 -0.2829
13789TIP3    H262859   5.620   4.093  12.561 -0.3524 -1.4688 -0.9254
13790TIP3   OH262860   4.580   2.304   0.583 -0.1180  0.0855 -0.2085
13790TIP3    H162861   4.526   2.237   0.626 -1.1968 -0.4976 -2.3878
13790TIP3    H262862   4.614   2.260   0.505 -0.5104  1.9665 -1.4587
13791TIP3   OH262863   6.605   5.397  14.853 -0.3047  0.2811 -0.4434
13791TIP3    H162864   6.517   5.427  14.876 -0.8439 -1.3801 -0.2855
13791TIP3    H262865   6.593   5.345  14.773  0.5968  0.3797 -0.6509
13792TIP3   OH262866   2.145   6.217   4.825  0.1850 -0.2187 -0.3230
13792TIP3    H162867   2.113   6.160   4.755 -0.2431 -0.3299 -0.0332
13792TIP3    H262868   2.125   6.171   4.906 -0.3278  0.4194 -0.0785
13793TIP3   OH262869   1.168   3.276  16.403  0.6568 -0.6257  0.1880
13793TIP3    H162870   1.199   3.337  16.470  2.0642  0.9958 -1.8620
13793TIP3    H262871   1.242   3.267  16.343 -1.1801 -0.5615 -2.1713
13794TIP3   OH262872   2.518   2.126  13.401  0.2590  0.2556 -0.1709
13794TIP3    H162873   2.436   2.103  13.356 -0.4359 -0.1547  1.2953
13794TIP3    H262874   2.512   2.220  13.415  0.8062  0.5156 -1.5665
13795TIP3   OH262875   3.179   4.667  16.234 -0.0048  0.1079  0.0137
13795TIP3    H162876   3.164   4.624  16.150 -2.4771  0.0272  0.4460
13795TIP3    H262877   3.124   4.619  16.296  0.4639  1.2230  1.3360
13796TIP3   OH262878   5.960   2.528  13.323 -0.0903  0.2368  0.0484
13796TIP3    H162879   5.913   2.600  13.365 -0.8387  0.6060 -1.3787
13796TIP3    H262880   5.940   2.538  13.230  2.4786  0.1304 -0.5427
13797TIP3   OH262881   5.846   3.863   4.890 -0.4532 -0.0906  0.0916
13797TIP3    H162882   5.862   3.769   4.904  0.8069  0.0117 -0.6083
13797TIP3    H262883   5.787   3.866   4.815 -0.5606 -0.3140  0.1630
13798TIP3   OH262884   4.829   2.899   5.993  0.5833  0.0219 -0.1648
13798TIP3    H162885   4.902   2.837   5.983  1.8031  1.6608 -1.8272
13798TIP3    H262886   4.852   2.951   6.070  0.2190 -0.7265  0.4481
13799TIP3   OH262887   4.502   3.669   2.563 -0.3652 -0.1420 -0.1297
13799TIP3    H162888   4.483   3.576   2.556  0.8361 -0.3183 -1.4316
13799TIP3    H262889   4.581   3.681   2.510 -1.5430  1.9400 -1.4898
13800TIP3   OH262890   3.409   5.493   6.020  0.1635  0.1974 -0.1960
13800TIP3    H162891   3.430   5.485   6.113  0.2389  0.7808 -0.1548
13800TIP3    H262892   3.423   5.406   5.984  0.4502  0.0439  0.2768
13801TIP3   OH262893   4.378   5.294   4.315  0.7268 -0.2172  0.8652
13801TIP3    H162894   4.438   5.233   4.273 -0.1631  0.3812 -1.3778
13801TIP3    H262895   4.417   5.380   4.298  0.1628  0.0547  0.9402
13802TIP3   OH262896   2.510   2.760  12.290  0.1834  0.0627 -0.0251
13802TIP3    H162897   2.496   2.852  12.311 -1.2719 -0.4034  1.1009
13802TIP3    H262898   2.498   2.755  12.195  0.4972  1.0673 -0.1198
13803TIP3   OH262899   2.782   0.335  13.899 -0.4047  0.0714  0.5750
13803TIP3    H162900   2.794   0.353  13.806  0.7699  0.4475  0.7979
13803TIP3    H262901   2.853   0.276  13.922 -0.1434  0.7200  1.4455
13804TIP3   OH262902   6.692   5.079   3.910  0.2409 -0.7064  0.8233
13804TIP3    H162903   6.606   5.037   3.908 -0.9192  1.6078  0.1033
13804TIP3    H262904   6.722   5.069   4.000 -2.5575  1.8241  2.1101
13805TIP3   OH262905   5.041   4.889  16.516  0.1273 -0.2017 -0.9470
13805TIP3    H162906   5.109   4.948  16.484 -0.0932  0.3634 -0.3724
13805TIP3    H262907   4.960   4.921  16.477 -0.0110 -0.0454 -0.5359
13806TIP3   OH262908   1.490   3.299  11.921 -0.0708 -0.8876 -0.1385
13806TIP3    H162909   1.413   3.256  11.884  1.1100 -0.9584 -2.5985
13806TIP3    H262910   1.546   3.318  11.846  1.6425  0.5388  1.4369
13807TIP3   OH262911   0.301   1.212  15.744  0.0555 -0.5383  0.2885
13807TIP3    H162912   0.363   1.169  15.686  1.2193  0.3331  0.8681
13807TIP3    H262913   0.239   1.143  15.768  0.7123 -1.3838 -0.4034
13808TIP3   OH262914   0.136   3.300  15.846 -0.5210 -0.3704  0.2733
13808TIP3    H162915   0.099   3.360  15.910  0.4661  0.8022 -0.2151
13808TIP3    H262916   0.076   3.305  15.771 -1.0753 -0.8908  0.6855
13809TIP3   OH262917   1.359   5.602  13.551  0.3329  0.7080  0.3004
13809TIP3    H162918   1.352   5.675  13.612 -0.5141  0.3104  0.6926
13809TIP3    H262919   1.440   5.557  13.575 -0.7786 -0.3533  2.1490
13810TIP3   OH262920   1.200   4.953   1.597 -0.2446  0.5562 -0.2875
13810TIP3    H162921   1.181   5.033   1.548  0.1814  0.1633 -1.0958
13810TIP3    H262922   1.138   4.888   1.563  1.6129 -0.3726 -2.0149
13811TIP3   OH262923   4.531   0.884  16.725  0.1881  0.3753 -0.7674
13811TIP3    H162924   4.518   0.874  16.630 -0.2773 -0.5163 -0.6206
13811TIP3    H262925   4.499   0.972  16.744  1.7624  1.1579 -1.6876
13812TIP3   OH262926   6.734   5.120   5.866  0.3547 -0.0941  0.1206
13812TIP3    H162927   6.754   5.116   5.772  1.4908  0.8351  0.3075
13812TIP3    H262928   6.643   5.090   5.873  0.0490  0.4424 -1.3526
13813TIP3   OH262929   2.865   1.692   0.475 -0.0429  0.5415 -0.2823
13813TIP3    H162930   2.803   1.647   0.418  0.6609  0.6585 -1.1732
13813TIP3    H262931   2.811   1.749   0.530 -0.6984  0.9475 -1.3234
13814TIP3   OH262932   4.707   4.189  14.286  0.4073 -0.0341 -0.0829
13814TIP3    H162933   4.678   4.257  14.225  0.3113 -0.5091 -0.5763
13814TIP3    H262934   4.774   4.231  14.340 -0.0793  0.6189  0.0140
13815TIP3   OH262935   6.371   1.588   4.420 -0.1604 -0.3735  0.1393
13815TIP3    H162936   6.419   1.505   4.423 -0.8973 -0.8118  0.1900
13815TIP3    H262937   6.340   1.594   4.330  0.6364  0.2839 -0.0902
13816TIP3   OH262938   2.500   5.192  16.916  0.3050 -0.2085  0.3954
13816TIP3    H162939   2.473   5.102  16.936 -1.0272  0.1839  0.4251
13816TIP3    H262940   2.573   5.182  16.855  0.6274 -1.3250  0.9577
13817TIP3   OH262941   4.909   6.311  12.311 -0.2200  0.2313 -0.1271
13817TIP3    H162942   4.935   6.402  12.297  0.0185 -0.2593 -3.2214
13817TIP3    H262943   4.815   6.315  12.327  0.0044  1.1218  1.0385
13818TIP3   OH262944   4.500   2.834  13.524 -0.2928 -0.2185  0.0087
13818TIP3    H162945   4.498   2.836  13.620 -1.9234  1.0051 -0.0314
13818TIP3    H262946   4.419   2.790  13.500 -0.4314  0.4840 -0.8273
13819TIP3   OH262947   1.386   2.834   0.244 -0.3371 -0.5787 -0.0897
13819TIP3    H162948   1.364   2.835   0.338 -0.4663  0.0899 -0.1226
13819TIP3    H262949   1.472   2.876   0.239 -0.7188  0.1807 -0.3617
13820TIP3   OH262950   6.554   1.521  10.613  0.2936  0.4550  0.1321
13820TIP3    H162951   6.601   1.509  10.530 -1.1454 -1.9285 -0.4103
13820TIP3    H262952   6.623   1.523  10.680  1.4032  1.3555 -1.0074
13821TIP3   OH262953   5.682   3.234  11.252  0.1618  0.5389 -0.0925
13821TIP3    H162954   5.639   3.291  11.188  0.1673  0.4556 -0.1711
13821TIP3    H262955   5.675   3.146  11.214 -1.7561  0.1709  1.0538
13822TIP3   OH262956   2.014   1.704   0.691  0.1119 -0.1913 -0.1784
13822TIP3    H162957   2.071   1.676   0.763  0.5656 -0.9347 -0.8051
13822TIP3    H262958   2.072   1.753   0.632 -0.1714  0.0947 -0.2204
13823TIP3   OH262959   5.417   6.006   1.199 -0.2748 -0.4620 -0.2047
13823TIP3    H162960   5.429   5.961   1.115  2.0763  1.6101 -1.0331
13823TIP3    H262961   5.324   5.997   1.218 -0.6608 -1.7693 -2.5719
13824TIP3   OH262962   5.003   2.505  13.270 -0.2412  0.2259 -0.0912
13824TIP3    H162963   5.021   2.484  13.361 -1.3076  1.4188  0.4042
13824TIP3    H262964   5.078   2.470  13.222  1.5481  1.7859  1.5061
13825TIP3   OH262965   4.378   6.617   3.395 -0.1125 -0.0740 -0.6340
13825TIP3    H162966   4.456   6.634   3.343  0.0435 -0.9251 -0.6740
13825TIP3    H262967   4.401   6.649   3.483 -0.1949  0.8817 -0.9476
13826TIP3   OH262968   6.124   2.060   0.825  0.6745 -0.4430  0.7489
13826TIP3    H162969   6.046   2.098   0.785  0.0707 -1.5911  0.8312
13826TIP3    H262970   6.121   1.967   0.802  1.0598 -0.8504  2.2843
13827TIP3   OH262971   4.984   4.537  15.611 -0.0390 -0.2247  0.8182
13827TIP3    H162972   5.012   4.448  15.633  2.4672 -0.5891 -3.3216
13827TIP3    H262973   5.044   4.594  15.660  0.2905 -0.8442  1.1473
13828TIP3   OH262974   2.392   2.102  16.935  0.0182 -0.3452 -0.3688
13828TIP3    H162975   2.372   2.009  16.944 -0.6847 -0.0546  1.1815
13828TIP3    H262976   2.417   2.112  16.843  0.0305 -2.0455 -0.5650
13829TIP3   OH262977   2.220   4.823   3.489 -0.2769 -0.2481  0.2508
13829TIP3    H162978   2.274   4.790   3.417  1.9847  0.5108  1.5472
13829TIP3    H262979   2.277   4.885   3.535 -1.6696 -0.7472  2.7099
13830TIP3   OH262980   2.105   5.402   0.877  0.2510 -0.2325  0.2664
13830TIP3    H162981   2.148   5.422   0.794  0.2753  0.8173  0.5319
13830TIP3    H262982   2.084   5.308   0.871  2.6273 -0.7690  0.1839
13831TIP3   OH262983   2.353   2.689   2.890  0.6445  0.3006  0.7201
13831TIP3    H162984   2.319   2.642   2.814 -0.3187  0.9678  0.7412
13831TIP3    H262985   2.437   2.725   2.860  0.9361 -0.6088  0.4107
13832TIP3   OH262986   3.509   2.259  11.963 -0.1065 -0.0089 -0.5725
13832TIP3    H162987   3.526   2.297  11.877  1.3630 -0.0338 -0.3050
13832TIP3    H262988   3.534   2.327  12.025  0.9151 -0.7660 -0.1293
13833TIP3   OH262989   4.401   5.517  11.620 -0.0582 -0.8227 -0.1947
13833TIP3    H162990   4.483   5.548  11.582 -0.6137  0.4376 -0.3764
13833TIP3    H262991   4.343   5.593  11.620 -1.9245 -2.1689 -1.9992
13834TIP3   OH262992   6.632   1.539   6.529  0.0195 -0.0740  0.1062
13834TIP3    H162993   6.656   1.451   6.558 -2.0177 -0.2975  1.1318
13834TIP3    H262994   6.539   1.547   6.548 -0.3592  1.4433 -2.1825
13835TIP3   OH262995   4.308   3.366  16.680 -0.1835  0.1263 -0.9809
13835TIP3    H162996   4.351   3.309  16.744  0.2161 -1.4778 -2.6243
13835TIP3    H262997   4.263   3.432  16.733  1.0070 -0.5275  0.9004
13836TIP3   OH262998   6.170   3.299   4.632  0.0774 -0.1928 -0.0418
13836TIP3    H162999   6.256   3.340   4.645 -0.0281  0.2097 -0.5836
13836TIP3    H263000   6.120   3.364   4.583  0.0832 -1.1920 -1.3830
13837TIP3   OH263001   1.381   4.580  11.555 -0.6231  0.2078  1.1973
13837TIP3    H163002   1.317   4.642  11.589 -1.9383 -1.1268  1.1917
13837TIP3    H263003   1.458   4.593  11.610 -1.2248  1.1516  1.8307
13838TIP3   OH263004   3.445   1.514  17.130 -0.9653  0.2722  0.1953
13838TIP3    H163005   3.357   1.480  17.147 -1.0373 -0.1579 -0.9991
13838TIP3    H263006   3.503   1.444  17.159 -1.0664 -0.1531 -0.6233
13839TIP3   OH263007   2.637   5.857  14.062 -0.6594 -0.5279 -0.0573
13839TIP3    H163008   2.651   5.785  14.123 -2.3994  0.0969  1.1370
13839TIP3    H263009   2.544   5.877  14.070 -0.1327  2.0856 -0.0950
13840TIP3   OH263010   5.755   4.295  13.362 -0.4798 -0.9518  0.0661
13840TIP3    H163011   5.703   4.299  13.442  2.4756  0.3283  2.0209
13840TIP3    H263012   5.709   4.352  13.300 -0.3149  1.8563  2.4195
13841TIP3   OH263013   6.642   0.077  14.311  0.1787 -0.7198  0.6576
13841TIP3    H163014   6.644   0.166  14.345  0.7891 -0.2741 -0.5063
13841TIP3    H263015   6.676   0.023  14.381  1.0324  0.1261  0.8980
13842TIP3   OH263016   1.001   5.281  17.274  0.5807  0.6218  0.3506
13842TIP3    H163017   0.963   5.338  17.341  2.5165  2.5891 -0.1577
13842TIP3    H263018   0.946   5.295  17.197 -1.9368 -2.0061  1.6008
13843TIP3   OH263019   2.134   2.167   0.453 -0.6754  0.3088 -0.2961
13843TIP3    H163020   2.202   2.235   0.453  0.6219 -0.9667  0.3790
13843TIP3    H263021   2.157   2.111   0.379 -1.8293  0.6839 -0.9402
13844TIP3   OH263022   5.136   3.923  15.344 -0.3517  0.2030 -0.2564
13844TIP3    H163023   5.120   3.861  15.272  1.6140  0.6849 -1.1323
13844TIP3    H263024   5.052   3.968  15.355 -1.5770 -1.9968 -0.1717
13845TIP3   OH263025   2.354   3.992   3.897 -0.2739  0.3418 -0.7513
13845TIP3    H163026   2.358   3.923   3.963 -2.6743  0.5561 -0.3123
13845TIP3    H263027   2.425   4.052   3.921  0.5491 -0.9286  0.0636
13846TIP3   OH263028   6.577   2.124  13.746  0.4338 -0.0173  0.3774
13846TIP3    H163029   6.544   2.102  13.659  0.8401  0.8163  0.0075
13846TIP3    H263030   6.516   2.189  13.779 -0.6639 -1.5278  1.4006
13847TIP3   OH263031   2.679   5.594  16.491 -0.2345 -0.4561 -0.4202
13847TIP3    H163032   2.717   5.510  16.518  0.2780  0.1343  0.7290
13847TIP3    H263033   2.585   5.584  16.510  0.0689 -0.1683  1.3264
13848TIP3   OH263034   2.230   4.951   0.314 -0.3851  0.4110  0.1058
13848TIP3    H163035   2.261   5.035   0.349 -0.5238  0.5216 -0.0387
13848TIP3    H263036   2.135   4.957   0.318 -0.4330  1.0259 -1.7284
13849TIP3   OH263037   3.345   4.114   5.161  0.1029 -0.4413  0.0799
13849TIP3    H163038   3.361   4.209   5.159  0.9471 -0.5637  0.6500
13849TIP3    H263039   3.285   4.101   5.234  1.3527 -0.5259  1.1187
13850TIP3   OH263040   2.465   2.968  14.539 -0.2327 -0.0617  0.3537
13850TIP3    H163041   2.549   2.932  14.565 -0.3977 -0.0643  0.8828
13850TIP3    H263042   2.410   2.891  14.520 -0.0544 -0.0578 -0.2067
13851TIP3   OH263043   6.663   3.810   0.848  1.0030  0.0457 -0.3713
13851TIP3    H163044   6.734   3.874   0.850  0.7744  0.3307 -1.4089
13851TIP3    H263045   6.603   3.842   0.781 -0.1793 -0.1267  0.5801
13852TIP3   OH263046   2.599   2.548   0.765  0.4408 -0.1643  0.2856
13852TIP3    H163047   2.541   2.563   0.690 -1.4585 -1.1946  1.4960
13852TIP3    H263048   2.543   2.563   0.842  1.8695 -0.8800  1.4908
13853TIP3   OH263049   2.050   0.045  14.716  0.2082 -0.6504 -1.0947
13853TIP3    H163050   2.100   0.088  14.646  0.1280 -1.5270 -1.7002
13853TIP3    H263051   1.963   0.086  14.712  0.9315  1.0663  0.1279
13854TIP3   OH263052   4.563   1.551  17.006  0.1549 -0.2443  0.0863
13854TIP3    H163053   4.595   1.568  17.094  0.5959 -0.9136  0.0642
13854TIP3    H263054   4.479   1.596  17.001  0.3606  0.1983  0.6861
13855TIP3   OH263055   2.259   6.270   1.198  0.3187  0.0947 -0.4668
13855TIP3    H163056   2.258   6.337   1.266 -0.8027 -0.0213 -0.3501
13855TIP3    H263057   2.279   6.188   1.244 -2.6269 -0.3648  0.1379
13856TIP3   OH263058   4.198   5.662   3.502  0.3193 -0.1350  0.4294
13856TIP3    H163059   4.203   5.754   3.475 -1.8498  0.0567  0.6245
13856TIP3    H263060   4.283   5.626   3.477  1.1307  1.8669  0.1625
13857TIP3   OH263061   0.860   1.860  13.794 -0.5757  0.3240  0.4604
13857TIP3    H163062   0.900   1.842  13.709 -0.8499  0.5673  0.2821
13857TIP3    H263063   0.888   1.949  13.816 -0.4383  0.2321  0.6627
13858TIP3   OH263064   4.811   2.187  15.907 -0.1595 -0.1288 -0.1174
13858TIP3    H163065   4.771   2.273  15.924 -0.5758  0.0891 -2.1088
13858TIP3    H263066   4.901   2.196  15.938  0.1288  1.4003 -1.3456
13859TIP3   OH263067   1.833   2.518  11.437  0.2813  0.1974  0.6175
13859TIP3    H163068   1.811   2.610  11.421 -3.2374 -0.7560 -0.4978
13859TIP3    H263069   1.823   2.506  11.531  0.4959  0.8766  0.7290
13860TIP3   OH263070   2.492   5.890  14.963 -0.1385 -0.0369 -0.0593
13860TIP3    H163071   2.542   5.866  15.041 -0.5058 -1.3873 -0.2278
13860TIP3    H263072   2.405   5.853  14.978 -0.1887 -0.3626 -1.1314
13861TIP3   OH263073   1.719   6.406   5.753  0.2263  0.0092 -0.4064
13861TIP3    H163074   1.682   6.461   5.684  0.6606 -0.3516 -0.9345
13861TIP3    H263075   1.665   6.423   5.830 -2.3682 -2.0770 -1.7171
13862TIP3   OH263076   0.707   0.642   2.705 -0.1031 -0.5151  0.5422
13862TIP3    H163077   0.680   0.550   2.700 -1.0380 -0.2204  0.1407
13862TIP3    H263078   0.626   0.689   2.724  0.5077  0.1490  1.5274
13863TIP3   OH263079   0.506   4.066  16.061 -0.6429 -0.3698 -0.0082
13863TIP3    H163080   0.499   4.160  16.041 -0.8385  0.0764  2.0343
13863TIP3    H263081   0.506   4.024  15.976  1.5940  1.6294 -1.0519
13864TIP3   OH263082   2.060   1.712  17.169 -0.0173 -0.2460 -0.5063
13864TIP3    H163083   1.968   1.738  17.176 -0.1092 -0.8380  0.6023
13864TIP3    H263084   2.087   1.694  17.259  1.5728  1.2018 -0.6587
13865TIP3   OH263085   5.383   1.240   4.642  0.2965 -0.3582 -0.3793
13865TIP3    H163086   5.333   1.265   4.720 -1.5578  0.5756 -1.8253
13865TIP3    H263087   5.319   1.241   4.571  2.3899  1.0681 -2.3286
13866TIP3   OH263088   6.202   0.265   6.305  0.3524  0.2805 -0.6536
13866TIP3    H163089   6.121   0.311   6.327 -0.7147 -1.4771 -0.8053
13866TIP3    H263090   6.216   0.204   6.378  1.9264  1.0533 -0.2871
13867TIP3   OH263091   2.014   5.168   0.466  0.4623 -0.9346 -0.5766
13867TIP3    H163092   1.944   5.134   0.409  1.0172  0.5297 -2.1737
13867TIP3    H263093   1.979   5.158   0.554 -1.1052 -1.7422 -1.2591
13868TIP3   OH263094   3.025   4.466  11.354  0.1178  0.3041 -0.1696
13868TIP3    H163095   3.111   4.508  11.349  0.6284 -0.7886 -0.7108
13868TIP3    H263096   2.991   4.472  11.265  0.4922 -1.0370 -0.4125
13869TIP3   OH263097   3.709   5.239  10.491  0.1303  0.3213  0.5322
13869TIP3    H163098   3.729   5.198  10.575 -0.6947  1.2613  1.1959
13869TIP3    H263099   3.643   5.182  10.452  1.5973 -0.9541 -0.1860
13870TIP3   OH263100   2.771   1.046   3.427 -0.7898  0.6067  0.4961
13870TIP3    H163101   2.716   1.116   3.392 -1.9203 -0.4709  0.0949
13870TIP3    H263102   2.710   0.976   3.448  0.4289 -0.6110  0.0343
13871TIP3   OH263103   6.427   2.710   4.895 -0.2583  0.3485  0.0541
13871TIP3    H163104   6.372   2.765   4.951 -0.7526 -0.3127  0.2333
13871TIP3    H263105   6.378   2.704   4.813 -0.7337 -0.6657  0.3874
13872TIP3   OH263106   1.921   0.343  12.241  0.1583  0.7053 -0.2988
13872TIP3    H163107   1.877   0.390  12.169  1.2934  0.4134 -1.2073
13872TIP3    H263108   2.004   0.390  12.252  1.8882 -1.8401 -2.0952
13873TIP3   OH263109   0.273   2.552  12.549  0.3798  0.0968 -0.8280
13873TIP3    H163110   0.287   2.526  12.640 -2.6382  2.0012  0.2412
13873TIP3    H263111   0.357   2.589  12.522  0.8459  1.0562  1.7584
13874TIP3   OH263112   6.291   0.787   5.096 -0.0576  0.5497 -0.0169
13874TIP3    H163113   6.332   0.806   5.011 -3.4801 -0.4074 -1.9917
13874TIP3    H263114   6.314   0.696   5.114  1.7265  1.1337  0.7398
13875TIP3   OH263115   1.970   4.643  15.701  0.8230 -0.3337 -0.2818
13875TIP3    H163116   1.944   4.730  15.668  2.0611 -0.4590 -1.6791
13875TIP3    H263117   1.978   4.590  15.622  1.8226 -1.2374  0.4222
13876TIP3   OH263118   4.919   4.101  16.490  0.2024  0.2455  0.4292
13876TIP3    H163119   4.912   4.168  16.422 -0.9400 -0.4462 -0.1329
13876TIP3    H263120   4.897   4.148  16.571  0.5295  0.8073  0.2031
13877TIP3   OH263121   2.117   2.009   0.213 -0.3182 -0.0192  0.0009
13877TIP3    H163122   2.202   1.966   0.220  0.2213  0.7952 -1.2719
13877TIP3    H263123   2.056   1.939   0.190  0.4848 -0.1709 -1.7287
13878TIP3   OH263124   2.361   0.427  14.548 -0.5529  0.6787  0.4020
13878TIP3    H163125   2.317   0.486  14.486 -1.9407 -0.2635  0.4751
13878TIP3    H263126   2.363   0.476  14.630 -0.4104  1.1817  0.1073
13879TIP3   OH263127   1.401   0.117  11.177 -0.7407 -0.3398 -0.0857
13879TIP3    H163128   1.342   0.155  11.112  0.5494  1.6139 -0.1499
13879TIP3    H263129   1.481   0.169  11.170 -0.1081 -0.9775  2.1156
13880TIP3   OH263130   2.431   2.970  16.148 -0.2725  0.6530 -0.0662
13880TIP3    H163131   2.424   3.034  16.077 -0.4138  0.2569 -0.4156
13880TIP3    H263132   2.467   2.891  16.106  0.0613  0.5610  0.3949
13881TIP3   OH263133   4.769   0.609  14.539 -0.4122 -0.2420 -0.1232
13881TIP3    H163134   4.708   0.582  14.608  1.1026  0.9297  1.7179
13881TIP3    H263135   4.735   0.693  14.508 -1.1212 -0.7921 -0.8258
13882TIP3   OH263136   2.429   2.530   5.669 -0.0669 -0.2685  0.0177
13882TIP3    H163137   2.450   2.623   5.673  1.2357 -0.5480 -0.1666
13882TIP3    H263138   2.501   2.487   5.716 -0.7822 -1.1621  0.3084
13883TIP3   OH263139   4.996   2.772   2.191  0.1729  0.3923  0.1245
13883TIP3    H163140   5.033   2.757   2.278  1.9492 -0.6380 -0.7783
13883TIP3    H263141   4.978   2.685   2.157 -1.9510  0.8425  0.0374
13884TIP3   OH263142   3.769   2.561   0.256 -0.3210 -0.0285 -0.0113
13884TIP3    H163143   3.826   2.509   0.314  0.2963  0.0653 -0.5336
13884TIP3    H263144   3.790   2.652   0.279 -4.3898  0.0937  3.8946
13885TIP3   OH263145   5.376   5.017   5.994  0.1179 -0.0847  0.0728
13885TIP3    H163146   5.364   5.072   6.071  1.2425 -1.7226  1.4560
13885TIP3    H263147   5.300   4.959   5.993  0.7007 -0.8692  0.6526
13886TIP3   OH263148   3.776   5.006   4.664 -0.5692  0.4841 -0.0344
13886TIP3    H163149   3.749   5.036   4.751 -0.0124  0.4838  0.1402
13886TIP3    H263150   3.732   4.922   4.652  0.1589  0.0094  0.6596
13887TIP3   OH263151   1.441   4.436  13.367  0.7357 -0.4516  0.5884
13887TIP3    H163152   1.372   4.434  13.301  0.8552 -1.0821  0.4811
13887TIP3    H263153   1.409   4.498  13.433 -0.8136 -2.1701  1.4876
13888TIP3   OH263154   3.526   3.246   4.073  0.3927 -0.0835 -0.2016
13888TIP3    H163155   3.540   3.177   4.009 -0.0224  0.7503 -1.1920
13888TIP3    H263156   3.600   3.237   4.134  0.1389 -1.6234 -0.1037
13889TIP3   OH263157   0.201   5.904   4.935 -0.1726 -0.0306 -0.5101
13889TIP3    H163158   0.108   5.920   4.921 -0.3043 -0.3449  0.0021
13889TIP3    H263159   0.206   5.861   5.020  0.1761 -3.0214 -1.9920
13890TIP3   OH263160   2.352   4.293   4.385  0.3882 -0.1273  0.1379
13890TIP3    H163161   2.414   4.363   4.407  0.9707 -0.3525 -0.7726
13890TIP3    H263162   2.346   4.296   4.290  1.0444 -1.8425  0.0245
13891TIP3   OH263163   5.851   2.669   0.898 -0.5153  0.7732  0.0081
13891TIP3    H163164   5.945   2.649   0.900 -0.6766 -0.0743 -0.6446
13891TIP3    H263165   5.835   2.717   0.979  0.2643 -0.0858  0.6873
13892TIP3   OH263166   1.542   5.450   0.507  0.4146  0.5967  0.3391
13892TIP3    H163167   1.513   5.402   0.584 -1.4098  1.9208  0.5081
13892TIP3    H263168   1.531   5.542   0.530  1.0084  1.0278 -1.0503
13893TIP3   OH263169   4.600   3.857  10.651  0.3483 -0.0217 -0.1765
13893TIP3    H163170   4.557   3.784  10.697 -0.6387 -0.8719 -2.3746
13893TIP3    H263171   4.538   3.929  10.657  1.8728  1.1164  3.1314
13894TIP3   OH263172   4.159   5.533   3.940  0.5859  0.6316 -0.0441
13894TIP3    H163173   4.243   5.490   3.929  0.7962  1.0513 -0.0891
13894TIP3    H263174   4.172   5.596   4.011 -0.7416 -1.9585  2.5898
13895TIP3   OH263175   5.407   0.628   1.344  0.0885 -0.5061  0.3144
13895TIP3    H163176   5.481   0.626   1.404  0.0876  0.7925  0.3614
13895TIP3    H263177   5.372   0.717   1.351 -0.0218 -0.3859 -1.4527
13896TIP3   OH263178   0.160   3.841  11.632  0.3318 -0.2517 -0.0387
13896TIP3    H163179   0.142   3.812  11.721  2.7233 -3.0154 -0.4035
13896TIP3    H263180   0.254   3.830  11.621  0.3258  1.5931 -2.4092
13897TIP3   OH263181   0.229   5.164   3.791 -0.6575  0.0965 -0.9742
13897TIP3    H163182   0.198   5.169   3.882  0.2783 -0.0078 -0.6506
13897TIP3    H263183   0.148   5.163   3.739 -1.2804 -2.4921 -0.0344
13898TIP3   OH263184   6.237   1.041   0.115  0.1201  0.8294  0.7207
13898TIP3    H163185   6.172   1.079   0.174  1.1969  0.9681  1.8427
13898TIP3    H263186   6.269   1.115   0.063 -0.3533  0.8260  0.4258
13899TIP3   OH263187   5.601   1.243  11.665 -0.2344  0.0154 -0.2130
13899TIP3    H163188   5.530   1.265  11.605  0.0402  2.0148  0.1660
13899TIP3    H263189   5.559   1.189  11.733 -1.4579  1.3702  0.1237
13900TIP3   OH263190   2.795   6.505   2.851 -0.2220  0.7993  0.3781
13900TIP3    H163191   2.811   6.586   2.802 -0.3213 -0.5379 -1.9097
13900TIP3    H263192   2.727   6.460   2.801 -0.3946 -0.5563  1.8084
13901TIP3   OH263193   0.534   0.958   3.414  0.3164 -0.3634  0.5846
13901TIP3    H163194   0.510   1.047   3.389 -0.1997 -0.2545  1.4528
13901TIP3    H263195   0.630   0.958   3.415  0.3251  0.0210  0.0338
13902TIP3   OH263196   4.104   5.059   1.072 -0.1857 -0.1682  0.1789
13902TIP3    H163197   4.116   5.112   1.151  1.2433  0.4071 -0.3881
13902TIP3    H263198   4.190   5.060   1.030 -0.2667 -2.5294 -0.1177
13903TIP3   OH263199   6.157   5.643  16.174 -0.2297 -0.0067 -0.0713
13903TIP3    H163200   6.244   5.615  16.205 -0.8798  0.2157  2.0887
13903TIP3    H263201   6.103   5.565  16.183 -0.9158  0.6071  1.3961
13904TIP3   OH263202   6.707   1.345  12.489 -0.0156  0.0376 -0.2038
13904TIP3    H163203   6.632   1.324  12.433 -0.0886  0.1882 -0.1631
13904TIP3    H263204   6.712   1.272  12.551 -0.2663  0.1375 -0.0664
13905TIP3   OH263205   4.884   5.149   0.443  0.0861  0.6076 -0.4262
13905TIP3    H163206   4.939   5.169   0.367 -0.7300  2.3204 -0.5885
13905TIP3    H263207   4.863   5.235   0.481  0.7970 -0.2398  1.9739
13906TIP3   OH263208   1.852   0.783  17.184 -0.3459  0.2416 -0.1086
13906TIP3    H163209   1.865   0.756  17.274 -1.1520  0.3034  0.0258
13906TIP3    H263210   1.841   0.878  17.189  0.8834  0.4071 -0.4055
13907TIP3   OH263211   1.593   5.868  14.266 -0.2768  0.0335 -0.2274
13907TIP3    H163212   1.593   5.877  14.361  0.7606  0.8232 -0.2948
13907TIP3    H263213   1.517   5.919  14.237 -1.0552 -0.8508  0.2225
13908TIP3   OH263214   3.072   3.564  14.864 -0.4423 -0.8764 -0.2970
13908TIP3    H163215   3.060   3.470  14.847  1.0784 -1.3607  1.1687
13908TIP3    H263216   3.151   3.587  14.815 -0.9120 -0.3138 -0.7946
13909TIP3   OH263217   4.396   1.199   1.489  0.5704  0.1246 -0.0853
13909TIP3    H163218   4.444   1.280   1.478 -1.9991  1.4640 -2.1090
13909TIP3    H263219   4.382   1.167   1.399 -0.0542 -1.5535  0.5825
13910TIP3   OH263220   0.832   0.412   0.575  0.3252 -0.5194  0.1670
13910TIP3    H163221   0.854   0.461   0.654 -1.1196  0.3113  0.0691
13910TIP3    H263222   0.743   0.439   0.554  0.5099 -1.1183 -1.4610
13911TIP3   OH263223   4.267   6.414   4.697  0.1764 -0.2675  0.0156
13911TIP3    H163224   4.225   6.469   4.763  1.4467 -0.0855  0.6805
13911TIP3    H263225   4.359   6.439   4.699  0.4159 -0.9965 -1.0994
13912TIP3   OH263226   0.108   2.076  12.326  0.1732 -0.1908  0.0028
13912TIP3    H163227   0.085   2.162  12.293  3.2730  0.1394 -1.4385
13912TIP3    H263228   0.086   2.015  12.255  0.6992 -0.2413 -0.1201
13913TIP3   OH263229   3.980   4.101   4.517 -0.1026 -0.3246  0.0919
13913TIP3    H163230   3.918   4.136   4.580  0.3719  0.8996 -0.1069
13913TIP3    H263231   4.049   4.059   4.569  0.3275  0.7501  0.3921
13914TIP3   OH263232   6.571   5.238   3.435 -0.2515 -0.3660  0.3153
13914TIP3    H163233   6.629   5.162   3.427  0.4619  0.3786 -1.8117
13914TIP3    H263234   6.619   5.297   3.493  0.3837 -0.4347 -0.1339
13915TIP3   OH263235   1.431   4.004   0.215 -0.3444  0.0595 -0.1608
13915TIP3    H163236   1.511   4.054   0.200 -0.1797 -0.6971 -1.9194
13915TIP3    H263237   1.371   4.034   0.146 -1.2726 -0.0075  0.6135
13916TIP3   OH263238   1.364   3.148   4.386 -0.6731  0.6472 -0.1615
13916TIP3    H163239   1.331   3.180   4.470  2.5816 -2.4737  2.4677
13916TIP3    H263240   1.450   3.190   4.377 -0.8687  0.7128 -1.7853
13917TIP3   OH263241   2.674   6.229   0.415  0.4435 -0.0401  0.5712
13917TIP3    H163242   2.749   6.184   0.452  0.9724 -0.5698 -1.0839
13917TIP3    H263243   2.704   6.318   0.398  0.7218 -0.2652 -0.1335
13918TIP3   OH263244   5.692   2.059  16.081 -0.0629 -0.7144 -1.0659
13918TIP3    H163245   5.785   2.081  16.081 -0.3673  0.6940  1.1336
13918TIP3    H263246   5.672   2.038  16.172 -2.0642 -0.2594 -1.3744
13919TIP3   OH263247   4.983   3.003  14.291 -0.1264 -0.4011 -0.4095
13919TIP3    H163248   5.056   3.029  14.347  0.9865 -1.5686 -1.2901
13919TIP3    H263249   4.984   3.065  14.219  0.5693 -0.9713 -0.8911
13920TIP3   OH263250   6.325   6.255   0.839  1.0187  0.3994 -0.0101
13920TIP3    H163251   6.410   6.214   0.823  0.4089 -0.3487 -1.4537
13920TIP3    H263252   6.314   6.316   0.766 -1.3684 -2.3424 -2.1113
13921TIP3   OH263253   4.025   0.733   4.943 -0.0014  0.6636 -0.3819
13921TIP3    H163254   4.049   0.644   4.918 -2.1171 -0.0652  0.0749
13921TIP3    H263255   4.072   0.748   5.025 -2.7441 -1.5416  1.6581
13922TIP3   OH263256   4.503   0.682   3.641  0.1502 -0.1121 -0.1886
13922TIP3    H163257   4.413   0.696   3.672  0.6237 -1.6241  1.9544
13922TIP3    H263258   4.547   0.638   3.714  2.1624 -0.9578 -1.8694
13923TIP3   OH263259   2.095   3.059  16.601  0.1978 -0.5190  0.5726
13923TIP3    H163260   2.072   3.110  16.679 -0.3508  0.1120  0.0138
13923TIP3    H263261   2.127   3.125  16.538 -2.1176 -0.5905 -0.7609
13924TIP3   OH263262   6.678   2.268   3.980  0.2716 -0.1576 -0.4813
13924TIP3    H163263   6.722   2.186   4.002 -0.7010 -0.2044  1.3689
13924TIP3    H263264   6.624   2.246   3.904 -0.8551 -1.5380  0.6900
13925TIP3   OH263265   2.840   0.589  12.545  0.1890  0.5737 -0.2351
13925TIP3    H163266   2.902   0.650  12.504 -0.5549  0.9944 -0.7420
13925TIP3    H263267   2.794   0.641  12.610  0.5894  0.1789  0.3664
13926TIP3   OH263268   5.227   4.745  13.197  0.0863  0.1723  0.1690
13926TIP3    H163269   5.215   4.652  13.179  0.8062 -0.2204  1.6688
13926TIP3    H263270   5.138   4.781  13.198 -0.0472  0.1009 -3.4047
13927TIP3   OH263271   4.516   4.037   2.511  0.3480  0.1446 -0.3819
13927TIP3    H163272   4.540   4.102   2.446 -0.3160  0.5448 -0.2286
13927TIP3    H263273   4.550   3.954   2.476 -2.5290 -0.1484 -2.6835
13928TIP3   OH263274   6.215   5.696  12.261 -0.0318 -0.4490  0.4438
13928TIP3    H163275   6.129   5.728  12.233 -0.9829 -2.2106  1.2910
13928TIP3    H263276   6.228   5.735  12.348  0.7383  1.0673 -0.3318
13929TIP3   OH263277   0.825   5.972  11.831  0.1332  0.0462  0.0289
13929TIP3    H163278   0.766   5.993  11.758 -1.5427 -1.3950  0.9200
13929TIP3    H263279   0.795   6.027  11.903 -1.4266 -2.0380  1.0508
13930TIP3   OH263280   3.219   3.054   3.919  0.1998  0.1021  0.2817
13930TIP3    H163281   3.231   3.027   3.828 -0.4822  1.9978 -0.4099
13930TIP3    H263282   3.206   2.973   3.967  0.7811 -0.9432 -1.2790
13931TIP3   OH263283   5.538   0.407   2.319 -0.5181 -0.3584 -0.2677
13931TIP3    H163284   5.550   0.407   2.414  2.2984  0.9728 -0.5602
13931TIP3    H263285   5.551   0.498   2.293  1.2955 -1.1082 -2.1764
13932TIP3   OH263286   1.379   0.307  15.441  0.1994 -0.6831 -0.2020
13932TIP3    H163287   1.292   0.291  15.406 -0.1152 -2.1381  1.1703
13932TIP3    H263288   1.399   0.229  15.493  1.6684  0.3080  0.7837
13933TIP3   OH263289   0.247   0.606  14.597 -0.8911  0.0660 -0.3560
13933TIP3    H163290   0.240   0.511  14.587 -0.1156  0.0072 -0.3854
13933TIP3    H263291   0.156   0.636  14.603 -1.1372 -0.6889 -0.2009
13934TIP3   OH263292   5.320   3.353  12.653 -0.0457  0.4641  0.6458
13934TIP3    H163293   5.328   3.390  12.741  2.5702  2.9270 -0.5325
13934TIP3    H263294   5.356   3.264  12.661  0.2194  0.6867  2.0513
13935TIP3   OH263295   4.782   0.084   5.343  0.2195 -0.2116 -0.2353
13935TIP3    H163296   4.822   0.000   5.319  0.1031  0.1709 -1.8410
13935TIP3    H263297   4.849   0.129   5.395  0.2850 -1.2861  0.6246
13936TIP3   OH263298   5.170   3.226   0.746  0.1988 -0.4581  0.5655
13936TIP3    H163299   5.216   3.145   0.721  0.4164 -0.6127  1.4209
13936TIP3    H263300   5.177   3.228   0.842 -1.0107 -0.1366  0.6529
13937TIP3   OH263301   1.309   1.155  14.886  0.2559 -0.4732  0.2244
13937TIP3    H163302   1.222   1.132  14.918  0.2479 -1.9966 -0.8468
13937TIP3    H263303   1.299   1.157  14.790  1.5407 -1.2826  0.0636
13938TIP3   OH263304   5.353   4.438  15.457 -0.0198 -0.3621 -0.9079
13938TIP3    H163305   5.335   4.527  15.428  1.7171  0.3794  0.1745
13938TIP3    H263306   5.446   4.425  15.438  0.4374 -0.9057  1.5110
13939TIP3   OH263307   3.637   0.955  14.652 -0.4201  0.6956  0.1166
13939TIP3    H163308   3.595   0.967  14.567 -1.6182 -0.6030  0.5049
13939TIP3    H263309   3.586   1.010  14.712  0.2692  1.4184  0.0396
13940TIP3   OH263310   0.715   0.669   1.499  0.1756 -0.4032 -0.3451
13940TIP3    H163311   0.723   0.616   1.579  1.4556  0.3865  0.0486
13940TIP3    H263312   0.752   0.754   1.522 -1.6135  0.5987 -1.0695
13941TIP3   OH263313   0.099   4.426  16.656 -0.0239 -0.3932 -0.5134
13941TIP3    H163314   0.175   4.457  16.605 -1.5909  0.4842 -2.4093
13941TIP3    H263315   0.102   4.331  16.647  0.7716 -0.3615 -0.6799
13942TIP3   OH263316   5.098   6.645  15.225 -0.4764  0.2835  0.3130
13942TIP3    H163317   5.110   6.706  15.152 -1.6763  1.5621  1.1353
13942TIP3    H263318   5.184   6.638  15.266  0.1593 -0.3020 -1.1112
13943TIP3   OH263319   3.248   6.545  12.195 -0.4364 -0.2726  0.0618
13943TIP3    H163320   3.278   6.636  12.186  0.8210 -0.7356 -0.5299
13943TIP3    H263321   3.205   6.526  12.111 -2.1165  0.2726  0.7738
13944TIP3   OH263322   4.633   4.657  10.548 -0.2958 -0.3383  0.3797
13944TIP3    H163323   4.652   4.747  10.520  0.7490 -1.1409 -1.5532
13944TIP3    H263324   4.553   4.634  10.501  0.6359 -1.1671 -0.8121
13945TIP3   OH263325   4.682   5.936   0.860 -0.1228 -0.1555  0.6213
13945TIP3    H163326   4.775   5.958   0.850 -0.2066  0.4419  1.1390
13945TIP3    H263327   4.682   5.852   0.905  0.1520  0.5349  1.9332
13946TIP3   OH263328   0.952   1.095   1.803 -0.0358  0.6249 -0.5153
13946TIP3    H163329   0.942   1.092   1.898  1.3603 -3.4205 -0.4189
13946TIP3    H263330   1.042   1.124   1.789  0.0936  0.1998 -0.5722
13947TIP3   OH263331   1.730   0.109  16.249 -0.2922  0.1607 -0.0455
13947TIP3    H163332   1.643   0.121  16.210 -0.7272  0.7157  1.0898
13947TIP3    H263333   1.781   0.184  16.218 -0.5085  0.3681  0.1059
13948TIP3   OH263334   1.101   1.984  16.664 -0.8200  0.3360 -0.0445
13948TIP3    H163335   1.099   2.079  16.677 -2.5188  0.2525  0.3720
13948TIP3    H263336   1.175   1.954  16.717  0.4982  1.5603 -1.1471
13949TIP3   OH263337   3.667   5.370  12.925 -0.3361  0.6498 -0.5841
13949TIP3    H163338   3.671   5.417  13.009  0.0851  0.0015 -0.2407
13949TIP3    H263339   3.581   5.393  12.889 -0.8382  0.3046  0.3862
13950TIP3   OH263340   5.296   3.578   0.028 -0.2839 -0.2837  0.0958
13950TIP3    H163341   5.312   3.641  -0.042  0.0010 -0.3808  0.0722
13950TIP3    H263342   5.298   3.493  -0.015 -2.5028 -0.2253 -0.2156
13951TIP3   OH263343   6.490   6.663   3.927 -0.6449 -0.3592  0.2215
13951TIP3    H163344   6.469   6.617   3.846  0.2512 -1.7188  0.7241
13951TIP3    H263345   6.555   6.728   3.902 -0.3182 -0.8246 -0.1473
13952TIP3   OH263346   1.662   6.058   6.004  0.4291  0.5401 -0.1981
13952TIP3    H163347   1.587   6.000   5.991  0.4553  0.7294 -1.2454
13952TIP3    H263348   1.632   6.124   6.067  0.3955 -0.5927  0.9858
13953TIP3   OH263349   2.307   3.481  13.377  0.0956  0.1143  0.0215
13953TIP3    H163350   2.400   3.494  13.359 -0.2064  2.1681 -0.1145
13953TIP3    H263351   2.300   3.387  13.396  2.2976  0.0639  0.7419
13954TIP3   OH263352   5.600   0.098   5.545 -0.7776  0.3839  0.0164
13954TIP3    H163353   5.565   0.119   5.458 -2.4795  0.4349  0.6994
13954TIP3    H263354   5.601   0.003   5.549 -1.8677  0.3845  0.3951
13955TIP3   OH263355   3.562   3.332   4.689  0.0072 -0.4726 -0.1906
13955TIP3    H163356   3.534   3.342   4.598 -0.3294 -1.8161 -0.2460
13955TIP3    H263357   3.480   3.328   4.739  0.1892  0.1599  0.1565
13956TIP3   OH263358   2.539   3.689  10.966 -0.2131 -0.1685 -0.3647
13956TIP3    H163359   2.574   3.625  10.905  1.0519  0.5865 -0.4442
13956TIP3    H263360   2.546   3.647  11.052 -0.3638 -0.5353 -0.5309
13957TIP3   OH263361   1.293   5.296   0.025 -0.0920 -0.5003 -0.1582
13957TIP3    H163362   1.297   5.315   0.118 -2.0907 -0.9211  0.0376
13957TIP3    H263363   1.202   5.313   0.001  0.0202 -1.9665 -1.6878
13958TIP3   OH263364   6.528   2.887  14.101 -0.1456 -0.3447 -0.0633
13958TIP3    H163365   6.451   2.941  14.121  0.3070 -0.5422  2.4282
13958TIP3    H263366   6.518   2.864  14.009 -2.8273  0.0574  0.0734
13959TIP3   OH263367   1.046   1.627  14.981 -0.3935  0.3783 -0.4107
13959TIP3    H163368   1.086   1.619  14.894  0.9916 -0.3984  0.2781
13959TIP3    H263369   1.118   1.610  15.042 -1.0787  2.0879  0.9159
13960TIP3   OH263370   0.200   4.541  11.964  0.2889 -0.1193 -0.1910
13960TIP3    H163371   0.147   4.592  11.903  0.3099 -0.4368 -0.4727
13960TIP3    H263372   0.246   4.607  12.016  1.0918  0.1648 -1.2316
13961TIP3   OH263373   4.965   0.758   0.242 -0.5963  0.4813 -0.0614
13961TIP3    H163374   4.962   0.706   0.323  0.3464 -0.5643 -0.6892
13961TIP3    H263375   4.881   0.740   0.199 -1.8247  2.3515  1.4632
13962TIP3   OH263376   1.095   5.943  15.187 -0.1916  0.4727 -0.1573
13962TIP3    H163377   1.118   5.931  15.095  0.6895  1.1495 -0.0356
13962TIP3    H263378   1.178   5.935  15.234 -1.0231 -2.5655  0.8776
13963TIP3   OH263379   5.070   6.789  15.671 -0.1482 -0.0671  1.0101
13963TIP3    H163380   5.159   6.797  15.706  0.0499  0.8187  0.3448
13963TIP3    H263381   5.040   6.880  15.663 -0.8703 -0.3359  0.6386
13964TIP3   OH263382   2.039   0.201  14.999  0.0744 -0.2104 -0.0340
13964TIP3    H163383   2.058   0.256  15.076 -1.8171  0.4155  0.0153
13964TIP3    H263384   2.080   0.248  14.927  0.5762 -0.0055  0.3776
13965TIP3   OH263385   1.984   5.724  14.756  0.5066 -0.6938 -0.5096
13965TIP3    H163386   1.955   5.792  14.817  1.5768  0.3770 -1.1782
13965TIP3    H263387   1.978   5.764  14.670  1.2249 -1.4268 -0.9130
13966TIP3   OH263388   4.765   4.273   1.708 -0.4959 -0.4570  0.3163
13966TIP3    H163389   4.795   4.352   1.753 -1.9246  2.2014 -3.1853
13966TIP3    H263390   4.834   4.254   1.644 -1.8415  0.1698 -1.3546
13967TIP3   OH263391   5.900   0.115  11.459 -0.3144 -0.0646  0.6188
13967TIP3    H163392   5.988   0.140  11.488  0.0161 -0.6522  0.1132
13967TIP3    H263393   5.842   0.170  11.512  0.3600  0.5633  0.7242
13968TIP3   OH263394   3.444   0.977  16.073  0.3340 -0.0988 -0.1681
13968TIP3    H163395   3.516   1.034  16.047 -0.4307  0.9411 -0.0110
13968TIP3    H263396   3.436   0.990  16.167 -0.2406  0.0055 -0.2274
13969TIP3   OH263397   5.775   4.446   4.465 -0.5227 -0.0292 -0.0657
13969TIP3    H163398   5.858   4.444   4.417 -0.5641  0.9244 -0.1783
13969TIP3    H263399   5.730   4.366   4.439  0.9704 -1.2614  1.0556
13970TIP3   OH263400   3.945   4.742  17.065  0.3743 -0.5332  0.4812
13970TIP3    H163401   3.998   4.816  17.037 -0.8568  0.0189 -0.4169
13970TIP3    H263402   3.908   4.769  17.149  0.4165 -0.3823  0.4508
13971TIP3   OH263403   3.125   4.272   3.078  0.4253  0.0800 -0.3722
13971TIP3    H163404   3.203   4.317   3.111  0.4212  0.9015 -1.4473
13971TIP3    H263405   3.078   4.339   3.028 -1.7075 -0.0262  1.4427
13972TIP3   OH263406   3.257   4.596   1.994  0.6044  0.2177 -0.3725
13972TIP3    H163407   3.250   4.509   1.954 -1.3470  0.3215 -0.2884
13972TIP3    H263408   3.266   4.656   1.920 -0.0127  0.1308 -0.5158
13973TIP3   OH263409   5.703   6.194   4.804  0.0347  0.0051  0.1247
13973TIP3    H163410   5.748   6.198   4.720  0.7484  0.7675  0.5368
13973TIP3    H263411   5.692   6.100   4.820 -0.4133 -0.1401 -0.9727
13974TIP3   OH263412   5.295   1.795   3.108 -0.0710 -0.4436  0.4761
13974TIP3    H163413   5.338   1.864   3.158  0.9384 -0.7997  0.1136
13974TIP3    H263414   5.281   1.725   3.172  1.1351 -0.8622  0.2850
13975TIP3   OH263415   1.941   5.934  13.172 -0.2072  0.3835 -0.5007
13975TIP3    H163416   1.883   5.973  13.238 -0.1745 -0.8271  0.2596
13975TIP3    H263417   1.919   5.840  13.174 -0.2124  0.3321 -2.2181
13976TIP3   OH263418   6.189   2.047   6.131  0.2229  0.8175 -0.9890
13976TIP3    H163419   6.229   2.132   6.151 -1.5615  1.1580  1.3276
13976TIP3    H263420   6.259   1.984   6.147  0.5055  1.5772  0.9406
13977TIP3   OH263421   5.911   6.742   4.265 -0.2551  0.0616  0.4431
13977TIP3    H163422   5.826   6.785   4.269 -1.3686 -1.7213 -2.4923
13977TIP3    H263423   5.916   6.692   4.347 -3.0004 -1.5165 -0.2824
13978TIP3   OH263424   1.121   0.448  11.849 -0.1697 -0.3452 -0.3558
13978TIP3    H163425   1.183   0.376  11.838  3.2058  2.3439 -0.2042
13978TIP3    H263426   1.146   0.511  11.782 -0.7448  2.1226  1.6538
13979TIP3   OH263427   5.001   5.339   6.193  0.4166 -0.2050  0.2328
13979TIP3    H163428   5.032   5.336   6.283 -1.6536 -0.8965  0.9493
13979TIP3    H263429   4.936   5.409   6.192  0.8392  0.1830 -0.8653
13980TIP3   OH263430   4.681   3.740  16.597 -0.2488  0.6571 -0.4154
13980TIP3    H163431   4.682   3.810  16.532 -0.9959  0.7510 -0.3403
13980TIP3    H263432   4.659   3.784  16.679  0.8983  0.5701 -0.0569
13981TIP3   OH263433   5.307   4.332   0.586 -0.1871  0.2678 -0.0444
13981TIP3    H163434   5.294   4.304   0.677  1.3472 -0.2150  0.0264
13981TIP3    H263435   5.349   4.417   0.592 -2.3553  1.3833 -0.2934
13982TIP3   OH263436   3.546   2.119  15.951  0.0788 -0.3961  0.8786
13982TIP3    H163437   3.639   2.140  15.960  0.0391  0.7573 -1.0469
13982TIP3    H263438   3.502   2.203  15.942 -1.2392 -0.9047  2.2600
13983TIP3   OH263439   4.500   2.476  11.401 -0.0403 -0.1096  0.5910
13983TIP3    H163440   4.552   2.397  11.414  0.5948  0.3592  0.9363
13983TIP3    H263441   4.504   2.521  11.486  0.4596  0.7946  0.0970
13984TIP3   OH263442   5.973   5.029   3.417 -0.6465 -0.0008  0.3565
13984TIP3    H163443   6.059   5.040   3.375 -0.2110 -1.3359  0.8694
13984TIP3    H263444   5.936   5.117   3.418  0.1444  0.3796 -1.0922
13985TIP3   OH263445   6.267   4.882  11.408 -0.0372 -0.5529 -0.6821
13985TIP3    H163446   6.251   4.958  11.464  0.6769 -0.5158 -0.5214
13985TIP3    H263447   6.201   4.818  11.434  0.6971 -0.7760  0.6546
13986TIP3   OH263448   2.632   3.187  11.494 -0.1030  0.7355 -0.9117
13986TIP3    H163449   2.624   3.100  11.454  1.0137  0.7330 -1.1518
13986TIP3    H263450   2.596   3.177  11.582  0.8599 -0.1947 -0.6187
13987TIP3   OH263451   6.361   6.328   4.526  0.1475  0.1440  0.1241
13987TIP3    H163452   6.385   6.235   4.515  1.0181  0.2397  1.1074
13987TIP3    H263453   6.298   6.328   4.597  1.5781  0.4934  1.4142
13988TIP3   OH263454   4.011   0.236  12.810  0.2375  0.2606 -0.4150
13988TIP3    H163455   4.093   0.199  12.843  0.0585  1.0529  0.9653
13988TIP3    H263456   3.944   0.207  12.873 -0.8610 -1.8035 -2.4424
13989TIP3   OH263457   2.216   4.186  11.873 -0.0308  0.8208  0.4230
13989TIP3    H163458   2.181   4.096  11.873  0.5424  0.5967  0.6026
13989TIP3    H263459   2.172   4.228  11.799  1.0875 -0.1431 -0.8083
13990TIP3   OH263460   4.385   0.616  13.887  0.2308  0.0642  0.5659
13990TIP3    H163461   4.339   0.700  13.900  0.5546  0.1752  1.0125
13990TIP3    H263462   4.324   0.550  13.920  1.1006  0.3527  2.8645
13991TIP3   OH263463   6.118   5.816  15.139  0.4313 -0.2523  0.1450
13991TIP3    H163464   6.078   5.806  15.225  1.3428 -0.6597  0.5281
13991TIP3    H263465   6.151   5.906  15.138 -3.2939  1.1900 -1.3915
13992TIP3   OH263466   4.333   5.716  14.488 -0.1821 -0.6617 -0.2458
13992TIP3    H163467   4.381   5.796  14.467 -1.1067 -0.1221 -0.3478
13992TIP3    H263468   4.318   5.721  14.583 -0.7818 -0.3953 -0.3476
13993TIP3   OH263469   1.483   4.919  16.510  0.1090 -0.3572 -0.2684
13993TIP3    H163470   1.403   4.870  16.531  0.3556 -0.5276  0.2865
13993TIP3    H263471   1.507   4.888  16.423  1.1847 -2.5107  0.7318
13994TIP3   OH263472   1.395   4.787   0.828  0.1117  0.0421  0.1074
13994TIP3    H163473   1.355   4.871   0.849 -1.1710 -0.7715  1.0110
13994TIP3    H263474   1.323   4.723   0.838  1.1403 -1.1901 -0.2377
13995TIP3   OH263475   1.663   0.256  16.603  0.6493 -0.2203  0.2442
13995TIP3    H163476   1.614   0.276  16.523 -2.8040 -1.6704  1.9019
13995TIP3    H263477   1.660   0.336  16.654  1.0562  0.0705 -0.1888
13996TIP3   OH263478   1.905   5.859  17.257 -0.5444 -0.2269 -0.8770
13996TIP3    H163479   1.944   5.847  17.171 -1.4378  0.0077 -1.3217
13996TIP3    H263480   1.864   5.945  17.253  0.4794  0.3208  0.2065
13997TIP3   OH263481   2.066   0.299  13.047  0.0633 -0.5688  0.2427
13997TIP3    H163482   2.109   0.253  13.119  1.5053 -0.1093 -0.3101
13997TIP3    H263483   2.123   0.285  12.971  0.7942  2.4585  0.1492
13998TIP3   OH263484   5.242   2.918  11.987 -0.1387  0.5214  0.3972
13998TIP3    H163485   5.215   2.826  11.983  1.0321  0.0258  3.3061
13998TIP3    H263486   5.333   2.917  11.957 -0.5449  0.9634 -0.8964
13999TIP3   OH263487   0.193   5.034  16.625  0.1556 -0.2730  0.0920
13999TIP3    H163488   0.267   4.979  16.599 -0.5032 -0.1787 -2.1514
13999TIP3    H263489   0.221   5.074  16.707  1.8866 -1.5769  0.1835
14000TIP3   OH263490   1.492   6.761  12.448  0.0470 -0.5468  0.6480
14000TIP3    H163491   1.426   6.782  12.515  0.7754  1.2128  0.8289
14000TIP3    H263492   1.528   6.845  12.422  0.1555 -1.2578 -1.6088
14001TIP3   OH263493   0.060   2.680   5.194  0.1762  0.2863  0.2731
14001TIP3    H163494   0.036   2.616   5.261  0.8427  0.6118  0.8344
14001TIP3    H263495  -0.001   2.753   5.208  0.5094  0.4830  0.7338
14002TIP3   OH263496   2.360   5.894   2.972 -0.2660 -0.4340 -0.2028
14002TIP3    H163497   2.325   5.933   3.052  1.1752  1.4462 -0.4567
14002TIP3    H263498   2.329   5.803   2.974 -0.7565 -0.2472  2.1627
14003TIP3   OH263499   4.637   4.237   4.833 -0.7367 -0.0010 -0.4528
14003TIP3    H163500   4.631   4.277   4.920  0.6021 -0.7245 -0.0183
14003TIP3    H263501   4.721   4.191   4.833 -0.7808 -0.1129 -2.0899
14004TIP3   OH263502   2.789   0.110  14.796 -0.8251 -0.4199  0.0852
14004TIP3    H163503   2.799   0.034  14.739  0.5672  0.7614 -1.3024
14004TIP3    H263504   2.699   0.104  14.829 -1.2046 -1.8587 -1.1608
14005TIP3   OH263505   2.984   5.452  14.347 -0.4190 -0.1373 -0.0100
14005TIP3    H163506   3.014   5.543  14.343 -1.1262  0.2164  2.0533
14005TIP3    H263507   3.064   5.400  14.353 -0.0813  0.6026  2.3785
14006TIP3   OH263508   2.648   2.475  14.803 -0.2771 -0.1545 -0.5610
14006TIP3    H163509   2.703   2.416  14.855 -0.3463  0.8429  0.6449
14006TIP3    H263510   2.707   2.510  14.736 -0.2850 -1.7514 -1.4481
14007TIP3   OH263511   2.426   4.112   2.625  0.5122 -0.1532  0.1074
14007TIP3    H163512   2.474   4.177   2.677 -1.2498  0.3842  1.1054
14007TIP3    H263513   2.342   4.102   2.670 -1.0688  0.2837 -2.6180
14008TIP3   OH263514   6.476   3.327  13.189 -0.2849 -0.6399 -0.0372
14008TIP3    H163515   6.465   3.299  13.099  1.2050 -3.8365  0.7114
14008TIP3    H263516   6.567   3.357  13.195  0.2936 -2.5537  0.9210
14009TIP3   OH263517   5.158   1.151   1.458  0.7341 -0.0969 -0.5016
14009TIP3    H163518   5.106   1.229   1.438 -0.1076 -0.0856  1.5645
14009TIP3    H263519   5.225   1.182   1.519 -0.4033 -1.2062  1.3553
14010TIP3   OH263520   4.635   5.439   0.322 -0.1252 -0.3171  0.0275
14010TIP3    H163521   4.716   5.394   0.299  0.0585 -0.2439  0.5140
14010TIP3    H263522   4.646   5.528   0.289 -0.1505 -0.4057 -0.2161
14011TIP3   OH263523   1.545   5.117   2.059  0.3705  0.1058  0.5731
14011TIP3    H163524   1.462   5.164   2.067 -0.5536 -1.5065  0.8066
14011TIP3    H263525   1.571   5.130   1.968  0.3509  1.4037  0.7459
14012TIP3   OH263526   4.707   1.499   0.440 -0.2410 -0.4938  0.3260
14012TIP3    H163527   4.774   1.484   0.374  0.0619 -0.8855  0.7225
14012TIP3    H263528   4.740   1.456   0.519  0.1936  1.3983  1.2114
14013TIP3   OH263529   1.427   2.959  17.053 -0.1910 -0.1741 -0.1102
14013TIP3    H163530   1.505   2.919  17.013 -0.2394 -0.4939  0.1107
14013TIP3    H263531   1.355   2.903  17.023 -0.2019 -0.5454  0.6057
14014TIP3   OH263532   2.944   0.788   0.540 -0.5714  0.4991 -0.1424
14014TIP3    H163533   2.877   0.733   0.580 -1.0972  0.8112 -0.5896
14014TIP3    H263534   2.909   0.877   0.545 -0.9488  0.4702 -1.8990
14015TIP3   OH263535   6.085   0.459  13.959 -0.5583  0.0348 -0.7250
14015TIP3    H163536   6.103   0.492  13.872  1.4803 -0.9069 -0.6822
14015TIP3    H263537   6.076   0.364  13.948  1.0728 -0.2631  0.2638
14016TIP3   OH263538   6.542   0.372  16.724  0.8222 -0.3124 -0.5091
14016TIP3    H163539   6.514   0.462  16.738 -1.6127 -1.1273  0.1004
14016TIP3    H263540   6.636   0.378  16.705  0.5689  2.3809 -1.0305
14017TIP3   OH263541   4.355   6.811  16.668 -0.1631  0.5348 -0.1748
14017TIP3    H163542   4.337   6.843  16.756  0.9612 -0.1571  0.3171
14017TIP3    H263543   4.411   6.878  16.629 -1.3698  1.2656 -0.6833
14018TIP3   OH263544   1.163   2.511  14.628  0.6954 -0.2000  0.2625
14018TIP3    H163545   1.137   2.445  14.565  0.5718  0.3077 -0.2270
14018TIP3    H263546   1.100   2.582  14.616 -0.4093 -0.8085  2.1612
14019TIP3   OH263547   3.463   6.775  13.129 -0.3515  0.3628  0.4733
14019TIP3    H163548   3.540   6.771  13.185 -0.5090  1.4915  0.7992
14019TIP3    H263549   3.461   6.692  13.083  0.7075  0.0843  0.9312
14020TIP3   OH263550   1.879   4.946  15.043 -0.1085 -0.4416  0.1651
14020TIP3    H163551   1.876   4.851  15.036 -1.0240 -0.4984  1.2613
14020TIP3    H263552   1.945   4.973  14.979  0.7705 -1.8665  0.4651
14021TIP3   OH263553   6.063   6.800  16.060  0.2998  0.0941 -0.0730
14021TIP3    H163554   5.978   6.813  16.102  0.1074 -1.5873  0.1072
14021TIP3    H263555   6.043   6.757  15.977  1.0790 -2.2941  0.9220
14022TIP3   OH263556   6.492   3.361  16.126 -0.0394 -0.3545  0.4359
14022TIP3    H163557   6.486   3.408  16.209  0.0482  0.4765 -0.0205
14022TIP3    H263558   6.440   3.281  16.140  1.8518 -1.3385  2.0253
14023TIP3   OH263559   3.272   4.197  14.746 -0.2634  0.2545  0.3724
14023TIP3    H163560   3.216   4.158  14.812 -0.7308  0.0951 -0.1213
14023TIP3    H263561   3.350   4.142  14.745 -0.8901 -0.6276 -0.2742
14024TIP3   OH263562   3.923   4.350  12.667 -0.1465  0.2341  0.0491
14024TIP3    H163563   3.883   4.433  12.694 -1.7466 -0.7725  0.8032
14024TIP3    H263564   3.857   4.307  12.613  0.1243 -1.1770  0.8123
14025TIP3   OH263565   4.570   0.864   0.389  0.5805 -0.1013 -0.0853
14025TIP3    H163566   4.614   0.926   0.448  0.3789  0.5765 -0.6343
14025TIP3    H263567   4.484   0.850   0.429  0.2443  0.7702 -0.4895
14026TIP3   OH263568   3.647   0.911   0.783 -0.2215 -0.1500 -0.2041
14026TIP3    H163569   3.630   1.001   0.754 -0.7455  0.5811  2.2431
14026TIP3    H263570   3.561   0.869   0.782 -0.3126  0.0086  0.6873
14027TIP3   OH263571   1.846   0.078  11.215 -0.5652 -0.2248  1.3214
14027TIP3    H163572   1.878   0.016  11.149 -0.0610  0.0750  1.2857
14027TIP3    H263573   1.840   0.025  11.295  1.3472  0.0260  1.6679
14028TIP3   OH263574   2.226   5.218   5.855  0.1848 -0.0542 -0.1398
14028TIP3    H163575   2.189   5.165   5.926 -0.8888  1.4388  0.4474
14028TIP3    H263576   2.150   5.255   5.810  0.8570 -0.8655 -2.0114
14029TIP3   OH263577   6.353   5.638   0.173  0.0654  0.0319  0.2593
14029TIP3    H163578   6.325   5.588   0.096 -0.9331  0.7367  0.1503
14029TIP3    H263579   6.443   5.663   0.154 -0.3868  0.7498 -0.9721
14030TIP3   OH263580   4.502   0.814   1.728 -0.5959 -0.2089 -0.6486
14030TIP3    H163581   4.570   0.748   1.727  0.5895  0.9902 -0.8276
14030TIP3    H263582   4.503   0.852   1.640 -1.5268 -0.2044 -0.6720
14031TIP3   OH263583   6.508   1.307  15.988  0.1628  0.1009  0.0220
14031TIP3    H163584   6.420   1.294  16.024  0.0601  0.5861 -0.0467
14031TIP3    H263585   6.543   1.219  15.979  0.2482 -0.0247  1.4571
14032TIP3   OH263586   0.173   3.469   4.101  0.3636 -0.5294 -0.5314
14032TIP3    H163587   0.095   3.414   4.111  0.8372 -1.2292 -0.6218
14032TIP3    H263588   0.245   3.413   4.131  0.6483  0.6763  1.1401
14033TIP3   OH263589   4.559   1.166   0.311 -0.0600 -0.3979  0.2960
14033TIP3    H163590   4.522   1.150   0.397  0.7192 -0.1972  0.6709
14033TIP3    H263591   4.483   1.181   0.254 -0.5474  0.0271  1.0544
14034TIP3   OH263592   3.739   3.343   0.943 -0.4362  0.0611  0.1880
14034TIP3    H163593   3.716   3.261   0.985 -2.0423  0.0237 -0.7089
14034TIP3    H263594   3.696   3.410   0.996 -0.4539  0.2002 -0.0004
14035TIP3   OH263595   6.501   6.767  10.300  0.1038 -0.3864 -0.1578
14035TIP3    H163596   6.450   6.688  10.284  0.9558 -0.8818 -0.4334
14035TIP3    H263597   6.550   6.749  10.380  0.2389 -0.1098 -0.1776
14036TIP3   OH263598   0.556   2.438   1.839 -0.0601  0.1591 -0.7722
14036TIP3    H163599   0.534   2.460   1.749 -1.8510 -0.5612 -0.5209
14036TIP3    H263600   0.561   2.342   1.840 -1.8409  0.0696  0.2979
14037TIP3   OH263601   0.047   1.593   5.067  0.2298  0.0505 -0.2353
14037TIP3    H163602   0.124   1.622   5.116  0.1747  1.1732 -0.8057
14037TIP3    H263603   0.025   1.666   5.011  0.2373 -1.1944 -1.9031
14038TIP3   OH263604   6.212   2.886   3.049  0.6046  1.0390 -0.0804
14038TIP3    H163605   6.287   2.828   3.039  0.9268  1.6150 -1.0820
14038TIP3    H263606   6.154   2.863   2.976 -0.9527 -0.5072  1.5966
14039TIP3   OH263607   0.873   2.043  14.504 -0.0569  0.0929  0.3501
14039TIP3    H163608   0.885   1.957  14.545 -3.4392 -0.7563 -0.2470
14039TIP3    H263609   0.864   2.024  14.411  1.0590  1.3188 -0.0147
14040TIP3   OH263610   3.453   2.764  16.666  0.9299  0.1426  0.2564
14040TIP3    H163611   3.479   2.679  16.701  3.8318  0.9273  0.1007
14040TIP3    H263612   3.381   2.792  16.722  1.2700 -1.5092  1.5625
14041TIP3   OH263613   2.613   4.421  14.266  0.2331 -0.2750 -0.8418
14041TIP3    H163614   2.548   4.489  14.282  0.4831 -0.2847  0.2440
14041TIP3    H263615   2.687   4.445  14.322  0.7563 -0.8302 -1.2937
14042TIP3   OH263616   0.028   2.059  16.080  0.0114  0.1134 -0.5401
14042TIP3    H163617   0.007   2.039  16.171  1.5385  1.2742  0.1042
14042TIP3    H263618  -0.041   2.119  16.052  1.3470  2.4602  0.9689
14043TIP3   OH263619   3.282   5.438  16.726  0.2990 -0.1408 -0.6119
14043TIP3    H163620   3.336   5.378  16.675 -0.3068 -0.5533 -0.7639
14043TIP3    H263621   3.202   5.449  16.675  0.3582  0.7000 -0.5291
14044TIP3   OH263622   2.643   1.444  12.676 -0.1883 -0.8443 -0.0291
14044TIP3    H163623   2.628   1.537  12.692  1.8709 -0.3270 -0.9480
14044TIP3    H263624   2.724   1.424  12.724 -0.1484 -1.9636 -0.5477
14045TIP3   OH263625   2.163   5.094   4.120  0.1870  0.6872  0.6710
14045TIP3    H163626   2.148   5.175   4.169 -0.7180 -0.2361  1.9554
14045TIP3    H263627   2.106   5.102   4.044  1.7343  2.2126 -0.3763
14046TIP3   OH263628   6.111   5.653  14.924  0.2788 -0.4696 -0.0224
14046TIP3    H163629   6.117   5.719  14.856 -1.2975 -0.2884  0.0034
14046TIP3    H263630   6.122   5.701  15.006 -0.8780 -0.2195 -0.0028
14047TIP3   OH263631   3.561   2.512   0.831 -0.5122  0.4616 -0.1333
14047TIP3    H163632   3.483   2.458   0.841 -1.0776  1.1092 -0.9705
14047TIP3    H263633   3.607   2.475   0.756 -0.7422  0.9489 -0.5166
14048TIP3   OH263634   0.352   1.736   2.199 -0.2229 -0.2240 -0.0419
14048TIP3    H163635   0.310   1.773   2.276 -0.6105  1.4274 -1.0274
14048TIP3    H263636   0.349   1.806   2.134  2.5336 -0.6547 -0.6806
14049TIP3   OH263637   4.610   3.678  13.839 -0.2650 -0.1249 -0.5412
14049TIP3    H163638   4.575   3.598  13.801 -0.6845 -0.2411  0.0838
14049TIP3    H263639   4.588   3.672  13.932  4.2683 -1.7784  0.5818
14050TIP3   OH263640   3.070   6.242  12.078 -0.7390 -0.0966  0.3755
14050TIP3    H163641   3.067   6.208  12.167 -0.2897 -0.0992  0.3929
14050TIP3    H263642   3.067   6.337  12.088 -0.3969 -0.0894  0.4094
14051TIP3   OH263643   1.535   1.992  16.519  0.6676 -0.2518 -0.3063
14051TIP3    H163644   1.495   1.919  16.567  1.0471  0.5416  1.2400
14051TIP3    H263645   1.463   2.029  16.467 -0.1678 -0.0298  0.9897
14052TIP3   OH263646   2.014   1.166  16.592 -0.0852  0.3752  0.6819
14052TIP3    H163647   1.962   1.222  16.534 -1.2934 -1.8451 -0.4830
14052TIP3    H263648   1.967   1.167  16.675 -0.2294  0.9413  0.5942
14053TIP3   OH263649   3.405   5.352   3.070 -0.2411  0.2135  0.0184
14053TIP3    H163650   3.343   5.328   3.139  0.9099  0.5909  1.1924
14053TIP3    H263651   3.474   5.286   3.076  0.7831  1.3138  0.4320
14054TIP3   OH263652   2.067   4.011   1.094 -0.6519  0.5898 -0.4389
14054TIP3    H163653   2.090   4.102   1.075 -0.9402  0.6530 -0.4860
14054TIP3    H263654   2.134   3.959   1.050 -0.1941  0.7970  0.0155
14055TIP3   OH263655   6.218   5.423   4.246 -0.0552 -0.2834 -0.6648
14055TIP3    H163656   6.127   5.441   4.223 -0.2634  0.2291  0.4997
14055TIP3    H263657   6.216   5.411   4.341  1.3978  1.7987 -0.3246
14056TIP3   OH263658   1.661   4.279   4.160  0.0040 -0.3626 -0.1069
14056TIP3    H163659   1.591   4.344   4.160 -0.5009 -0.8882 -1.3850
14056TIP3    H263660   1.620   4.198   4.129  0.7536 -1.1588  0.9366
14057TIP3   OH263661   0.302   6.683   0.804  0.1452 -0.1057  0.3047
14057TIP3    H163662   0.393   6.708   0.820  0.6733 -1.3237 -0.6816
14057TIP3    H263663   0.304   6.643   0.717 -1.4580  0.4639  0.0018
14058TIP3   OH263664   3.739   3.256   0.460  0.6743 -0.3036 -0.3464
14058TIP3    H163665   3.763   3.334   0.510  1.0780 -0.2259 -0.6519
14058TIP3    H263666   3.664   3.219   0.506 -0.7726  1.3688 -1.3063
14059TIP3   OH263667   4.846   3.717  12.272  0.6831  0.0354  0.8106
14059TIP3    H163668   4.771   3.660  12.288  0.0996  0.7484  0.6639
14059TIP3    H263669   4.886   3.683  12.192  0.3667 -0.1992  0.7541
14060TIP3   OH263670   2.819   5.994  13.623 -0.0994  0.1879  0.6035
14060TIP3    H163671   2.791   5.913  13.667 -0.7181  0.4912  0.7877
14060TIP3    H263672   2.741   6.022  13.574  0.0043  0.8529  0.8155
14061TIP3   OH263673   2.215   0.762   1.236  0.1990 -0.0256 -0.5038
14061TIP3    H163674   2.297   0.783   1.190 -0.5397 -0.1480 -1.9056
14061TIP3    H263675   2.235   0.777   1.328  1.6876  0.3349 -0.8688
14062TIP3   OH263676   0.633   3.803  16.424  0.9984  0.0146 -0.4796
14062TIP3    H163677   0.647   3.818  16.517 -0.5974  3.3008 -0.6645
14062TIP3    H263678   0.593   3.716  16.418  1.7419 -0.4986  1.8194
14063TIP3   OH263679   6.008   2.974  14.844 -0.1089  0.3128  0.2310
14063TIP3    H163680   6.101   2.997  14.844  0.1034 -0.5314 -0.2637
14063TIP3    H263681   5.989   2.947  14.933  0.0044  0.9268  0.4457
14064TIP3   OH263682   6.535   5.548  11.837 -0.3118 -0.0653  0.2670
14064TIP3    H163683   6.528   5.594  11.921  1.1770  1.2238 -0.2875
14064TIP3    H263684   6.586   5.469  11.857 -0.0495  0.1856  0.6014
14065TIP3   OH263685   6.030   5.214   0.310 -0.4851  0.1607 -0.0361
14065TIP3    H163686   6.075   5.131   0.330 -0.1327  0.6386  1.1974
14065TIP3    H263687   6.101   5.278   0.304 -0.8722  0.6188  0.2983
14066TIP3   OH263688   3.681   3.748  15.361  0.2538  0.0282 -0.2558
14066TIP3    H163689   3.630   3.822  15.326 -0.5146 -1.3322 -2.1078
14066TIP3    H263690   3.618   3.677  15.368  0.7994 -0.2293  2.3789
14067TIP3   OH263691   3.988   0.934  10.974  0.1521 -0.4915  0.5331
14067TIP3    H163692   3.954   0.927  10.885 -1.4839  1.6487  0.9400
14067TIP3    H263693   4.071   0.980  10.966 -0.7527  1.1035  0.2559
14068TIP3   OH263694   1.157   3.340   0.233 -0.6797  0.3961  0.7607
14068TIP3    H163695   1.225   3.273   0.229  0.6268  1.7938 -1.1155
14068TIP3    H263696   1.204   3.420   0.259 -1.4059  1.6053 -1.5517
14069TIP3   OH263697   2.728   6.580  15.254  0.1131 -0.0222  0.0903
14069TIP3    H163698   2.809   6.624  15.282  1.5280 -2.3953 -0.2087
14069TIP3    H263699   2.727   6.591  15.159  0.2614 -0.2575  0.0596
14070TIP3   OH263700   2.970   2.466  13.651 -0.3918 -0.3716  0.4653
14070TIP3    H163701   2.940   2.501  13.568 -0.3048 -0.2895  0.4685
14070TIP3    H263702   3.028   2.534  13.686  0.2604 -0.7847  0.1837
14071TIP3   OH263703   1.687   3.356  14.921 -0.0162  0.2389  0.2393
14071TIP3    H163704   1.713   3.299  14.993  1.4670  1.1207  0.4214
14071TIP3    H263705   1.593   3.368  14.933 -0.1458 -1.2579  0.8409
14072TIP3   OH263706   0.436   3.814   2.442  0.1059  0.3466  0.0536
14072TIP3    H163707   0.456   3.747   2.507 -0.3087 -1.0155 -1.1953
14072TIP3    H263708   0.512   3.814   2.384 -1.3969 -1.5741 -2.0043
14073TIP3   OH263709   1.013   5.199   5.250 -0.0760 -0.1927  0.2559
14073TIP3    H163710   1.030   5.117   5.296  1.9531  0.5739  0.9326
14073TIP3    H263711   1.076   5.200   5.178 -1.3494 -0.0832 -0.8730
14074TIP3   OH263712   2.407   0.339  14.817  0.3122 -0.1767 -0.6755
14074TIP3    H163713   2.392   0.323  14.910 -1.5994  1.6363 -0.6502
14074TIP3    H263714   2.497   0.373  14.813  0.1530  0.4297  0.5869
14075TIP3   OH263715   4.273   6.027  11.743 -0.4735 -0.1930 -0.0302
14075TIP3    H163716   4.207   6.008  11.810  0.0528 -0.3351  0.4494
14075TIP3    H263717   4.278   6.122  11.740 -1.2728 -0.1584 -0.6347
14076TIP3   OH263718   4.272   2.143   2.316 -0.1074  0.4121 -0.0696
14076TIP3    H163719   4.334   2.075   2.342 -0.1403  1.2004  2.1642
14076TIP3    H263720   4.203   2.096   2.268  0.9665 -0.7944 -0.4594
14077TIP3   OH263721   6.111   2.278  11.237  0.4974 -0.8808 -0.3480
14077TIP3    H163722   6.035   2.322  11.275  0.5051 -1.2803  0.1347
14077TIP3    H263723   6.074   2.204  11.188  0.4731 -0.2660 -1.2749
14078TIP3   OH263724   5.678   0.705  14.730  0.0019  0.7689  0.0014
14078TIP3    H163725   5.739   0.742  14.794  2.6023  0.5895 -2.2712
14078TIP3    H263726   5.666   0.615  14.758  1.4156  0.5831  0.0417
14079TIP3   OH263727   4.598   0.065  15.633  0.9782 -0.1787 -0.1789
14079TIP3    H163728   4.582   0.006  15.559  0.3552  0.0892 -0.2660
14079TIP3    H263729   4.616   0.150  15.592 -0.6287  0.2689 -0.0161
14080TIP3   OH263730   2.841   0.350   5.471 -0.5787  0.2145 -0.4299
14080TIP3    H163731   2.819   0.386   5.557  0.9861  1.9185 -0.7030
14080TIP3    H263732   2.758   0.350   5.423 -0.8239  2.7212 -0.1094
14081TIP3   OH263733   2.854   4.282   1.412 -0.3448  0.5221 -0.1268
14081TIP3    H163734   2.867   4.369   1.450 -0.3087  0.1114  0.8306
14081TIP3    H263735   2.770   4.288   1.366 -0.6514  0.8920  0.4670
14082TIP3   OH263736   1.115   3.159   3.709 -0.4521  0.2529  0.4682
14082TIP3    H163737   1.112   3.162   3.613  0.4407 -0.8717  0.4005
14082TIP3    H263738   1.207   3.144   3.730 -0.4657  1.5388  1.5455
14083TIP3   OH263739   2.943   5.396   2.596 -0.1410 -0.0280  0.3607
14083TIP3    H163740   2.986   5.325   2.643  0.5249  0.4273  0.4440
14083TIP3    H263741   2.979   5.391   2.507  0.7743  0.9270  0.6729
14084TIP3   OH263742   2.921   1.372   1.420  0.5579  0.0575  0.1520
14084TIP3    H163743   2.928   1.278   1.400 -0.8237  0.1665 -0.8842
14084TIP3    H263744   2.973   1.415   1.351  1.8923  0.0122  1.1207
14085TIP3   OH263745   5.086   6.490   2.354  0.1897 -0.1759  0.3521
14085TIP3    H163746   4.996   6.458   2.361  0.6645 -1.4732  0.6612
14085TIP3    H263747   5.084   6.575   2.397 -1.2857  0.6230 -1.2596
14086TIP3   OH263748   2.518   2.618  10.511  0.3724 -0.7013  0.5107
14086TIP3    H163749   2.574   2.549  10.476 -0.8343 -0.3112 -2.2879
14086TIP3    H263750   2.572   2.697  10.507  1.2225 -1.1762  2.2719
14087TIP3   OH263751   4.968   3.548  15.136 -0.4080  0.0439  0.7148
14087TIP3    H163752   4.880   3.570  15.105  0.3542  0.2385 -1.3802
14087TIP3    H263753   4.973   3.587  15.223 -2.0382  0.9195  0.4387
14088TIP3   OH263754   3.851   2.944   4.008  0.0678  0.0259  0.6240
14088TIP3    H163755   3.912   2.877   3.976 -1.0559 -0.9325  0.4899
14088TIP3    H263756   3.838   2.923   4.100 -0.0211  0.2813  0.6703
14089TIP3   OH263757   1.797   5.954   0.836  0.1171 -0.5652  0.0082
14089TIP3    H163758   1.783   5.989   0.924  0.2588 -0.7996  0.1216
14089TIP3    H263759   1.843   6.025   0.789  0.3617 -0.5800  0.2257
14090TIP3   OH263760   5.482   1.965   3.896 -0.2701 -0.0915 -0.1646
14090TIP3    H163761   5.510   1.956   3.804  0.3200 -1.4848  0.1349
14090TIP3    H263762   5.397   1.921   3.899 -0.4309  0.2246 -0.1139
14091TIP3   OH263763   3.442   5.289   2.264  0.6093 -0.4227  0.2674
14091TIP3    H163764   3.443   5.193   2.264 -1.2817 -0.4661 -0.2292
14091TIP3    H263765   3.409   5.313   2.350  0.3292 -0.2471  0.1144
14092TIP3   OH263766   0.013   4.491  16.349 -0.2303 -0.4411 -0.3125
14092TIP3    H163767   0.053   4.529  16.427  1.4274 -0.8521 -0.9518
14092TIP3    H263768  -0.021   4.406  16.379  0.2928 -0.5469 -0.0038
14093TIP3   OH263769   3.055   0.230   3.350 -0.1209 -0.9231 -0.2168
14093TIP3    H163770   3.059   0.289   3.274 -1.8750  0.8929  1.0464
14093TIP3    H263771   3.122   0.265   3.410 -1.6089  0.2263  0.8092
14094TIP3   OH263772   1.230   4.471  16.382 -0.6591 -0.1089 -0.1245
14094TIP3    H163773   1.206   4.391  16.429 -0.9523  0.4529  0.6804
14094TIP3    H263774   1.313   4.449  16.339 -0.6511 -0.7926  0.2311
14095TIP3   OH263775   1.158   6.414   4.559 -0.0284 -0.7469  0.5148
14095TIP3    H163776   1.116   6.477   4.500 -0.3946 -2.2790 -0.8959
14095TIP3    H263777   1.218   6.365   4.503  0.6484 -1.2972  1.7088
14096TIP3   OH263778   3.019   3.514  10.925 -0.1763  0.1052  0.5868
14096TIP3    H163779   3.063   3.582  10.976 -0.3411 -0.2304  1.1696
14096TIP3    H263780   2.956   3.474  10.986  1.1960 -1.8140  0.7852
14097TIP3   OH263781   3.085   5.050   0.548  0.3097 -0.3355  0.2286
14097TIP3    H163782   3.040   5.109   0.609 -3.0237  0.7999 -3.0864
14097TIP3    H263783   3.167   5.094   0.528  0.2425  0.5683  1.8450
14098TIP3   OH263784   4.728   0.307  15.239 -0.1698  0.0258  0.1188
14098TIP3    H163785   4.737   0.323  15.333  0.2926  1.0781 -0.0957
14098TIP3    H263786   4.716   0.212  15.231  1.8005 -0.3106  1.0940
14099TIP3   OH263787   0.451   5.484   3.669  0.1201  0.0819 -0.1430
14099TIP3    H163788   0.371   5.505   3.718  0.2592 -0.3591  0.2760
14099TIP3    H263789   0.497   5.567   3.661 -0.0022  0.1906  0.2971
14100TIP3   OH263790   5.821   6.039   0.852 -0.4174 -0.4953 -0.2265
14100TIP3    H163791   5.757   6.052   0.782  0.0285 -0.4458 -0.6283
14100TIP3    H263792   5.885   6.109   0.839 -1.1106  0.4359  1.1275
14101TIP3   OH263793   2.506   2.760  15.987 -0.0118 -0.6061 -0.3407
14101TIP3    H163794   2.586   2.714  16.011  0.2546 -1.1694 -2.1636
14101TIP3    H263795   2.509   2.763  15.891 -0.5719  2.2649 -0.2991
14102TIP3   OH263796   4.317   6.555  11.659 -0.3280 -0.7427 -0.3060
14102TIP3    H163797   4.326   6.621  11.590 -2.1063 -0.2275 -0.0515
14102TIP3    H263798   4.398   6.562  11.709 -0.1429  0.6690 -0.7853
14103TIP3   OH263799   4.773   4.748  13.937  0.0238  0.1625  0.6870
14103TIP3    H163800   4.793   4.787  13.852  0.1044  0.3833  0.8074
14103TIP3    H263801   4.769   4.654  13.920  1.0994  0.1135  0.6482
14104TIP3   OH263802   4.546   1.242   2.702 -0.2803  0.3386  0.3245
14104TIP3    H163803   4.520   1.333   2.714 -1.2690  0.2652 -1.1524
14104TIP3    H263804   4.466   1.191   2.718 -0.2052 -0.1271 -0.7191
14105TIP3   OH263805   4.091   2.821   3.962 -0.0629 -0.4415  0.3562
14105TIP3    H163806   4.154   2.771   4.014 -1.7929 -0.8977  2.0762
14105TIP3    H263807   4.123   2.815   3.872  1.9682 -1.2113  1.1065
14106TIP3   OH263808   2.959   4.546  12.238  0.2906  0.3974  0.0625
14106TIP3    H163809   2.945   4.452  12.248 -1.8105  0.7171  0.3371
14106TIP3    H263810   3.016   4.569  12.312 -0.3896 -0.4080  0.8564
14107TIP3   OH263811   0.650   0.761  15.244 -0.1194 -0.1752  0.0407
14107TIP3    H163812   0.607   0.677  15.260  0.4131 -0.9023 -2.0541
14107TIP3    H263813   0.583   0.813  15.199 -0.5686  0.6608  1.6747
14108TIP3   OH263814   5.767   2.236  15.705 -0.4802 -0.3119 -0.0674
14108TIP3    H163815   5.733   2.278  15.784 -3.4929  0.3339 -1.6259
14108TIP3    H263816   5.833   2.297  15.672 -2.2041  1.4662 -0.3111
14109TIP3   OH263817   5.357   6.217  12.115  0.1204 -0.3013 -0.7724
14109TIP3    H163818   5.374   6.309  12.136  0.9751 -0.2467 -1.6751
14109TIP3    H263819   5.323   6.180  12.197  2.8529  0.0466  0.5967
14110TIP3   OH263820   4.100   5.051  13.113 -0.3946  0.7101  0.8105
14110TIP3    H163821   4.101   5.098  13.196 -1.3730  0.9639  0.6837
14110TIP3    H263822   4.105   5.119  13.046  1.1743  0.4627  0.6632
14111TIP3   OH263823   6.749   2.990  13.393 -0.1034  0.3853 -0.2624
14111TIP3    H163824   6.832   2.952  13.422  0.0890  0.8973 -0.1306
14111TIP3    H263825   6.719   3.043  13.467  0.1686  1.3362 -0.8123
14112TIP3   OH263826   1.740   0.781   4.329 -0.6110  0.1726  0.1602
14112TIP3    H163827   1.738   0.867   4.286  2.1864 -0.9129 -2.2841
14112TIP3    H263828   1.794   0.795   4.407  1.3331  0.2958 -1.1649
14113TIP3   OH263829   1.971   4.738   4.919  0.6579  0.3483 -0.3761
14113TIP3    H163830   1.891   4.765   4.874  1.1717  0.3190 -1.3070
14113TIP3    H263831   2.027   4.816   4.916  1.6859 -0.4416 -2.0233
14114TIP3   OH263832   2.287   5.794   2.415  0.3631 -0.5027  0.3377
14114TIP3    H163833   2.321   5.823   2.499 -0.9410  0.6974  0.4692
14114TIP3    H263834   2.352   5.824   2.351  0.8832 -0.5826  0.8305
14115TIP3   OH263835   0.811   6.805  11.367  1.0095  0.1503 -0.4615
14115TIP3    H163836   0.801   6.885  11.419  0.1427 -0.1434 -0.1623
14115TIP3    H263837   0.796   6.734  11.429  1.7139 -0.2421 -0.7374
14116TIP3   OH263838   1.035   2.131   1.782  0.0115  0.0051 -0.4630
14116TIP3    H163839   0.953   2.147   1.733 -0.1518  1.0125  0.1335
14116TIP3    H263840   1.096   2.195   1.747  1.3350 -2.3770 -2.6972
14117TIP3   OH263841   6.461   2.005  11.940  0.0415 -0.0800 -1.0118
14117TIP3    H163842   6.534   2.010  11.879  0.5922 -0.7423 -0.4170
14117TIP3    H263843   6.414   2.088  11.929  2.4164  1.5126  0.5530
14118TIP3   OH263844   5.828   5.870  15.685 -0.3673  0.3688  0.0465
14118TIP3    H163845   5.761   5.933  15.659  0.2624  1.7636  1.7475
14118TIP3    H263846   5.827   5.871  15.780  0.9797 -0.7906  0.0888
14119TIP3   OH263847   2.550   1.945  13.618 -0.2225  0.0990  0.1389
14119TIP3    H163848   2.575   1.995  13.540 -0.6960  0.0851 -0.0249
14119TIP3    H263849   2.469   1.986  13.648  1.4694  1.9290  2.3174
14120TIP3   OH263850   3.245   2.192  11.967 -0.4886 -0.2765  0.2900
14120TIP3    H163851   3.339   2.204  11.956 -0.7556  0.4850 -1.2851
14120TIP3    H263852   3.228   2.104  11.934 -0.4412 -0.1287 -0.1292
14121TIP3   OH263853   3.484   0.137   4.999  0.0120  0.2710 -0.0550
14121TIP3    H163854   3.511   0.147   5.090  1.4691 -2.8845 -0.1000
14121TIP3    H263855   3.388   0.132   5.003  0.0416  0.5520  1.2226
14122TIP3   OH263856   5.408   0.838  11.752  0.0883 -0.0131 -0.1296
14122TIP3    H163857   5.374   0.803  11.670  0.0890 -1.8524  0.6249
14122TIP3    H263858   5.351   0.801  11.819  1.1563  0.0538  0.8277
14123TIP3   OH263859   0.365   4.602  12.197 -0.5590  0.2838  0.0266
14123TIP3    H163860   0.388   4.516  12.163 -0.5799  0.3128 -0.0606
14123TIP3    H263861   0.447   4.652  12.194 -0.2962 -0.0717  1.0902
14124TIP3   OH263862   5.328   2.870   1.821 -0.1606  0.3781  0.2113
14124TIP3    H163863   5.292   2.825   1.745 -0.2337 -0.4140  0.7052
14124TIP3    H263864   5.352   2.957   1.789  2.2628 -0.8202 -1.3413
14125TIP3   OH263865   5.751   0.197   2.359 -0.0514 -0.1392  1.0018
14125TIP3    H163866   5.711   0.238   2.282  1.6914  0.6744  0.5169
14125TIP3    H263867   5.710   0.242   2.434  0.8499  1.5720  0.4936
14126TIP3   OH263868   1.439   6.613  16.031 -0.3306 -0.1114  0.0415
14126TIP3    H163869   1.381   6.687  16.015  1.5693  1.7522  1.5414
14126TIP3    H263870   1.471   6.589  15.944 -3.7207 -1.5613 -0.8853
14127TIP3   OH263871   0.835   4.704  12.804  0.2395 -0.2810  0.9409
14127TIP3    H163872   0.920   4.721  12.764 -0.1054 -1.8489 -0.5354
14127TIP3    H263873   0.853   4.642  12.874  0.4487  0.2506  1.3649
14128TIP3   OH263874   5.910   1.770   3.629  0.1782  0.2813 -0.5143
14128TIP3    H163875   5.823   1.746   3.596  0.3802 -0.0138 -0.8321
14128TIP3    H263876   5.902   1.761   3.724  0.2850 -1.2074 -0.6349
14129TIP3   OH263877   0.674   3.455   2.422 -0.3842 -0.1451  0.8962
14129TIP3    H163878   0.738   3.395   2.383  1.0680  0.7381  1.8813
14129TIP3    H263879   0.594   3.402   2.430  0.4014 -1.4613  0.2613
14130TIP3   OH263880   5.631   1.053   1.127  0.3363 -0.4562 -0.0056
14130TIP3    H163881   5.655   1.002   1.050  0.4924 -0.7380  0.2293
14130TIP3    H263882   5.536   1.053   1.128  0.3097  0.5840 -0.8880
14131TIP3   OH263883   2.779   5.705  15.974  0.3993  0.1692 -0.0078
14131TIP3    H163884   2.842   5.725  15.904  0.1947  0.3174 -0.1517
14131TIP3    H263885   2.799   5.769  16.042 -1.5618  2.2095 -1.2740
14132TIP3   OH263886   6.775   1.931   0.121 -0.3148  0.4341  0.4732
14132TIP3    H163887   6.758   2.020   0.090 -1.1210  0.4528  0.9625
14132TIP3    H263888   6.799   1.942   0.213  0.7168  0.2517  0.2263
14133TIP3   OH263889   2.757   4.145   3.474  0.1843 -0.7129  0.0392
14133TIP3    H163890   2.703   4.180   3.403  0.3373 -0.9241 -0.1810
14133TIP3    H263891   2.837   4.199   3.472  0.2185 -0.7652  0.0051
14134TIP3   OH263892   3.093   4.194  12.743 -0.3764  0.6621 -0.8189
14134TIP3    H163893   3.019   4.143  12.710  0.5976 -3.0328  2.4311
14134TIP3    H263894   3.056   4.250  12.811 -0.7624  1.5137 -1.7118
14135TIP3   OH263895   0.901   0.596  12.950 -0.1149 -0.0681 -0.3331
14135TIP3    H163896   0.963   0.601  12.878 -0.0042  0.0029 -0.2337
14135TIP3    H263897   0.906   0.505  12.979 -0.0924 -0.0735 -0.3547
14136TIP3   OH263898   6.221   4.211  13.643  0.2570 -0.1325 -0.9339
14136TIP3    H163899   6.144   4.255  13.607 -0.8832 -0.3159  1.1969
14136TIP3    H263900   6.263   4.169  13.568 -2.5577 -1.2815 -1.9104
14137TIP3   OH263901   5.642   0.692   1.507  0.4880  0.1144  0.2914
14137TIP3    H163902   5.729   0.695   1.468  1.5696 -1.3126  2.4911
14137TIP3    H263903   5.654   0.729   1.594 -1.2651  0.5345  0.3754
14138TIP3   OH263904   0.268   1.826   1.958 -0.7257  0.4057 -1.1711
14138TIP3    H163905   0.217   1.906   1.966 -0.6449  0.3851 -0.4041
14138TIP3    H263906   0.205   1.756   1.971 -0.5898  0.3701 -0.6933
14139TIP3   OH263907   3.358   3.679   2.578  0.6933 -0.4373  0.5509
14139TIP3    H163908   3.353   3.639   2.491 -2.5697 -2.6987  1.7078
14139TIP3    H263909   3.446   3.656   2.610  1.3746 -0.8074 -1.5112
14140TIP3   OH263910   2.904   3.411  15.286  0.2374 -0.7328  0.0038
14140TIP3    H163911   2.967   3.406  15.358 -0.4211  0.6618  0.6835
14140TIP3    H263912   2.822   3.439  15.328  0.0989  1.0703 -1.4421
14141TIP3   OH263913   2.316   3.885   1.040  0.4315  0.3915  0.6420
14141TIP3    H163914   2.271   3.810   1.080 -0.0699 -2.0068 -4.0911
14141TIP3    H263915   2.404   3.852   1.022  0.2810  0.9962 -1.2793
14142TIP3   OH263916   5.432   6.709  14.963  0.0217 -0.0069 -0.2026
14142TIP3    H163917   5.391   6.679  14.882 -0.5136  0.9558 -0.2839
14142TIP3    H263918   5.392   6.655  15.032 -0.5972  0.1934 -0.4059
14143TIP3   OH263919   3.261   6.424  13.570  0.0917 -1.0636 -0.1588
14143TIP3    H163920   3.211   6.345  13.591 -0.9425 -0.3727 -0.0328
14143TIP3    H263921   3.197   6.495  13.574  0.9344 -0.2723 -0.6935
14144TIP3   OH263922   0.412   0.170  16.530 -0.4452  0.4345 -0.3615
14144TIP3    H163923   0.369   0.234  16.474  1.0466  1.5926 -0.2446
14144TIP3    H263924   0.397   0.086  16.487 -1.3467  1.0201 -1.2147
14145TIP3   OH263925   4.003   3.332   5.789 -0.1763  0.0445  0.0299
14145TIP3    H163926   3.911   3.354   5.807 -0.0604  1.0835 -0.5910
14145TIP3    H263927   4.000   3.280   5.709 -0.2065  0.2761 -0.1200
14146TIP3   OH263928   0.777   0.049   3.783 -0.8048 -0.3465  0.1028
14146TIP3    H163929   0.699   0.048   3.838  0.4033 -1.0601  1.8369
14146TIP3    H263930   0.837   0.109   3.827 -0.3116  0.1110 -1.1653
14147TIP3   OH263931   3.707   0.415   3.902 -0.9635  0.3614  0.0942
14147TIP3    H163932   3.741   0.431   3.814  0.8274 -0.7745  0.5447
14147TIP3    H263933   3.614   0.398   3.890 -0.8246  0.6880 -1.5231
14148TIP3   OH263934   0.655   0.790  13.275  0.1910  0.2510 -0.6266
14148TIP3    H163935   0.642   0.724  13.207 -1.1994 -0.2659  0.1251
14148TIP3    H263936   0.649   0.873  13.228  0.4927 -0.1253 -1.3413
14149TIP3   OH263937   2.387   6.405  12.689  0.3219 -0.2426 -0.3468
14149TIP3    H163938   2.471   6.362  12.676 -0.2638 -2.0132  1.4776
14149TIP3    H263939   2.352   6.368  12.770 -1.4793  1.6679 -0.1755
14150TIP3   OH263940   3.135   6.241  12.382  0.4076 -0.0853 -0.6024
14150TIP3    H163941   3.186   6.181  12.329  0.6479 -1.5340  1.2136
14150TIP3    H263942   3.192   6.264  12.455 -0.3488  0.8953 -0.2993
14151TIP3   OH263943   4.694   2.203   5.659  0.2744 -0.2751 -0.3620
14151TIP3    H163944   4.716   2.128   5.714  0.6525 -0.6766 -1.0517
14151TIP3    H263945   4.773   2.256   5.659 -0.2214  0.4823  0.6873
14152TIP3   OH263946   4.763   2.118   5.198 -0.5915 -0.2645 -0.4692
14152TIP3    H163947   4.711   2.156   5.269 -0.9513 -0.1034 -0.8181
14152TIP3    H263948   4.704   2.116   5.123 -0.6911 -1.8556 -0.3611
14153TIP3   OH263949   1.635   6.435  15.181  0.6108 -0.3147 -0.2407
14153TIP3    H163950   1.648   6.356  15.129 -1.0778 -0.5202 -0.3870
14153TIP3    H263951   1.570   6.485  15.133  1.1171  0.8296  0.2326
14154TIP3   OH263952   2.737   0.863  14.658 -0.1480 -0.3163  0.2818
14154TIP3    H163953   2.680   0.849  14.583  1.4440  0.6296 -1.1474
14154TIP3    H263954   2.808   0.918  14.624  0.8083 -0.2012  2.3820
14155TIP3   OH263955   6.193   6.010  14.275  0.5215  0.3764  0.8281
14155TIP3    H163956   6.207   5.919  14.251 -0.5138  0.6350 -0.8493
14155TIP3    H263957   6.238   6.060  14.206 -0.3685  1.1362  0.7861
14156TIP3   OH263958   5.952   6.550  15.158 -0.3614  0.4144  0.4470
14156TIP3    H163959   5.950   6.614  15.230  1.6486 -0.2643  1.1366
14156TIP3    H263960   5.995   6.596  15.086 -1.8506  0.8955 -0.1626
14157TIP3   OH263961   5.976   5.950   4.855  0.5450 -0.1902 -0.2016
14157TIP3    H163962   6.035   5.974   4.926 -1.7941 -1.0768  2.0975
14157TIP3    H263963   6.021   5.879   4.810  1.7076 -0.1255  0.8326
14158TIP3   OH263964   0.995   1.594  13.352  0.4023  0.3458 -0.6003
14158TIP3    H163965   0.916   1.541  13.366  0.5517  0.1694 -0.4268
14158TIP3    H263966   1.063   1.530  13.331  1.0510  0.2869  1.5684
14159TIP3   OH263967   1.875   5.420   6.371 -1.0398  0.3348  0.2820
14159TIP3    H163968   1.924   5.380   6.442 -0.7436  0.8159  0.3546
14159TIP3    H263969   1.785   5.389   6.382 -0.6138 -1.1237 -0.2703
14160TIP3   OH263970   4.929   5.728   2.339  0.1346  0.5703 -0.3005
14160TIP3    H163971   4.984   5.806   2.337  1.7633 -0.4670  1.7374
14160TIP3    H263972   4.980   5.664   2.388 -2.0196 -1.1222 -0.1814
14161TIP3   OH263973   0.852   4.208   6.238  0.2212 -0.4063  0.1729
14161TIP3    H163974   0.899   4.133   6.201  1.3148 -0.6351  1.9621
14161TIP3    H263975   0.917   4.250   6.295 -1.4579 -0.1227  1.8913
14162TIP3   OH263976   4.119   4.084   3.966  0.2236  0.4048  0.7876
14162TIP3    H163977   4.165   4.020   3.912  0.0405 -1.0035  2.2709
14162TIP3    H263978   4.029   4.052   3.971 -0.0657  1.2129  0.8736
14163TIP3   OH263979   1.004   2.973   2.530 -0.1367 -0.6121  0.0012
14163TIP3    H163980   1.083   2.934   2.567 -1.3387 -0.2980  3.0462
14163TIP3    H263981   0.971   2.908   2.468  1.9685 -1.1499 -0.5722
14164TIP3   OH263982   4.591   1.945  12.437  0.0467  0.2958 -0.6005
14164TIP3    H163983   4.541   1.960  12.517  1.9047 -0.8651  0.8078
14164TIP3    H263984   4.543   1.875  12.392 -0.2329 -0.0175  0.1761
14165TIP3   OH263985   0.547   6.589  13.220  0.4871 -0.0888 -0.4593
14165TIP3    H163986   0.608   6.517  13.237  0.1588 -0.2302  0.1441
14165TIP3    H263987   0.541   6.635  13.304 -0.5377 -0.2997 -0.4179
14166TIP3   OH263988   6.695   6.202  17.125 -0.4518 -0.3728  0.4541
14166TIP3    H163989   6.643   6.214  17.046  0.0824 -0.9419  0.0070
14166TIP3    H263990   6.749   6.126  17.106  2.7003  1.9294 -0.2627
14167TIP3   OH263991   2.676   3.372   0.387  0.3184  0.4051 -0.0740
14167TIP3    H163992   2.644   3.461   0.398  0.6371  0.5664 -0.4175
14167TIP3    H263993   2.771   3.381   0.383  0.3215  0.1287 -0.7788
14168TIP3   OH263994   6.468   5.886  14.995  0.1190  0.4674 -0.5143
14168TIP3    H163995   6.407   5.838  15.051  0.8590  1.2797  1.0156
14168TIP3    H263996   6.554   5.849  15.016  0.1574 -0.8807 -2.8793
14169TIP3   OH263997   0.188   5.914   1.462 -0.0007  0.6447 -1.0290
14169TIP3    H163998   0.096   5.892   1.474  0.4848 -0.9450 -0.0437
14169TIP3    H263999   0.220   5.933   1.550  1.3844 -2.0710 -0.8739
14170TIP3   OH264000   6.089   2.584   0.987  0.1337 -0.1400 -1.3153
14170TIP3    H164001   6.041   2.564   1.067  0.3820  2.0989 -0.5823
14170TIP3    H264002   6.146   2.508   0.973  0.0635 -0.5551  0.5985
14171TIP3   OH264003   0.363   2.938  15.582  0.2006 -0.9275 -0.0537
14171TIP3    H164004   0.427   2.900  15.522 -0.4384 -0.0850 -1.2783
14171TIP3    H264005   0.411   2.949  15.664  2.0319  0.9262 -1.3226
14172TIP3   OH264006   5.315   3.767   2.712  0.1349 -0.1272  0.4400
14172TIP3    H164007   5.304   3.744   2.620  1.8151  2.0761 -0.3610
14172TIP3    H264008   5.228   3.795   2.740 -0.1643  0.1779 -0.7677
14173TIP3   OH264009   3.726   2.932  13.537 -0.2224  0.1417 -0.2049
14173TIP3    H164010   3.665   3.001  13.564 -2.0713 -2.1599  1.7188
14173TIP3    H264011   3.711   2.923  13.443 -2.3351  0.1847  0.0868
14174TIP3   OH264012   4.131   2.790   2.412 -0.1861 -0.1881  0.0570
14174TIP3    H164013   4.100   2.822   2.497 -0.8942 -2.7135  0.7702
14174TIP3    H264014   4.091   2.850   2.349 -1.1074  0.6295  1.3844
14175TIP3   OH264015   3.974   6.504  11.062 -0.1568  0.1153  0.0422
14175TIP3    H164016   3.895   6.544  11.025 -0.2178 -0.6472 -0.6706
14175TIP3    H264017   4.034   6.577  11.077  0.4239  0.2935 -2.9082
14176TIP3   OH264018   0.033   1.426   1.248 -0.2815 -0.6513 -0.0795
14176TIP3    H164019   0.050   1.356   1.184  0.7635 -0.5800  0.1187
14176TIP3    H264020  -0.039   1.392   1.302 -1.5013 -0.5235 -1.5746
14177TIP3   OH264021   1.372   6.390   2.980 -0.5820 -0.1065 -0.0495
14177TIP3    H164022   1.314   6.383   3.056 -0.1078  1.6665  0.5132
14177TIP3    H264023   1.335   6.462   2.928 -0.6756 -1.0486 -1.3022
14178TIP3   OH264024   4.956   3.086  15.744  0.4112  0.3146 -0.7462
14178TIP3    H164025   4.882   3.031  15.717 -0.8670  0.8938  1.4808
14178TIP3    H264026   5.033   3.032  15.729 -0.7710 -1.8278  0.6888
14179TIP3   OH264027   6.321   3.631  13.029  0.2423 -0.4665  0.6382
14179TIP3    H164028   6.372   3.551  13.013  0.4299  0.3238 -3.0733
14179TIP3    H264029   6.248   3.626  12.968  1.0328  2.8071 -0.7102
14180TIP3   OH264030   2.823   1.628  12.450 -0.2172 -0.1069 -0.1233
14180TIP3    H164031   2.736   1.654  12.481 -1.3863 -1.6791 -1.8979
14180TIP3    H264032   2.837   1.680  12.371  1.0260  1.0613  0.8546
14181TIP3   OH264033   6.190   4.672   2.854  0.4627  0.0763  0.4794
14181TIP3    H164034   6.218   4.751   2.901  1.8862 -0.3611  0.4071
14181TIP3    H264035   6.097   4.686   2.836  0.8892  2.1461 -0.3180
14182TIP3   OH264036   4.025   4.370   2.463  0.1169 -0.3562 -0.1706
14182TIP3    H164037   4.012   4.414   2.380  0.3737  1.7395  0.8684
14182TIP3    H264038   4.110   4.327   2.455  1.0776  1.5245 -0.2801
14183TIP3   OH264039   2.671   2.045  15.476  0.5405 -0.2994 -0.2177
14183TIP3    H164040   2.715   2.123  15.443  0.4607  1.8827  4.4627
14183TIP3    H264041   2.742   1.986  15.503  0.5972 -0.3002 -0.3692
14184TIP3   OH264042   2.933   1.465   5.892 -0.3799 -0.5914 -0.1131
14184TIP3    H164043   2.900   1.551   5.868 -0.7099 -0.6681  0.0538
14184TIP3    H264044   2.918   1.411   5.814  2.6386  0.2434 -1.3204
14185TIP3   OH264045   6.442   5.892   3.429 -0.3424 -0.3657  0.4568
14185TIP3    H164046   6.355   5.887   3.389  0.5828  1.2274 -1.8798
14185TIP3    H264047   6.446   5.980   3.468  0.4561 -0.1696 -0.0507
14186TIP3   OH264048   6.520   2.118  12.707  0.7915  0.2433  0.3866
14186TIP3    H164049   6.573   2.039  12.710  1.6190  0.7996  0.5278
14186TIP3    H264050   6.430   2.086  12.698  0.8959 -0.7823  2.6898
14187TIP3   OH264051   2.367   2.504   0.156 -0.2687 -0.1277  0.3131
14187TIP3    H164052   2.457   2.472   0.155 -0.7124 -1.4293 -0.3916
14187TIP3    H264053   2.360   2.556   0.076 -0.5780 -1.3488 -0.4713
14188TIP3   OH264054   5.580   1.568   1.076 -0.4019 -0.2354  0.3516
14188TIP3    H164055   5.497   1.522   1.094 -0.4556  0.3640  1.7511
14188TIP3    H264056   5.646   1.515   1.119 -0.2970  0.2750  0.8252
14189TIP3   OH264057   0.512   3.804  14.743  1.1085 -0.0906  0.3024
14189TIP3    H164058   0.505   3.744  14.817  2.3289 -0.3943  0.1731
14189TIP3    H264059   0.586   3.771  14.692  1.1005  0.8921 -0.3517
14190TIP3   OH264060   5.015   2.239   0.406  0.3481  0.1640 -0.1227
14190TIP3    H164061   4.931   2.202   0.378  0.6343  0.7993 -1.9225
14190TIP3    H264062   4.992   2.322   0.448 -0.0411 -0.4334  0.8474
14191TIP3   OH264063   2.767   4.264  15.263  0.1303  0.0977 -0.8363
14191TIP3    H164064   2.729   4.259  15.175  3.3467  0.3772 -2.2821
14191TIP3    H264065   2.801   4.353  15.269  0.5390 -0.1453  0.4499
14192TIP3   OH264066   6.219   6.687  15.484 -0.0050 -0.3158 -0.4228
14192TIP3    H164067   6.135   6.732  15.495 -0.0399 -1.0492  2.4810
14192TIP3    H264068   6.283   6.758  15.475 -0.1558  0.4053  3.3993
14193TIP3   OH264069   3.092   2.393  15.885 -0.4283 -0.8190  0.4756
14193TIP3    H164070   3.023   2.441  15.839  1.4580  2.5061  0.9693
14193TIP3    H264071   3.103   2.313  15.833 -2.6082 -0.0493 -1.2907
14194TIP3   OH264072   2.378   6.330   2.515  0.0629 -0.1523  0.0617
14194TIP3    H164073   2.389   6.346   2.608 -0.1830  0.1402  0.0414
14194TIP3    H264074   2.365   6.417   2.477 -0.3571 -0.3178 -0.1745
14195TIP3   OH264075   1.075   1.105   0.426 -0.3455  0.1734 -0.1703
14195TIP3    H164076   1.112   1.038   0.484 -1.5854  0.0802  0.5390
14195TIP3    H264077   1.012   1.057   0.372 -1.2109  0.7526  0.3124
14196TIP3   OH264078   3.591   5.162  13.655 -0.0693  0.4942 -0.6765
14196TIP3    H164079   3.540   5.101  13.601 -0.3146  0.5985 -0.5606
14196TIP3    H264080   3.575   5.248  13.615  0.3004  0.4796 -0.8586
14197TIP3   OH264081   1.477   3.184   6.529 -0.1262  0.4488 -0.1374
14197TIP3    H164082   1.526   3.109   6.564  0.6622  0.3361 -1.4335
14197TIP3    H264083   1.516   3.260   6.571  0.3013  0.2570 -0.1750
14198TIP3   OH264084   4.408   4.085   5.096 -0.5700  1.1566 -0.5820
14198TIP3    H164085   4.401   4.001   5.140 -0.0810  2.7051  2.6236
14198TIP3    H264086   4.476   4.072   5.030 -1.3924 -1.2749 -0.9981
14199TIP3   OH264087   3.460   5.667  16.717  0.3587 -0.3189 -0.9001
14199TIP3    H164088   3.383   5.614  16.699  0.5541 -0.8179 -0.3012
14199TIP3    H264089   3.534   5.606  16.709  0.6983  0.1800 -1.5849
14200TIP3   OH264090   2.001   4.583   0.690 -0.0500  0.3817 -0.3688
14200TIP3    H164091   2.023   4.628   0.609  0.1560 -0.5260 -0.8163
14200TIP3    H264092   1.999   4.652   0.756  1.3067  0.9047 -0.8552
14201TIP3   OH264093   5.304   6.332   6.084  0.2006  0.6916 -0.1908
14201TIP3    H164094   5.397   6.347   6.105  0.4177  0.6548 -1.1050
14201TIP3    H264095   5.265   6.419   6.085  0.9094  1.1075 -2.8618
14202TIP3   OH264096   5.787   6.417  13.607 -0.3634 -0.1334 -0.0337
14202TIP3    H164097   5.726   6.486  13.580  1.8077  1.2861 -1.4795
14202TIP3    H264098   5.853   6.415  13.537  2.0070 -0.6447  2.1577
14203TIP3   OH264099   3.070   0.824   3.141 -0.1391 -0.4911 -0.4450
14203TIP3    H164100   3.051   0.757   3.206  4.7102 -1.0643  0.5649
14203TIP3    H264101   3.035   0.905   3.178  0.7814 -1.1731  1.9783
14204TIP3   OH264102   2.236   3.002  11.630 -0.6400  0.0818  0.2052
14204TIP3    H164103   2.296   2.957  11.690 -0.4535 -0.1108 -0.1193
14204TIP3    H264104   2.290   3.068  11.588 -0.6115 -0.1986 -0.2061
14205TIP3   OH264105   2.745   4.587  14.936  0.1078  0.1908  0.1736
14205TIP3    H164106   2.832   4.573  14.897 -0.3092  0.1193 -0.7267
14205TIP3    H264107   2.730   4.681  14.929 -0.6209 -0.0231 -1.2294
14206TIP3   OH264108   3.444   1.477  11.543  0.4164  0.0434 -0.0467
14206TIP3    H164109   3.480   1.519  11.621 -0.9647 -0.5014  0.9190
14206TIP3    H264110   3.354   1.511  11.538  0.4245 -0.1232 -1.2493
14207TIP3   OH264111   4.904   3.809   3.579 -0.4860 -0.2913 -0.2356
14207TIP3    H164112   4.951   3.857   3.510  0.2356 -2.7246 -1.4790
14207TIP3    H264113   4.834   3.763   3.533 -0.0596 -1.8620  0.6787
14208TIP3   OH264114   4.962   6.221   3.375  0.1445 -0.1805 -0.3672
14208TIP3    H164115   4.954   6.316   3.371 -0.9825 -0.2201  0.5138
14208TIP3    H264116   4.991   6.195   3.288  3.3928  1.2242  0.2303
14209TIP3   OH264117   2.564   5.451  11.576 -0.4316 -0.1206 -0.3756
14209TIP3    H164118   2.536   5.450  11.667 -2.6160 -0.5372 -1.0229
14209TIP3    H264119   2.515   5.523  11.536  0.0074 -0.3641 -1.3710
14210TIP3   OH264120   1.930   4.198  14.574 -0.5846  0.2587  0.8811
14210TIP3    H164121   1.972   4.156  14.499  1.6638  1.7090  1.2780
14210TIP3    H264122   1.952   4.141  14.648 -2.0733 -0.7059  0.6048
14211TIP3   OH264123   5.401   4.551   0.701  0.0917 -0.4331 -0.2265
14211TIP3    H164124   5.412   4.562   0.796 -0.7781 -1.9686  0.0805
14211TIP3    H264125   5.484   4.581   0.664  0.9107 -0.9276  1.1307
14212TIP3   OH264126   2.935   4.525   3.587  0.5642  0.5058  1.0960
14212TIP3    H164127   2.926   4.603   3.641 -2.2843  0.0654  1.3033
14212TIP3    H264128   2.978   4.461   3.644  1.0734  1.2665  1.5693
14213TIP3   OH264129   2.281   1.245  13.259  0.3787 -0.2447 -0.0784
14213TIP3    H164130   2.346   1.183  13.225 -0.1655  0.0430 -1.6653
14213TIP3    H264131   2.320   1.331  13.246  0.8673 -0.1920  1.5644
14214TIP3   OH264132   3.095   5.788   2.791 -0.3832  0.4145  0.0397
14214TIP3    H164133   3.085   5.864   2.848 -0.6840  0.6543 -0.3240
14214TIP3    H264134   3.188   5.786   2.770 -0.7006  1.9959 -1.7103
14215TIP3   OH264135   0.929   4.559  13.601 -0.5342 -0.6634 -0.1072
14215TIP3    H164136   0.967   4.492  13.544  0.8048 -0.1177  0.1451
14215TIP3    H264137   0.911   4.633  13.543  1.6333  0.2203  0.3010
14216TIP3   OH264138   4.923   5.024  15.523  0.1006 -0.1634  0.4608
14216TIP3    H164139   4.980   4.951  15.546  0.4723 -0.2041 -0.5376
14216TIP3    H264140   4.937   5.036  15.429 -2.0559 -0.6412  0.0493
14217TIP3   OH264141   5.152   6.687  11.035  0.0643 -0.4448 -0.0252
14217TIP3    H164142   5.145   6.781  11.056  2.8652 -0.2800  0.2823
14217TIP3    H264143   5.090   6.675  10.963  0.0389  1.7451 -0.4224
14218TIP3   OH264144   0.112   6.775   5.251 -0.0615 -0.4525  0.2179
14218TIP3    H164145   0.136   6.756   5.342 -0.1399 -2.5286 -0.1720
14218TIP3    H264146   0.025   6.815   5.258  0.5709  0.8359  1.1354
14219TIP3   OH264147   6.701   4.567  12.985  0.1516 -0.7240  0.4751
14219TIP3    H164148   6.776   4.627  12.979  0.9300 -1.7383 -0.3104
14219TIP3    H264149   6.644   4.593  12.912  0.6359 -1.1110 -0.0526
14220TIP3   OH264150   5.645   5.018  14.424 -0.2274  0.1136 -0.3079
14220TIP3    H164151   5.737   4.998  14.409 -0.2739 -0.0068 -0.4307
14220TIP3    H264152   5.646   5.084  14.494  0.0277  1.1933 -1.3074
14221TIP3   OH264153   4.379   1.096  16.046  0.4832 -0.4763 -0.2487
14221TIP3    H164154   4.310   1.039  16.082  0.1614 -1.0561 -1.7408
14221TIP3    H264155   4.456   1.077  16.100 -0.2059 -0.6961  0.6782
14222TIP3   OH264156   2.135   6.608  13.292  0.1444  0.0864 -0.0888
14222TIP3    H164157   2.109   6.540  13.354  0.2011  0.4098  0.2922
14222TIP3    H264158   2.171   6.677  13.347  0.8830  0.0583 -0.5454
14223TIP3   OH264159   6.229   5.604  17.224  0.2602 -0.0407  0.0373
14223TIP3    H164160   6.279   5.672  17.179 -0.1638  0.0609 -0.2802
14223TIP3    H264161   6.138   5.634  17.219 -0.0927 -1.3061 -1.3048
14224TIP3   OH264162   3.621   3.834   2.477 -0.7718 -0.5304  0.0515
14224TIP3    H164163   3.636   3.756   2.530  1.7086  0.2151  0.5039
14224TIP3    H264164   3.694   3.836   2.415 -1.0861  1.1456 -0.2936
14225TIP3   OH264165   6.531   4.291   0.013  0.3444 -0.0955 -0.4578
14225TIP3    H164166   6.452   4.261  -0.032 -0.6273  1.5090  0.1484
14225TIP3    H264167   6.526   4.251   0.100  1.0540 -1.3160 -0.9564
14226TIP3   OH264168   2.699   2.594  15.440  0.0473 -0.4564 -0.0407
14226TIP3    H164169   2.769   2.649  15.404  2.3914 -3.2063  0.2024
14226TIP3    H264170   2.652   2.562  15.362 -0.8646  1.2352 -0.2100
14227TIP3   OH264171   3.185   3.889   0.123  0.0849 -0.2038  0.2979
14227TIP3    H164172   3.253   3.929   0.177 -0.6319  1.8207 -0.2485
14227TIP3    H264173   3.213   3.798   0.113  2.3434  0.4123  0.6565
14228TIP3   OH264174   4.532   1.033   0.739 -0.6554  0.0373  0.1886
14228TIP3    H164175   4.464   0.972   0.767  0.4451 -2.6296 -2.6796
14228TIP3    H264176   4.497   1.074   0.660  0.0947  0.4741  0.0732
14229TIP3   OH264177   1.879   5.762   6.316 -0.5532  0.4444 -0.6973
14229TIP3    H164178   1.974   5.751   6.323 -0.7498 -1.1065 -0.0751
14229TIP3    H264179   1.858   5.741   6.225 -0.4574 -0.6605 -0.4714
14230TIP3   OH264180   5.633   0.629  12.111 -0.2271  0.1901  0.2592
14230TIP3    H164181   5.622   0.616  12.205  1.8522 -2.6004  0.1656
14230TIP3    H264182   5.689   0.706  12.105 -2.4576  1.9466  1.1911
14231TIP3   OH264183   0.153   2.671   1.775 -0.0218  0.0958 -0.7919
14231TIP3    H164184   0.191   2.625   1.850 -1.0764 -1.2449 -1.0378
14231TIP3    H264185   0.216   2.658   1.704  0.7573  0.9713 -0.2646
14232TIP3   OH264186   6.603   3.050   3.879 -0.1334 -0.0278  0.0990
14232TIP3    H164187   6.677   3.106   3.901  1.1608 -0.8457 -2.1017
14232TIP3    H264188   6.612   2.974   3.937 -1.0799  1.2861  2.0563
14233TIP3   OH264189   3.729   1.044  13.240 -0.4036 -0.1397 -0.6472
14233TIP3    H164190   3.779   1.096  13.302 -0.7656 -0.1647 -0.3295
14233TIP3    H264191   3.739   1.089  13.156  0.0142 -0.0565 -0.5544
14234TIP3   OH264192   3.151   0.154   0.986 -0.5642 -0.3444 -0.0437
14234TIP3    H164193   3.219   0.087   0.976  0.0208  0.3205 -0.6320
14234TIP3    H264194   3.200   0.236   0.994 -1.2272 -0.0760  1.6760
14235TIP3   OH264195   3.845   5.339  15.289 -0.0506  0.1426  0.1267
14235TIP3    H164196   3.847   5.411  15.353 -1.4859  0.4593 -0.1641
14235TIP3    H264197   3.803   5.267  15.335 -2.8636  0.9794 -1.0236
14236TIP3   OH264198   5.665   0.319  16.825  0.4113 -0.2389 -0.3027
14236TIP3    H164199   5.639   0.293  16.737  0.1145 -1.5905  0.1820
14236TIP3    H264200   5.736   0.383  16.811  1.0178 -1.1583 -1.4986
14237TIP3   OH264201   3.711   3.298  13.041  0.4828 -1.0500  0.4164
14237TIP3    H164202   3.775   3.304  13.112  0.6113  0.0069  0.2252
14237TIP3    H264203   3.627   3.320  13.081  0.3873 -1.4968  0.4653
14238TIP3   OH264204   1.181   4.875   3.992 -0.0013  0.3123  0.0486
14238TIP3    H164205   1.199   4.794   3.946 -0.7190 -0.2426  0.7376
14238TIP3    H264206   1.157   4.848   4.081  0.8286  1.3357  0.5984
14239TIP3   OH264207   5.622   2.400  16.330  0.5718  0.2556  0.1335
14239TIP3    H164208   5.712   2.365  16.330  1.0680  1.5086  0.2971
14239TIP3    H264209   5.609   2.434  16.418  0.0916  0.4823 -0.0231
14240TIP3   OH264210   0.276   6.751  15.664  0.0251  0.7102  0.1001
14240TIP3    H164211   0.212   6.716  15.726  1.0506 -0.1818  0.6729
14240TIP3    H264212   0.224   6.775  15.587 -0.7142 -2.0182 -0.2915
14241TIP3   OH264213   6.084   0.886  16.874 -0.4643 -0.5014 -0.1943
14241TIP3    H164214   6.017   0.875  16.807 -0.3857  0.5985 -0.4610
14241TIP3    H264215   6.074   0.977  16.904  1.7957  0.1289 -1.2030
14242TIP3   OH264216   6.206   5.495   6.481 -0.0195  0.2579  0.4534
14242TIP3    H164217   6.262   5.518   6.555  1.3999 -1.9550  0.1107
14242TIP3    H264218   6.155   5.420   6.512 -0.5812  0.3372 -0.2682
14243TIP3   OH264219   4.635   2.642  16.071 -0.2338  0.8031 -0.2411
14243TIP3    H164220   4.582   2.624  16.149 -1.0132 -0.5528 -1.0589
14243TIP3    H264221   4.719   2.600  16.089  0.7300  3.2368  1.2013
14244TIP3   OH264222   0.932   6.181   0.113 -0.4658  0.0349  0.4378
14244TIP3    H164223   0.979   6.255   0.150  3.2589 -1.8141 -0.2982
14244TIP3    H264224   0.966   6.105   0.160 -0.2569 -1.7134 -2.4148
14245TIP3   OH264225   2.138   5.526   3.209  0.0814 -0.2514  0.0564
14245TIP3    H164226   2.118   5.471   3.133  0.0437  0.7341 -0.6593
14245TIP3    H264227   2.070   5.504   3.273 -0.4187 -0.4300 -0.5348
14246TIP3   OH264228   6.160   2.133  14.890  0.5164 -0.3236  0.5591
14246TIP3    H164229   6.185   2.042  14.900 -1.3895 -1.0436 -0.9050
14246TIP3    H264230   6.193   2.159  14.804 -0.4002 -0.1581  0.2473
14247TIP3   OH264231   0.151   3.670   5.968  0.4372  0.6965 -0.2238
14247TIP3    H164232   0.186   3.632   6.048 -0.4212  1.0590  0.3343
14247TIP3    H264233   0.105   3.748   5.997  0.2435  0.9084 -1.0918
14248TIP3   OH264234   2.170   4.939  14.542 -0.0786  0.1174  0.0956
14248TIP3    H164235   2.205   4.857  14.576  0.5802  0.6328  0.6724
14248TIP3    H264236   2.196   5.005  14.607 -1.1128  0.6892 -0.0607
14249TIP3   OH264237   0.276   1.341  15.980  0.2334  0.6032 -0.1702
14249TIP3    H164238   0.308   1.312  15.895  0.5168 -1.9948  0.7846
14249TIP3    H264239   0.184   1.312  15.982  0.3831  0.1681  0.6117
14250TIP3   OH264240   3.737   1.739   4.252 -0.0641 -0.1538  0.5444
14250TIP3    H164241   3.705   1.649   4.264  2.0855 -0.7358  2.2967
14250TIP3    H264242   3.676   1.778   4.189 -1.0740 -2.8159 -0.2079
14251TIP3   OH264243   0.492   1.258  13.526 -0.0031 -0.0441 -0.2091
14251TIP3    H164244   0.483   1.237  13.433  0.7934 -0.2968 -0.2341
14251TIP3    H264245   0.584   1.241  13.545 -0.2276 -0.2553  0.6896
14252TIP3   OH264246   0.256   5.889  16.449  0.3519 -0.5508 -0.2208
14252TIP3    H164247   0.318   5.891  16.376 -0.2326  0.7547 -0.6977
14252TIP3    H264248   0.294   5.949  16.515  2.5994 -4.2518  2.0114
14253TIP3   OH264249   1.372   0.626  15.103 -0.4433 -0.0156 -0.4134
14253TIP3    H164250   1.376   0.722  15.101 -0.7579 -0.0209 -1.1926
14253TIP3    H264251   1.284   0.605  15.075 -0.8199 -0.4971  1.0608
14254TIP3   OH264252   6.746   0.338   3.212 -0.1436  0.5886 -0.4722
14254TIP3    H164253   6.724   0.420   3.168  1.0260  0.7400 -0.7739
14254TIP3    H264254   6.824   0.306   3.168  1.3057  0.9558  1.7323
14255TIP3   OH264255   1.039   2.363   5.787  0.5239  0.4114 -0.4976
14255TIP3    H164256   1.088   2.283   5.770 -0.3238 -0.2373  0.0417
14255TIP3    H264257   0.999   2.348   5.873 -1.1331  0.6647 -1.2163
14256TIP3   OH264258   3.153   5.560   3.984  0.1146  0.0416  0.2776
14256TIP3    H164259   3.234   5.583   3.938 -0.4676 -1.2593 -1.4541
14256TIP3    H264260   3.178   5.490   4.044  0.4925  0.3867  0.5217
14257TIP3   OH264261   6.788   6.547  14.849  0.0567 -0.2290 -0.1484
14257TIP3    H164262   6.766   6.528  14.940 -0.4525  0.8436 -0.0485
14257TIP3    H264263   6.703   6.552  14.805  0.3154 -1.1108 -0.7585
14258TIP3   OH264264   5.916   5.087  14.537 -0.0141 -0.0043  0.2895
14258TIP3    H164265   5.935   5.007  14.586 -0.1578  0.4015  1.0106
14258TIP3    H264266   5.985   5.148  14.563  1.3753 -0.5830 -1.9082
14259TIP3   OH264267   6.187   4.558   1.445  0.3519 -0.3111  0.2367
14259TIP3    H164268   6.201   4.516   1.360  2.8323  1.4831 -0.2910
14259TIP3    H264269   6.258   4.525   1.500  0.3730  0.6342  0.7876
14260TIP3   OH264270   0.398   1.386  13.829  0.1524  0.9355 -0.2001
14260TIP3    H164271   0.353   1.364  13.911 -0.1268  1.2211 -0.2765
14260TIP3    H264272   0.327   1.398  13.765  0.4519 -1.3639 -0.9985
14261TIP3   OH264273   4.745   0.652   1.733 -0.2604  0.0634  0.3223
14261TIP3    H164274   4.823   0.619   1.689  0.6903 -0.5117  2.3729
14261TIP3    H264275   4.774   0.675   1.821 -2.3010  0.2379  0.9956
14262TIP3   OH264276   0.004   5.685   1.731  0.3105  0.2568  0.4138
14262TIP3    H164277  -0.040   5.731   1.659  0.4779  0.7222  0.6005
14262TIP3    H264278  -0.054   5.612   1.752  0.3525  0.0009 -0.3210
14263TIP3   OH264279   1.467   1.300  13.227  0.4291  0.1649 -0.0837
14263TIP3    H164280   1.387   1.270  13.184  0.3294 -0.3702  0.4785
14263TIP3    H264281   1.538   1.261  13.176  0.2890 -2.4078  1.6267
14264TIP3   OH264282   5.521   4.954   0.114  0.1412  0.2398 -0.0908
14264TIP3    H164283   5.471   4.978   0.036  0.4152  2.9258  0.4990
14264TIP3    H264284   5.504   4.861   0.126 -3.3667  0.7121 -0.9040
14265TIP3   OH264285   6.305   0.309  12.433 -0.6027 -0.3309 -0.4618
14265TIP3    H164286   6.397   0.295  12.457 -1.1466  1.6660  3.1992
14265TIP3    H264287   6.302   0.399  12.402 -1.5550  0.1481  0.9543
14266TIP3   OH264288   5.894   6.110  12.423  0.4163  0.2419 -0.3440
14266TIP3    H164289   5.865   6.154  12.503  0.3956 -0.8721  0.2684
14266TIP3    H264290   5.886   6.017  12.443 -1.2039 -0.0428 -2.2413
14267TIP3   OH264291   4.214   2.909   2.837 -0.0646  0.2569 -0.8276
14267TIP3    H164292   4.256   2.914   2.751  0.2145 -0.8521 -0.7695
14267TIP3    H264293   4.128   2.873   2.819 -0.8614  2.1433 -0.8969
14268TIP3   OH264294   1.769   2.857   4.024 -0.0735 -0.0825 -0.2734
14268TIP3    H164295   1.838   2.912   3.987 -0.3704  0.4994  0.0432
14268TIP3    H264296   1.780   2.773   3.980 -0.2861  0.5319 -1.5299
14269TIP3   OH264297   0.956   5.676  11.573 -0.1025  0.1684 -0.0328
14269TIP3    H164298   1.050   5.665  11.562 -0.1735 -1.2032  0.6988
14269TIP3    H264299   0.943   5.678  11.668 -0.8740 -0.1081 -0.1335
14270TIP3   OH264300   1.703   0.766  15.003  0.7688  0.3640 -0.6901
14270TIP3    H164301   1.655   0.802  14.928  1.4377 -1.0127 -1.8060
14270TIP3    H264302   1.636   0.724  15.057  0.0140  3.0021  0.4915
14271TIP3   OH264303   0.589   6.763   6.287  0.2626  0.8109  0.0367
14271TIP3    H164304   0.658   6.698   6.275  0.2594  0.9795 -0.9766
14271TIP3    H264305   0.629   6.831   6.341  0.0120 -0.4063  1.7951
14272TIP3   OH264306   6.222   0.138  14.965 -0.0055 -0.0610 -0.1500
14272TIP3    H164307   6.240   0.157  14.873  0.4788 -0.1538 -0.0712
14272TIP3    H264308   6.308   0.128  15.005 -0.2486 -1.8316 -0.0616
14273TIP3   OH264309   5.915   2.936   0.618  0.4222 -0.3737  0.0973
14273TIP3    H164310   5.852   2.957   0.549 -0.5383  1.0829  1.3538
14273TIP3    H264311   5.860   2.902   0.690  1.3176 -1.1528  0.4199
14274TIP3   OH264312   6.543   5.891  14.489 -0.2350  0.5357 -0.3416
14274TIP3    H164313   6.470   5.919  14.543  0.5946  0.3727  0.8970
14274TIP3    H264314   6.504   5.864  14.406 -1.6397 -0.1879  0.5460
14275TIP3   OH264315   5.492   1.412   6.118 -0.2771 -0.0340 -0.2679
14275TIP3    H164316   5.415   1.428   6.064 -0.1926  0.0030 -0.3778
14275TIP3    H264317   5.457   1.390   6.204 -0.3969  0.8616 -0.0827
14276TIP3   OH264318   2.462   4.146  13.204 -0.0613 -0.6841 -0.1489
14276TIP3    H164319   2.435   4.223  13.155 -2.1758 -1.0787  0.3640
14276TIP3    H264320   2.516   4.096  13.143  2.2278  1.6829 -0.1551
14277TIP3   OH264321   3.244   5.522  16.981  0.2720  0.3617  0.7471
14277TIP3    H164322   3.330   5.482  16.982  0.2381  0.2694  0.3260
14277TIP3    H264323   3.212   5.508  16.892  0.5121  1.8690  0.4171
14278TIP3   OH264324   5.582   5.620  17.202  0.6781 -0.2883  0.9242
14278TIP3    H164325   5.497   5.656  17.225  1.0020 -0.1574  1.9688
14278TIP3    H264326   5.638   5.642  17.277  0.8225 -3.1533  1.7074
14279TIP3   OH264327   2.749   4.397   4.024 -0.0518  0.6106  0.8382
14279TIP3    H164328   2.718   4.358   4.106 -2.4219  0.6897  0.0228
14279TIP3    H264329   2.687   4.365   3.958  3.3319 -1.5868 -1.4259
14280TIP3   OH264330   2.268   2.704  12.369  0.4027  0.1651 -0.2658
14280TIP3    H164331   2.270   2.767  12.441 -1.4690  1.2216 -1.0820
14280TIP3    H264332   2.345   2.725  12.317 -0.0573  1.6506 -0.3907
14281TIP3   OH264333   1.755   3.535   5.690  0.3181 -0.5169 -0.2278
14281TIP3    H164334   1.846   3.555   5.714  0.3160 -0.4585 -0.2656
14281TIP3    H264335   1.730   3.607   5.632  0.7199 -1.2758 -1.3614
14282TIP3   OH264336   2.786   5.445  14.154 -0.5165  0.3831  0.0488
14282TIP3    H164337   2.837   5.490  14.088 -2.4387  0.8644 -1.1517
14282TIP3    H264338   2.846   5.432  14.227  1.0803  1.5637 -1.0398
14283TIP3   OH264339   3.953   1.936  16.281  0.1956  0.2865  0.4122
14283TIP3    H164340   3.982   1.854  16.321  1.4794  0.0082 -1.0341
14283TIP3    H264341   3.980   2.003  16.343 -0.6435 -0.3678  1.4932
14284TIP3   OH264342   4.387   4.870   0.438  0.5272 -0.5287 -0.7993
14284TIP3    H164343   4.445   4.934   0.397  0.5714  2.5095  3.6555
14284TIP3    H264344   4.440   4.833   0.510 -1.5545 -0.9752  0.5448
14285TIP3   OH264345   0.232   5.764   3.973  0.0344  0.6755 -0.1568
14285TIP3    H164346   0.261   5.674   3.954  2.4832  0.8310  2.6073
14285TIP3    H264347   0.144   5.752   4.009  0.4442 -0.6566  0.4588
14286TIP3   OH264348   2.999   0.877   6.214  0.1567 -0.5482 -0.5411
14286TIP3    H164349   3.089   0.904   6.195  0.1859 -1.0530 -1.1652
14286TIP3    H264350   2.975   0.822   6.139 -0.9206  0.1574 -0.7240
14287TIP3   OH264351   1.078   3.730  14.236  0.4181  0.0779  0.0180
14287TIP3    H164352   1.164   3.699  14.265  1.1907  0.6895 -1.5044
14287TIP3    H264353   1.064   3.685  14.152 -0.2301  0.8246 -0.2802
14288TIP3   OH264354   0.900   1.271   5.675  0.0875 -0.3076 -0.4020
14288TIP3    H164355   0.903   1.294   5.583  0.0565  1.4953  0.0192
14288TIP3    H264356   0.911   1.355   5.721 -0.1860 -1.1345  1.2185
14289TIP3   OH264357   4.664   6.226   4.736  0.0199  0.0080  0.1021
14289TIP3    H164358   4.754   6.212   4.707 -0.1138 -1.0743  0.1813
14289TIP3    H264359   4.631   6.138   4.756 -0.9641  0.4189  0.3361
14290TIP3   OH264360   5.377   3.724  12.662  0.5424 -0.7165 -0.1085
14290TIP3    H164361   5.424   3.798  12.623 -1.0874  2.0841  2.9722
14290TIP3    H264362   5.293   3.723  12.617  0.3940 -0.4318  0.1674
14291TIP3   OH264363   2.940   6.240  16.110  0.3691 -0.2283  0.1251
14291TIP3    H164364   2.910   6.261  16.199 -2.5145 -0.5442 -0.7453
14291TIP3    H264365   2.980   6.321  16.079 -1.5251  0.9062  0.5578
14292TIP3   OH264366   6.758   2.341   3.606 -0.1330 -0.1791 -0.6757
14292TIP3    H164367   6.753   2.435   3.621 -0.6061 -0.5328  1.6487
14292TIP3    H264368   6.667   2.314   3.593 -0.2113 -0.5628  0.5450
14293TIP3   OH264369   0.126   3.162   3.498  0.4617 -0.0053  0.0820
14293TIP3    H164370   0.222   3.155   3.492  0.4685  0.0039  0.1832
14293TIP3    H264371   0.100   3.203   3.415  0.6408  0.9371  0.4877
14294TIP3   OH264372   1.597   5.869   4.291  0.1361 -0.3795 -0.0811
14294TIP3    H164373   1.508   5.900   4.308  0.0218 -1.3960  1.2274
14294TIP3    H264374   1.602   5.784   4.334  2.4800  0.7225  1.9819
14295TIP3   OH264375   5.500   4.412  16.021 -0.2670  0.2314  0.1784
14295TIP3    H164376   5.481   4.396  15.929  1.3579  0.7639 -0.2807
14295TIP3    H264377   5.595   4.403  16.027 -0.4771 -0.9231  2.0363
14296TIP3   OH264378   5.282   5.678  14.478  0.5603  0.1240  0.3427
14296TIP3    H164379   5.236   5.734  14.540 -0.7507  0.7813 -1.1999
14296TIP3    H264380   5.224   5.603  14.465  0.1302  0.7145 -1.2301
14297TIP3   OH264381   0.135   3.845  16.616  0.6755 -0.1728  0.1626
14297TIP3    H164382   0.193   3.791  16.670  1.0972  0.4522  0.3457
14297TIP3    H264383   0.076   3.782  16.574  0.3359 -0.6595  1.3527
14298TIP3   OH264384   0.515   0.819  14.599  0.3015  0.7112 -0.3509
14298TIP3    H164385   0.496   0.911  14.580 -1.2538  0.4292 -0.2167
14298TIP3    H264386   0.499   0.810  14.693  1.4775  0.5375 -0.1561
14299TIP3   OH264387   5.007   5.328   2.877  0.6576 -0.2672  0.6076
14299TIP3    H164388   4.949   5.258   2.848  0.0333  0.3058  0.4495
14299TIP3    H264389   5.047   5.362   2.797  0.4295  0.0137  0.6109
14300TIP3   OH264390   6.617   0.063  11.529 -0.2119  1.6023 -0.2311
14300TIP3    H164391   6.708   0.035  11.534 -0.5932  0.4285  0.2196
14300TIP3    H264392   6.619   0.142  11.474  0.6631 -0.2244 -2.9207
14301TIP3   OH264393   2.812   0.627   1.515  0.6291  0.4521 -0.5491
14301TIP3    H164394   2.812   0.703   1.574  0.0415 -0.0389  0.0871
14301TIP3    H264395   2.758   0.562   1.560  0.6451 -0.1311 -1.3705
14302TIP3   OH264396   4.374   4.660   3.841  0.6320 -0.0236 -0.0357
14302TIP3    H164397   4.389   4.710   3.761  1.2855  1.5838  1.0486
14302TIP3    H264398   4.278   4.654   3.847  0.5453  0.8544 -0.3557
14303TIP3   OH264399   5.019   1.247  12.335  0.1097  0.1816  0.4199
14303TIP3    H164400   4.984   1.303  12.404  2.1240  1.0745  0.7507
14303TIP3    H264401   5.111   1.236  12.358  0.3679 -1.0188 -1.1414
14304TIP3   OH264402   5.412   5.583  15.542 -0.5303  0.2879  0.4737
14304TIP3    H164403   5.387   5.498  15.577 -1.7253  0.5335  0.2350
14304TIP3    H264404   5.487   5.610  15.595  0.7987 -1.5757 -0.4158
14305TIP3   OH264405   5.942   5.964   2.982  0.7314  0.1371  0.1926
14305TIP3    H164406   5.897   6.026   2.925  1.2433 -0.6152 -1.0482
14305TIP3    H264407   5.872   5.920   3.030  0.2802  0.5703 -0.0752
14306TIP3   OH264408   6.146   4.029   1.481 -0.1896  0.1528  0.3585
14306TIP3    H164409   6.123   4.117   1.512 -1.6757  0.5566 -1.7966
14306TIP3    H264410   6.063   3.992   1.450  0.7306 -1.3421 -0.3724
14307TIP3   OH264411   2.040   3.618  15.887  0.9034  0.6073  0.1787
14307TIP3    H164412   2.066   3.529  15.912  2.2670  1.0210  0.2146
14307TIP3    H264413   2.054   3.671  15.965 -2.4684  0.3879  1.0399
14308TIP3   OH264414   5.746   3.594   0.231 -0.3319  0.7732 -0.9046
14308TIP3    H164415   5.761   3.688   0.243 -0.9701  0.8502 -0.6890
14308TIP3    H264416   5.830   3.553   0.250 -0.7904  1.0536  1.8636
14309TIP3   OH264417   5.313   5.085   5.162 -0.1263 -0.0302 -0.1954
14309TIP3    H164418   5.219   5.091   5.141 -0.1295  1.2092  0.1188
14309TIP3    H264419   5.352   5.160   5.117  0.8066 -0.8528 -0.7706
14310TIP3   OH264420   0.581   4.387   0.180  0.2909  0.0534  0.6952
14310TIP3    H164421   0.569   4.343   0.264 -4.3232 -1.9594 -0.7950
14310TIP3    H264422   0.509   4.451   0.176  0.8638  0.5999 -1.3853
14311TIP3   OH264423   5.515   6.270  12.695  0.2812  0.2369  0.2802
14311TIP3    H164424   5.583   6.205  12.675 -0.0250  0.1366 -0.4581
14311TIP3    H264425   5.488   6.303  12.610 -1.9587 -1.1313  0.4125
14312TIP3   OH264426   2.556   3.824  13.522  0.0344 -0.3997  0.0426
14312TIP3    H164427   2.586   3.915  13.518 -0.8765 -0.1587 -1.6024
14312TIP3    H264428   2.531   3.811  13.614 -0.8645  1.3581  0.0725
14313TIP3   OH264429   4.635   5.003  16.175  0.2509  0.2143  0.3731
14313TIP3    H164430   4.598   4.935  16.119  0.2953 -1.0027  1.7763
14313TIP3    H264431   4.565   5.024  16.237  0.6315  0.6160  0.6732
14314TIP3   OH264432   3.144   4.161   2.703  1.0449 -0.0478  0.5230
14314TIP3    H164433   3.182   4.074   2.689  0.4526 -0.0953 -0.8866
14314TIP3    H264434   3.174   4.212   2.628  1.6608  1.0676  1.5183
14315TIP3   OH264435   0.857   5.490  15.355 -0.4409 -0.2260 -0.6247
14315TIP3    H164436   0.923   5.556  15.335 -0.7414  0.4514  0.5778
14315TIP3    H264437   0.782   5.540  15.387 -0.2609 -1.2244  1.3765
14316TIP3   OH264438   2.425   6.458  16.199  0.0366 -0.5939  0.3425
14316TIP3    H164439   2.383   6.374  16.214 -0.5999 -0.0076  2.0210
14316TIP3    H264440   2.357   6.513  16.161 -0.1408 -0.2645  1.1111
14317TIP3   OH264441   2.345   3.683   0.056  0.1394  0.0043  0.4844
14317TIP3    H164442   2.253   3.668   0.079 -0.1178  1.4451  0.4619
14317TIP3    H264443   2.350   3.659  -0.037 -0.3883  0.5756  0.3003
14318TIP3   OH264444   5.740   3.635  10.699 -0.0914  0.5929  0.1661
14318TIP3    H164445   5.809   3.611  10.637  0.8092  0.4669  1.1965
14318TIP3    H264446   5.722   3.554  10.747 -0.6598  0.7328  0.1924
14319TIP3   OH264447   2.833   2.677   4.063  0.7632  1.0764  0.1342
14319TIP3    H164448   2.895   2.732   4.111  1.0411  1.2848 -0.4654
14319TIP3    H264449   2.752   2.728   4.061  0.5655  0.7966  0.9331
14320TIP3   OH264450   5.026   4.089   1.979 -0.2554  0.1048  0.0464
14320TIP3    H164451   4.948   4.111   2.031  1.4343  0.9350  2.2853
14320TIP3    H264452   5.037   4.165   1.922 -1.5021 -0.3489 -0.8363
14321TIP3   OH264453   5.803   2.067   2.089  0.1299  0.0307  0.3470
14321TIP3    H164454   5.883   2.060   2.141 -0.2987  0.2123  1.0399
14321TIP3    H264455   5.768   2.154   2.110  1.0145  0.9212 -1.7989
14322TIP3   OH264456   2.248   3.746  12.881  0.2798  0.2768  0.3740
14322TIP3    H164457   2.237   3.694  12.801 -0.6897  0.2347  0.5362
14322TIP3    H264458   2.277   3.832  12.850  0.1993  0.1676 -0.0046
14323TIP3   OH264459   2.408   0.248   3.694  0.6227  0.2744  0.5687
14323TIP3    H164460   2.445   0.277   3.777 -0.4786 -1.5108  1.7071
14323TIP3    H264461   2.314   0.252   3.706  0.3774  2.4588 -1.5079
14324TIP3   OH264462   0.438   4.582  13.925  0.2803  0.6238  0.4535
14324TIP3    H164463   0.526   4.546  13.913  0.1503  0.6860 -0.7719
14324TIP3    H264464   0.381   4.521  13.878 -0.1569  1.4009 -0.0290
14325TIP3   OH264465   6.539   3.748   1.773 -0.2358  0.2662 -0.3344
14325TIP3    H164466   6.487   3.718   1.698 -0.3044  2.1837 -1.0748
14325TIP3    H264467   6.483   3.730   1.849 -0.7472 -0.4041 -0.8625
14326TIP3   OH264468   3.021   2.999  11.952  0.0264  0.2767  0.1659
14326TIP3    H164469   3.104   2.953  11.939  0.3954  0.0514  3.0688
14326TIP3    H264470   2.970   2.979  11.873  2.8509  0.7272 -1.8188
14327TIP3   OH264471   3.262   6.234  11.831 -0.0882  0.4072  0.4614
14327TIP3    H164472   3.207   6.295  11.782  0.1470  0.4779  0.2849
14327TIP3    H264473   3.217   6.222  11.914 -1.1048 -0.6401 -0.2297
14328TIP3   OH264474   0.071   1.070   3.453  0.1525 -0.1083  0.2030
14328TIP3    H164475   0.042   1.141   3.511  0.3941 -0.0530  0.2565
14328TIP3    H264476   0.005   1.001   3.465 -0.1393  0.1492  0.0731
14329TIP3   OH264477   0.410   3.804  15.387  0.2063  0.5098  0.8221
14329TIP3    H164478   0.414   3.791  15.482 -0.9713 -2.2820  0.5294
14329TIP3    H264479   0.325   3.847  15.372  0.9401  2.1014  1.1206
14330TIP3   OH264480   0.182   3.599   0.716  0.4148  0.4381  0.2722
14330TIP3    H164481   0.090   3.577   0.726  0.7464 -1.6558 -0.9788
14330TIP3    H264482   0.221   3.582   0.801 -0.0842 -0.1252  0.3923
14331TIP3   OH264483   1.249   6.395   5.073  0.0559 -0.2593  0.2355
14331TIP3    H164484   1.321   6.376   5.134 -1.4411 -0.2763  2.0670
14331TIP3    H264485   1.259   6.488   5.052  1.7423 -0.7265 -1.0649
14332TIP3   OH264486   6.194   0.376  15.508 -0.0842  0.3620  0.0911
14332TIP3    H164487   6.166   0.414  15.425 -0.6036 -0.1986  0.0141
14332TIP3    H264488   6.114   0.367  15.559  0.2430  0.7695  0.6829
14333TIP3   OH264489   3.399   0.815   2.140  0.0621 -0.2525 -0.3040
14333TIP3    H164490   3.331   0.748   2.130 -0.6869  0.3815  0.4720
14333TIP3    H264491   3.481   0.766   2.142 -0.4560 -1.1182 -0.1046
14334TIP3   OH264492   0.541   4.218   0.684  0.1238  0.1930  0.4835
14334TIP3    H164493   0.598   4.150   0.648  0.2415  0.4873  0.1053
14334TIP3    H264494   0.518   4.187   0.771  0.0303 -0.4179  0.2396
14335TIP3   OH264495   4.462   0.637  13.631  1.1772  0.7799  1.4746
14335TIP3    H164496   4.463   0.552  13.587  3.4666  1.7038 -0.3618
14335TIP3    H264497   4.434   0.618  13.721  1.3325 -1.8632  0.9864
14336TIP3   OH264498   3.240   1.835  14.731  0.2674 -0.1517 -0.3428
14336TIP3    H164499   3.285   1.835  14.646  1.8784 -2.1510  0.4717
14336TIP3    H264500   3.148   1.851  14.709  0.7355 -0.1357 -2.4169
14337TIP3   OH264501   4.560   3.770   0.229 -0.1758 -0.2886 -1.1139
14337TIP3    H164502   4.545   3.853   0.274 -0.9871  0.2423 -2.3312
14337TIP3    H264503   4.652   3.750   0.247 -0.4314  0.0042  0.5900
14338TIP3   OH264504   2.546   5.634  15.831 -0.1105  0.6518 -0.2543
14338TIP3    H164505   2.618   5.676  15.879 -0.8200  0.7327  0.7701
14338TIP3    H264506   2.561   5.656  15.739  1.1776  0.6502 -0.0439
14339TIP3   OH264507   5.296   0.615  11.544 -0.0024 -0.4625 -0.0122
14339TIP3    H164508   5.310   0.636  11.452 -0.4561  0.1072  0.0459
14339TIP3    H264509   5.208   0.579  11.547  0.0471 -0.5658  0.1862
14340TIP3   OH264510   2.562   2.123   2.118 -0.2246 -0.1223  0.3384
14340TIP3    H164511   2.488   2.158   2.068  0.9523  0.2325 -1.1824
14340TIP3    H264512   2.579   2.037   2.079  0.8412  0.2483 -0.0231
14341TIP3   OH264513   2.729   1.900   5.899  0.0040  0.0495  0.0786
14341TIP3    H164514   2.788   1.875   5.970 -0.2783 -1.7846 -0.3086
14341TIP3    H264515   2.720   1.820   5.846 -1.9837  0.6079 -0.4559
14342TIP3   OH264516   0.720   4.517  14.701 -0.4641 -0.0152  0.3697
14342TIP3    H164517   0.736   4.429  14.669  1.0422  0.5409 -0.4301
14342TIP3    H264518   0.717   4.508  14.796  0.4455 -0.8033  0.3314
14343TIP3   OH264519   5.602   0.487  12.840 -0.0116 -0.1510 -0.1670
14343TIP3    H164520   5.645   0.407  12.808 -1.2158 -0.8198 -0.1344
14343TIP3    H264521   5.641   0.557  12.789  1.4969 -0.6833  0.2038
14344TIP3   OH264522   5.809   0.836  12.091  0.1160 -0.4568 -0.5490
14344TIP3    H164523   5.819   0.909  12.029 -1.0164  1.1696  1.1064
14344TIP3    H264524   5.892   0.834  12.139 -0.1990  0.4346  0.0671
14345TIP3   OH264525   6.780   5.978  16.887 -0.2061 -0.2802 -0.7885
14345TIP3    H164526   6.814   5.926  16.815  1.8239  0.2313 -0.2335
14345TIP3    H264527   6.811   6.067  16.869 -0.2326 -0.0257  0.3656
14346TIP3   OH264528   6.116   5.389  15.120  0.7360  0.1379  0.1439
14346TIP3    H164529   6.034   5.340  15.115  2.0781 -2.1632  0.4743
14346TIP3    H264530   6.106   5.444  15.198 -1.5888  1.9993 -1.3592
14347TIP3   OH264531   3.160   5.901   6.399  0.1424 -0.7424 -0.2078
14347TIP3    H164532   3.068   5.924   6.388  0.8511  1.5514 -1.7507
14347TIP3    H264533   3.165   5.863   6.486 -2.1543 -0.2527  0.1692
14348TIP3   OH264534   2.603   5.285  14.262 -0.2599 -0.6423  0.1534
14348TIP3    H164535   2.551   5.234  14.200 -0.5625 -0.6366  0.4039
14348TIP3    H264536   2.660   5.338  14.207  0.2122 -1.4151 -0.1085
14349TIP3   OH264537   3.362   2.305   4.799 -0.2042 -0.3631  0.3213
14349TIP3    H164538   3.267   2.307   4.798 -0.1910  0.4611  0.2487
14349TIP3    H264539   3.389   2.344   4.716  0.1965  0.1215  0.6716
14350TIP3   OH264540   0.727   4.575  14.263  0.0181 -0.2224 -0.2438
14350TIP3    H164541   0.797   4.549  14.322 -1.3029  1.0774  1.9773
14350TIP3    H264542   0.759   4.655  14.220  0.0929  0.0977  0.4067
14351TIP3   OH264543   1.576   3.441   1.405 -0.2579  0.1163 -0.1793
14351TIP3    H164544   1.574   3.363   1.461  1.6998 -0.5316 -0.9839
14351TIP3    H264545   1.581   3.406   1.316 -1.7742  1.1606 -0.6954
14352TIP3   OH264546   0.584   3.136   0.923 -0.0893 -0.5134 -0.2490
14352TIP3    H164547   0.651   3.093   0.868  0.5006  0.2294 -0.1221
14352TIP3    H264548   0.528   3.181   0.860 -1.8012 -2.9556 -0.5139
14353TIP3   OH264549   6.022   4.508   3.329 -0.0008 -0.1148  0.0728
14353TIP3    H164550   6.048   4.532   3.240 -0.2589 -0.2589 -0.0406
14353TIP3    H264551   6.105   4.502   3.377  0.1240  0.1603 -0.1072
14354TIP3   OH264552   0.111   3.172  14.089  0.9712 -0.3666 -0.6071
14354TIP3    H164553   0.171   3.172  14.164  0.1793  2.2126  0.0525
14354TIP3    H264554   0.044   3.108  14.113  2.1760 -1.5741 -0.3447
14355TIP3   OH264555   0.582   5.377   5.218  0.3491 -0.1789  0.0718
14355TIP3    H164556   0.670   5.361   5.250  0.4696 -0.4007 -0.3680
14355TIP3    H264557   0.534   5.409   5.295  1.7333  3.5316 -0.4783
14356TIP3   OH264558   2.107   6.135  12.766 -0.3000 -0.3432 -0.5115
14356TIP3    H164559   2.129   6.213  12.817 -1.6081  0.2995 -0.9067
14356TIP3    H264560   2.179   6.074  12.782 -0.7682 -0.2383  2.2974
14357TIP3   OH264561   4.676   3.089  12.720 -0.0542 -0.1421 -0.4751
14357TIP3    H164562   4.630   3.028  12.777 -0.5171 -0.3121 -1.0263
14357TIP3    H264563   4.768   3.070  12.734 -0.1932 -0.8791 -0.5439
14358TIP3   OH264564   1.000   0.422  13.893 -0.0051  0.4853 -0.2538
14358TIP3    H164565   0.999   0.499  13.949 -0.6596  1.2772 -1.3329
14358TIP3    H264566   0.945   0.358  13.938 -0.3297  1.0287  0.1178
14359TIP3   OH264567   0.588   2.659   0.711 -0.2914 -0.2662  0.8327
14359TIP3    H164568   0.533   2.631   0.638  0.8876  2.4293 -1.1851
14359TIP3    H264569   0.528   2.704   0.770 -0.8917 -0.5772  0.4645
14360TIP3   OH264570   4.221   2.265   6.097  0.7377  0.2291 -0.0607
14360TIP3    H164571   4.207   2.229   6.184 -0.3480  1.8198  0.4472
14360TIP3    H264572   4.305   2.309   6.102  2.1750 -2.3047 -0.7431
14361TIP3   OH264573   6.743   5.783   3.709 -0.2622 -0.0410  0.5015
14361TIP3    H164574   6.719   5.848   3.775 -1.0553 -0.3719  0.5447
14361TIP3    H264575   6.775   5.709   3.759  1.7710  0.7421  0.4185
14362TIP3   OH264576   1.658   3.169  13.449  0.0687 -0.0074  0.7231
14362TIP3    H164577   1.701   3.138  13.529  0.2495 -0.1676  0.5625
14362TIP3    H264578   1.669   3.264  13.451  1.4204 -0.1535  0.0999
14363TIP3   OH264579   2.447   2.406  13.441  0.0130  0.2274 -0.2019
14363TIP3    H164580   2.364   2.416  13.393  0.0114  0.0271 -0.2402
14363TIP3    H264581   2.450   2.482  13.498 -0.6255 -0.2175  0.4407
14364TIP3   OH264582   5.944   1.180  13.398 -0.1690  0.4476 -0.3603
14364TIP3    H164583   5.941   1.194  13.492 -0.5250 -0.3583 -0.2464
14364TIP3    H264584   5.891   1.101  13.383 -1.2380  1.3448 -1.3860
14365TIP3   OH264585   5.707   0.592  16.530 -0.4471  0.4787  0.1852
14365TIP3    H164586   5.667   0.531  16.468  1.5713 -0.4311 -0.2793
14365TIP3    H264587   5.724   0.671  16.478  0.1157  0.1582 -0.1313
14366TIP3   OH264588   4.462   1.451  12.693 -0.0791  0.3703 -0.2823
14366TIP3    H164589   4.381   1.426  12.649 -0.6740  0.4902  0.7238
14366TIP3    H264590   4.433   1.494  12.774  0.9848 -1.0178  0.8651
14367TIP3   OH264591   6.141   0.819  12.284  0.2522  0.2726  0.0109
14367TIP3    H164592   6.195   0.895  12.262 -0.6497  0.2291 -2.5414
14367TIP3    H264593   6.151   0.809  12.378  2.2794  2.1079  0.0354
14368TIP3   OH264594   3.812   4.845  17.273 -0.6008 -0.2132 -0.1350
14368TIP3    H164595   3.729   4.818  17.234  0.1266 -0.7939 -1.3321
14368TIP3    H264596   3.816   4.799  17.357 -0.0354 -2.7914 -1.5087
14369TIP3   OH264597   4.711   5.335  15.265 -0.4730  0.3316 -0.0153
14369TIP3    H164598   4.714   5.380  15.181  0.1575  0.6163  0.1561
14369TIP3    H264599   4.745   5.247  15.248 -1.3743  0.0211 -0.2778
14370TIP3   OH264600   3.809   5.018   1.079 -0.4856  0.0139 -0.0302
14370TIP3    H164601   3.897   5.021   1.043  0.4908 -1.4743  2.1467
14370TIP3    H264602   3.755   5.063   1.014  2.1642  2.7474 -0.4616
14371TIP3   OH264603   1.043   1.729  15.755  0.2706  0.2376  0.4994
14371TIP3    H164604   1.033   1.714  15.849  0.1337 -0.4592  0.3795
14371TIP3    H264605   0.981   1.799  15.735  0.1163  0.2140  0.8846
14372TIP3   OH264606   0.470   4.596   2.666  0.5007  0.5184  0.1437
14372TIP3    H164607   0.518   4.633   2.592  0.1542 -0.5056 -0.6119
14372TIP3    H264608   0.379   4.597   2.638  0.4234 -0.3607  0.3364
14373TIP3   OH264609   3.811   1.376  16.544 -0.6666  0.4008  0.2441
14373TIP3    H164610   3.773   1.452  16.588 -0.5160 -0.2582  1.5270
14373TIP3    H264611   3.894   1.362  16.589 -1.8350 -2.0543  1.7418
14374TIP3   OH264612   2.637   5.463  12.188  0.0594 -0.2910  0.3593
14374TIP3    H164613   2.675   5.531  12.244 -1.7945  0.3663  0.8628
14374TIP3    H264614   2.581   5.511  12.127 -0.4633 -1.2866  0.0456
14375TIP3   OH264615   4.926   2.397   1.724 -0.5141 -0.5336  0.6776
14375TIP3    H164616   4.919   2.490   1.743  1.5701 -0.2751  0.3036
14375TIP3    H264617   4.836   2.364   1.729 -1.3819  1.6497 -0.0671
14376TIP3   OH264618   4.607   0.564  14.751 -0.1139  0.2649  0.3363
14376TIP3    H164619   4.656   0.587  14.831 -0.4794  3.0252 -0.1652
14376TIP3    H264620   4.550   0.492  14.778 -0.6049  1.4866  2.7550
14377TIP3   OH264621   1.149   4.527  11.939  0.5116 -0.0704 -0.4133
14377TIP3    H164622   1.207   4.452  11.928  0.7732  0.1815 -0.7760
14377TIP3    H264623   1.189   4.596  11.886  0.7837  0.6102  0.6577
14378TIP3   OH264624   2.118   5.011   1.639  0.3661  0.5100 -0.2786
14378TIP3    H164625   2.187   4.945   1.642  0.7462  0.9256  0.2636
14378TIP3    H264626   2.056   4.983   1.706 -0.0938  0.0289 -0.9002
14379TIP3   OH264627   4.745   2.298  13.901 -0.1009 -0.3077 -0.5521
14379TIP3    H164628   4.753   2.203  13.904 -0.0047 -0.2714  0.7596
14379TIP3    H264629   4.716   2.322  13.989  2.7024  1.1463  0.0233
14380TIP3   OH264630   5.655   5.778  16.101  0.2839  0.2661  0.1527
14380TIP3    H164631   5.620   5.849  16.046  2.0659  0.3405 -0.9161
14380TIP3    H264632   5.588   5.765  16.168 -1.6181  0.6861 -1.5958
14381TIP3   OH264633   4.753   6.315   0.011 -0.8584  0.2582  0.4252
14381TIP3    H164634   4.754   6.242   0.072  0.5784  0.0575  0.1803
14381TIP3    H264635   4.683   6.294  -0.050 -2.4709  0.5865  2.1336
14382TIP3   OH264636   5.240   0.132  14.443 -0.3464  0.4239  0.7473
14382TIP3    H164637   5.231   0.218  14.402 -0.5883  0.0917  0.0885
14382TIP3    H264638   5.252   0.072  14.369  1.3309  0.0890  1.2702
14383TIP3   OH264639   4.644   0.868  14.524 -0.5907 -0.0199  0.1677
14383TIP3    H164640   4.636   0.899  14.614 -0.7111  0.1707  0.0922
14383TIP3    H264641   4.685   0.941  14.477 -1.6766  0.3589 -0.1976
14384TIP3   OH264642   6.622   1.112  14.958  0.0702  1.2925 -0.0022
14384TIP3    H164643   6.572   1.033  14.977  0.5439  0.5790 -1.5750
14384TIP3    H264644   6.601   1.132  14.866  1.4235  1.8838 -0.2060
14385TIP3   OH264645   4.188   4.374  13.213  0.0170 -0.3647 -0.6890
14385TIP3    H164646   4.172   4.407  13.302  0.2978 -0.7489 -0.4977
14385TIP3    H264647   4.100   4.362  13.177 -0.1116 -0.8527 -0.2243
14386TIP3   OH264648   4.257   6.465   5.704 -0.2923 -0.4770 -0.0842
14386TIP3    H164649   4.219   6.381   5.730  0.6374 -0.7020  0.5891
14386TIP3    H264650   4.202   6.530   5.747 -0.6319 -0.7613 -0.0821
14387TIP3   OH264651   6.573   5.583  14.009 -0.3479 -0.6055  0.0839
14387TIP3    H164652   6.536   5.594  13.921  0.4281  1.3249 -0.0107
14387TIP3    H264653   6.656   5.536  13.994  0.9996  1.8931 -0.4903
14388TIP3   OH264654   4.091   6.706   0.529  0.4890 -0.3578 -0.0091
14388TIP3    H164655   4.154   6.717   0.601 -0.7350  1.9981  0.7504
14388TIP3    H264656   4.084   6.611   0.518  2.4439 -0.6981  1.4260
14389TIP3   OH264657   2.108   6.614  11.992 -0.4367 -0.9365  0.2963
14389TIP3    H164658   2.199   6.643  11.990 -0.8268  0.3717  0.6383
14389TIP3    H264659   2.102   6.560  12.071 -0.1286 -0.4135  0.6842
14390TIP3   OH264660   0.893   0.984  14.753 -0.6486 -0.6204 -0.5954
14390TIP3    H164661   0.870   0.974  14.845 -2.4939  2.4156 -0.6657
14390TIP3    H264662   0.830   1.047  14.719  1.0324 -0.4419 -3.5486
14391TIP3   OH264663   5.324   1.037   2.175  0.1572  0.0972 -0.1119
14391TIP3    H164664   5.299   0.998   2.091 -2.3293 -0.7042  0.9658
14391TIP3    H264665   5.265   1.111   2.186 -0.0614 -0.2780  1.2920
14392TIP3   OH264666   3.762   3.182  13.920  0.3294 -0.0669  0.0533
14392TIP3    H164667   3.699   3.235  13.872 -1.4364 -0.6979  1.6141
14392TIP3    H264668   3.842   3.235  13.921 -0.1159  0.6792 -2.0546
14393TIP3   OH264669   4.409   3.172  16.845 -0.0671  0.0009  0.3519
14393TIP3    H164670   4.489   3.194  16.798  0.8602 -2.2440  0.8535
14393TIP3    H264671   4.434   3.102  16.905 -2.3350 -0.5295  0.7309
14394TIP3   OH264672   1.756   3.866  13.753  0.4980  0.3510  0.0626
14394TIP3    H164673   1.837   3.860  13.702 -0.8202 -1.7198 -1.8733
14394TIP3    H264674   1.762   3.952  13.796  2.8524  1.0462 -1.5061
14395TIP3   OH264675   5.928   3.389   5.527  0.0816 -0.3465 -0.2428
14395TIP3    H164676   5.985   3.348   5.592 -4.4258 -2.1736  2.8176
14395TIP3    H264677   5.915   3.322   5.460  0.0073 -0.6176  0.0411
14396TIP3   OH264678   6.508   5.260  15.622 -0.3716  0.4270 -0.2079
14396TIP3    H164679   6.565   5.308  15.562 -0.4538 -0.2793 -0.8551
14396TIP3    H264680   6.469   5.191  15.568  0.6846 -1.1354  1.0245
14397TIP3   OH264681   4.784   5.155  11.665 -0.3579 -0.0877  0.5265
14397TIP3    H164682   4.879   5.166  11.664 -0.3999  0.3117  0.5647
14397TIP3    H264683   4.751   5.230  11.615 -0.7731  1.2723  2.7673
14398TIP3   OH264684   0.204   2.392  16.864  0.5197  0.1092  0.0248
14398TIP3    H164685   0.142   2.333  16.907 -0.4944  1.2492  0.1348
14398TIP3    H264686   0.242   2.339  16.794  0.1030 -0.8795  0.5323
14399TIP3   OH264687   2.985   1.249  11.895 -0.1405  0.0422  0.1345
14399TIP3    H164688   3.031   1.324  11.857  2.6426 -0.9208  1.4564
14399TIP3    H264689   3.014   1.247  11.986 -0.7743 -2.1718  0.3241
14400TIP3   OH264690   0.872   4.166   5.681 -0.2640 -0.9296  0.2428
14400TIP3    H164691   0.828   4.087   5.713 -0.0680 -2.5170 -3.2138
14400TIP3    H264692   0.801   4.230   5.673 -1.3640 -2.3175 -1.6725
14401TIP3   OH264693   3.632   6.466  11.782 -0.6112  0.1525  0.4924
14401TIP3    H164694   3.587   6.415  11.716 -0.1985 -0.3107  0.5677
14401TIP3    H264695   3.614   6.420  11.864  0.2088 -0.1720  0.4866
14402TIP3   OH264696   5.632   4.032   0.685  0.3765 -0.1916 -0.1634
14402TIP3    H164697   5.566   4.083   0.733  0.2181  1.3433 -1.9971
14402TIP3    H264698   5.614   4.050   0.593  2.5417 -0.8118 -0.7236
14403TIP3   OH264699   2.005   4.263   1.745 -0.4345  0.0964 -0.4044
14403TIP3    H164700   1.979   4.306   1.827 -2.4351  1.0265 -1.4910
14403TIP3    H264701   2.081   4.313   1.715 -1.0451  1.1318 -0.2325
14404TIP3   OH264702   4.635   6.304   1.647 -0.0166  0.4572 -0.1960
14404TIP3    H164703   4.572   6.373   1.624 -0.1698  0.5768  0.5503
14404TIP3    H264704   4.720   6.346   1.639  0.0005  0.1667 -1.6460
14405TIP3   OH264705   6.808   1.423  15.841 -1.0335  0.0740  0.1934
14405TIP3    H164706   6.816   1.344  15.896 -2.1734  0.4093  0.8609
14405TIP3    H264707   6.761   1.485  15.896  0.7110  1.5776  0.0225
14406TIP3   OH264708   1.489   3.546  12.860 -0.1242 -0.0287  0.4065
14406TIP3    H164709   1.492   3.519  12.768  1.2331  0.1100  0.4011
14406TIP3    H264710   1.511   3.466  12.909  0.2612  0.1692  0.5590
14407TIP3   OH264711   6.352   1.411  14.316  0.1269  0.1116 -0.2346
14407TIP3    H164712   6.287   1.344  14.292 -0.0446 -0.1313  0.9034
14407TIP3    H264713   6.301   1.480  14.358  0.3588  0.7955 -1.0639
14408TIP3   OH264714   1.519   2.526   0.237 -0.3444  0.3155  0.2448
14408TIP3    H164715   1.424   2.513   0.243 -0.0983 -1.4413  0.7061
14408TIP3    H264716   1.541   2.580   0.313 -0.9476  0.6013  0.2170
14409TIP3   OH264717   4.213   6.760  14.556 -0.3352 -0.1951 -0.0250
14409TIP3    H164718   4.197   6.686  14.614 -1.5594 -1.8839 -2.4401
14409TIP3    H264719   4.127   6.781  14.518  0.7946 -0.8205 -3.1286
14410TIP3   OH264720   5.711   2.950   0.433  0.0839  0.1161  0.3190
14410TIP3    H164721   5.664   2.908   0.361  1.7405  2.5743 -2.3165
14410TIP3    H264722   5.663   3.032   0.448  1.6152  1.1523 -0.2755
14411TIP3   OH264723   0.321   6.560   0.574  0.2612 -0.1639 -0.1383
14411TIP3    H164724   0.283   6.483   0.532  2.6506 -1.3716 -0.1693
14411TIP3    H264725   0.309   6.631   0.511  0.8159 -1.2249 -1.4530
14412TIP3   OH264726   4.539   2.310  16.375  0.1135  0.2646 -0.3259
14412TIP3    H164727   4.588   2.247  16.322 -1.6879 -0.9750 -0.5496
14412TIP3    H264728   4.577   2.303  16.462  0.1963 -0.8452 -0.4469
14413TIP3   OH264729   3.282   3.439   0.271 -0.3081  0.2918 -0.0781
14413TIP3    H164730   3.370   3.455   0.237 -0.9425  2.3507 -0.7884
14413TIP3    H264731   3.289   3.456   0.365  0.0403  0.4730 -0.1356
14414TIP3   OH264732   4.309   6.563  15.229 -0.3350  0.1973  0.3816
14414TIP3    H164733   4.234   6.545  15.172 -1.3939 -1.2240  2.1823
14414TIP3    H264734   4.357   6.480  15.232  0.6209  0.7406  0.2601
14415TIP3   OH264735   6.554   4.122   1.295  0.3815 -0.2644 -0.3146
14415TIP3    H164736   6.584   4.095   1.208  0.0279  1.2718 -0.9411
14415TIP3    H264737   6.560   4.218   1.293 -3.3510  0.0499 -0.0133
14416TIP3   OH264738   2.569   6.285   5.107  0.1186 -0.2719  0.5637
14416TIP3    H164739   2.648   6.234   5.089  0.5618  0.8979 -0.8611
14416TIP3    H264740   2.552   6.333   5.026 -0.9250  1.0118  1.5194
14417TIP3   OH264741   6.258   3.595   4.925  0.2921 -0.4976  0.3631
14417TIP3    H164742   6.184   3.638   4.883  0.4383 -1.1762 -0.6037
14417TIP3    H264743   6.219   3.551   5.001 -0.5553 -1.9303 -0.8572
14418TIP3   OH264744   5.475   4.081   2.101  0.0298  0.1054 -0.0187
14418TIP3    H164745   5.502   4.172   2.096 -0.1769  0.1555 -0.1891
14418TIP3    H264746   5.381   4.082   2.086 -0.2258  0.0187  1.4850
14419TIP3   OH264747   6.449   4.554   3.921 -0.2145 -0.5967 -0.1720
14419TIP3    H164748   6.449   4.471   3.968 -0.4177 -0.6576 -0.2775
14419TIP3    H264749   6.424   4.619   3.987 -0.5402 -0.6874 -0.2004
14420TIP3   OH264750   2.799   6.753   5.148 -0.1325  0.0224 -0.3817
14420TIP3    H164751   2.874   6.743   5.207  0.3888 -0.3199 -1.0962
14420TIP3    H264752   2.727   6.708   5.192  0.1586  0.0829  0.1622
14421TIP3   OH264753   5.555   0.917  16.502  0.2307 -0.0862 -0.3356
14421TIP3    H164754   5.603   0.977  16.559 -0.8895 -0.3174  0.8754
14421TIP3    H264755   5.566   0.831  16.542 -0.7810 -0.2122 -0.3121
14422TIP3   OH264756   6.578   3.767   3.891 -0.1438  0.7048 -1.0051
14422TIP3    H164757   6.605   3.858   3.882 -1.0277  0.9951 -0.7394
14422TIP3    H264758   6.511   3.768   3.960 -0.8860  0.0036 -1.7057
14423TIP3   OH264759   4.893   2.614   4.639  0.5282 -0.1742  0.3612
14423TIP3    H164760   4.898   2.583   4.549  0.9956  1.8626 -0.3545
14423TIP3    H264761   4.802   2.603   4.664  0.1115  0.4957 -0.8351
14424TIP3   OH264762   5.477   3.120  15.998 -0.1968  0.4685  0.3999
14424TIP3    H164763   5.439   3.095  16.082 -0.2497 -0.4814  0.0942
14424TIP3    H264764   5.470   3.042  15.944 -0.6737  1.2366 -0.6769
14425TIP3   OH264765   5.901   0.793  16.688  0.4511  0.2655 -0.1480
14425TIP3    H164766   5.868   0.725  16.630 -2.1331  0.6176  0.8367
14425TIP3    H264767   5.823   0.829  16.731  1.8697  2.8767  0.4122
14426TIP3   OH264768   0.983   0.472  10.529  0.2913  0.4991 -0.4824
14426TIP3    H164769   0.927   0.468  10.451  0.4368 -0.8226 -0.5186
14426TIP3    H264770   0.932   0.428  10.597  1.6249 -1.4958 -0.7289
14427TIP3   OH264771   4.679   5.643   2.205  0.0863 -0.9429 -0.1935
14427TIP3    H164772   4.767   5.665   2.235 -0.6913 -0.6642  2.0339
14427TIP3    H264773   4.656   5.712   2.143  0.7049  0.0649  0.6939
14428TIP3   OH264774   2.567   3.740  17.062 -0.4091 -0.1952 -0.6231
14428TIP3    H164775   2.629   3.761  17.132  1.2631  0.0838 -2.1717
14428TIP3    H264776   2.553   3.645  17.071 -0.8325 -0.0381  0.5610
14429TIP3   OH264777   1.159   0.887  12.316  0.0498  0.3428 -0.0939
14429TIP3    H164778   1.080   0.833  12.308 -0.1022  0.5591 -0.0636
14429TIP3    H264779   1.221   0.833  12.364 -0.6995  0.8441  1.4849
14430TIP3   OH264780   3.742   4.920  12.723 -0.3312 -0.1985  0.0693
14430TIP3    H164781   3.779   5.007  12.710 -0.7711 -0.1589 -0.9695
14430TIP3    H264782   3.796   4.881  12.790  0.4687  0.5326 -0.1421
14431TIP3   OH264783   4.874   4.617   2.565  0.0280  0.0451 -0.3050
14431TIP3    H164784   4.783   4.593   2.579  0.6993 -1.1970  2.1171
14431TIP3    H264785   4.880   4.706   2.599 -0.3336  0.2503 -0.7633
14432TIP3   OH264786   6.759   1.065   1.260  0.4690 -0.1924 -0.3905
14432TIP3    H164787   6.767   1.138   1.199 -0.0066 -0.7025 -1.0719
14432TIP3    H264788   6.700   1.004   1.216 -1.1162  0.1373  1.2603
14433TIP3   OH264789   2.367   4.636   5.615  0.1152 -0.5385  0.0036
14433TIP3    H164790   2.305   4.575   5.574 -0.3837  0.9483 -1.5292
14433TIP3    H264791   2.419   4.582   5.674 -2.0285 -1.9814  0.6087
14434TIP3   OH264792   4.157   2.192   5.837  0.2826 -0.5461 -0.1754
14434TIP3    H164793   4.182   2.224   5.924  2.1282  3.7236 -2.1100
14434TIP3    H264794   4.065   2.217   5.827  0.9940  2.0404 -0.6555
14435TIP3   OH264795   3.795   5.121  15.424 -0.0602 -0.2769  0.3326
14435TIP3    H164796   3.797   5.113  15.519  2.0938 -1.2043  0.2276
14435TIP3    H264797   3.769   5.034  15.393  0.4184 -0.3214  0.0431
14436TIP3   OH264798   5.724   0.196  11.264 -0.3743  0.2279 -0.0702
14436TIP3    H164799   5.790   0.165  11.327 -0.8052  1.2088  0.8618
14436TIP3    H264800   5.749   0.286  11.245 -1.0213  0.3588 -0.2984
14437TIP3   OH264801   2.432   4.316   0.782  0.4243  0.5317  0.3738
14437TIP3    H164802   2.431   4.392   0.724 -0.6508 -0.5271 -1.0340
14437TIP3    H264803   2.399   4.244   0.728  0.6654 -0.7710  1.9141
14438TIP3   OH264804   4.762   2.869  17.284  0.4968  0.0577 -0.4818
14438TIP3    H164805   4.744   2.842  17.374  0.7677 -0.1695 -0.4915
14438TIP3    H264806   4.813   2.797  17.247 -1.1087 -0.6523 -1.3703
14439TIP3   OH264807   3.504   1.524   6.158  0.2116 -0.4893 -0.6190
14439TIP3    H164808   3.438   1.472   6.112 -0.9707  1.3432 -1.0905
14439TIP3    H264809   3.520   1.477   6.239 -0.9697 -1.4726 -0.9446
14440TIP3   OH264810   4.288   0.358   1.096  0.7235  0.6946 -0.4426
14440TIP3    H164811   4.378   0.345   1.127  0.7382  0.0778 -0.7217
14440TIP3    H264812   4.270   0.280   1.044  0.3314  1.2289 -1.1114
14441TIP3   OH264813   3.350   3.413  15.535  0.1324  0.1853  0.7470
14441TIP3    H164814   3.320   3.454  15.616  1.2094  0.2884  1.0978
14441TIP3    H264815   3.298   3.456  15.466  1.7270  2.6622  1.0206
14442TIP3   OH264816   6.721   2.090  16.321 -0.4390  0.3156 -0.4382
14442TIP3    H164817   6.661   2.016  16.318 -0.5024  0.3900 -1.3636
14442TIP3    H264818   6.707   2.129  16.407  1.1804 -2.0287  0.9262
14443TIP3   OH264819   0.684   6.741  12.985  0.6520 -0.1547  0.6043
14443TIP3    H164820   0.653   6.831  12.974 -1.5625 -0.9399  0.2668
14443TIP3    H264821   0.699   6.733  13.079  1.8428  0.8581  0.5234
14444TIP3   OH264822   5.970   3.376  16.402  0.1127  0.1848 -0.2173
14444TIP3    H164823   5.985   3.470  16.408  0.8923  0.1464 -1.4392
14444TIP3    H264824   5.889   3.368  16.352  0.0764  0.2005 -0.1627
14445TIP3   OH264825   0.464   6.045  15.099  0.8338 -0.2129  0.2045
14445TIP3    H164826   0.460   5.980  15.029  0.0100  1.0052 -0.8861
14445TIP3    H264827   0.378   6.041  15.141  1.6712 -1.7017  1.8807
14446TIP3   OH264828   0.809   3.167   2.332  0.2761  0.5010  0.0402
14446TIP3    H164829   0.867   3.107   2.284 -0.8258  0.2127 -0.9427
14446TIP3    H264830   0.781   3.231   2.267 -1.2872  0.0646  0.2638
14447TIP3   OH264831   5.778   2.618  15.239  0.1404 -0.1080 -0.7216
14447TIP3    H164832   5.783   2.657  15.151  1.1302  0.7493 -0.2969
14447TIP3    H264833   5.847   2.662  15.289 -0.5560 -0.4290  0.5524
14448TIP3   OH264834   3.790   5.754   3.519  0.0061 -0.0165 -0.0347
14448TIP3    H164835   3.865   5.698   3.497  0.0201  0.0472 -0.1517
14448TIP3    H264836   3.715   5.695   3.521 -0.2767  0.2481 -1.9483
14449TIP3   OH264837   0.001   1.221   0.790 -0.0258  0.5078  0.0526
14449TIP3    H164838  -0.024   1.216   0.882  1.6174  0.0836  0.4958
14449TIP3    H264839  -0.025   1.137   0.753 -0.7843  0.7187  0.0869
14450TIP3   OH264840   6.749   5.357  16.245  0.0785  0.7912  0.8534
14450TIP3    H164841   6.799   5.431  16.211  0.4883  0.2915  0.3758
14450TIP3    H264842   6.687   5.397  16.307  1.7210  1.3032  2.1912
14451TIP3   OH264843   1.084   6.454  15.477  0.4438  0.1303 -0.4368
14451TIP3    H164844   1.026   6.511  15.526  0.3658  0.4900 -0.9443
14451TIP3    H264845   1.071   6.367  15.515  0.8381  0.5073  0.5910
14452TIP3   OH264846   2.904   5.638  13.699 -0.1619 -0.2227  0.1806
14452TIP3    H164847   2.829   5.687  13.734 -1.2248 -1.2889 -0.5861
14452TIP3    H264848   2.899   5.652  13.604 -0.7157 -2.1456 -0.0861
14453TIP3   OH264849   0.240   1.122   4.031 -0.5294  0.5919  0.0226
14453TIP3    H164850   0.179   1.101   3.961 -0.1293 -0.2045 -0.0930
14453TIP3    H264851   0.218   1.062   4.102 -0.1080  0.5397  0.1114
14454TIP3   OH264852   0.634   1.779   0.157  0.1990 -0.0211  0.0576
14454TIP3    H164853   0.716   1.731   0.148 -0.5565 -1.4703  0.8374
14454TIP3    H264854   0.608   1.799   0.068 -0.1017 -2.1090 -0.3336
14455TIP3   OH264855   0.758   2.769   5.127 -0.0086  0.5814  0.4454
14455TIP3    H164856   0.721   2.827   5.194  3.6573  1.5995  1.7182
14455TIP3    H264857   0.791   2.694   5.177  1.0456  0.4502 -0.4472
14456TIP3   OH264858   2.999   3.687  14.487  0.0275 -0.5521  0.9808
14456TIP3    H164859   3.086   3.715  14.515 -0.8515  1.7248  1.5886
14456TIP3    H264860   3.006   3.593  14.475  2.4974 -0.4270  1.2969
14457TIP3   OH264861   1.717   1.059   0.491 -0.3061 -0.0896 -0.3159
14457TIP3    H164862   1.702   1.028   0.580 -1.0855  0.4683 -0.2506
14457TIP3    H264863   1.811   1.079   0.488  0.5133 -3.6938 -0.7642
14458TIP3   OH264864   5.975   0.561   5.641  0.4065  0.2550  0.1266
14458TIP3    H164865   6.066   0.557   5.668  0.4542  1.5441  0.1872
14458TIP3    H264866   5.979   0.573   5.546  0.3163  1.3629  0.2611
14459TIP3   OH264867   0.255   1.229  10.827  0.1667  0.0989  0.6664
14459TIP3    H164868   0.290   1.143  10.802 -0.9523 -0.2338  0.1725
14459TIP3    H264869   0.260   1.281  10.747 -0.4202  0.0545  0.5977
14460TIP3   OH264870   4.342   3.991   6.093 -0.6903  0.0544  0.3142
14460TIP3    H164871   4.434   3.983   6.069 -1.3689 -2.4587 -1.6672
14460TIP3    H264872   4.331   4.083   6.117  2.9393 -0.1830  3.3297
14461TIP3   OH264873   1.199   1.468  11.823 -0.0535 -1.0482 -0.1597
14461TIP3    H164874   1.245   1.546  11.853  0.3309 -1.5534  0.5634
14461TIP3    H264875   1.246   1.395  11.863 -1.2580 -1.5847  0.3110
14462TIP3   OH264876   0.885   4.258  16.766  0.1394 -0.2715  0.1191
14462TIP3    H164877   0.921   4.273  16.853  0.9387  0.7311 -0.3712
14462TIP3    H264878   0.906   4.167  16.746  0.4616 -0.3328  0.7323
14463TIP3   OH264879   1.994   5.997  11.242  0.8522  0.1865 -0.4211
14463TIP3    H164880   1.937   6.071  11.263 -0.7087 -0.9784 -0.4447
14463TIP3    H264881   2.018   5.961  11.327 -1.7231 -1.7298 -0.4447
14464TIP3   OH264882   1.496   5.691   4.959  0.5099 -0.2139 -0.4358
14464TIP3    H164883   1.447   5.608   4.952  1.9071 -1.0111 -1.0169
14464TIP3    H264884   1.484   5.733   4.874  0.8590 -0.4127 -0.5804
14465TIP3   OH264885   2.599   1.156   6.766 -0.1417  0.2735  0.1778
14465TIP3    H164886   2.584   1.204   6.847  4.4499 -1.3138  2.1443
14465TIP3    H264887   2.652   1.215   6.713 -0.0161 -0.1186 -0.1361
14466TIP3   OH264888   3.198   4.528  13.341 -0.3659  0.5493 -0.0902
14466TIP3    H164889   3.106   4.533  13.315 -0.9482 -0.3563  1.7146
14466TIP3    H264890   3.213   4.435  13.360  1.2406  0.4993 -1.4437
14467TIP3   OH264891   0.091   2.755   1.458 -0.5267 -0.0322  0.7867
14467TIP3    H164892   0.156   2.686   1.446  1.1653  1.5771  0.4668
14467TIP3    H264893   0.010   2.709   1.481 -0.1174 -2.3014 -2.0247
14468TIP3   OH264894   6.750   1.664   1.194 -0.3521  0.3536  0.2085
14468TIP3    H164895   6.769   1.578   1.233  0.6067 -0.3815 -1.8133
14468TIP3    H264896   6.706   1.644   1.112  0.5425  1.7654 -0.6378
14469TIP3   OH264897   2.656   0.793  12.882 -0.3052 -0.1429  0.7775
14469TIP3    H164898   2.735   0.835  12.847 -0.7647  1.9735  2.2155
14469TIP3    H264899   2.608   0.864  12.924 -1.7192 -1.9045  2.1925
14470TIP3   OH264900   2.726   4.389  13.482 -0.0248 -0.1944 -0.0079
14470TIP3    H164901   2.665   4.461  13.488  1.0889  0.8772 -1.1951
14470TIP3    H264902   2.760   4.378  13.571 -1.2099 -0.1669  0.4503
14471TIP3   OH264903   0.670   2.084   4.064  0.2298  0.1286 -0.2481
14471TIP3    H164904   0.627   2.155   4.111  1.3526  0.3364  0.4951
14471TIP3    H264905   0.642   2.004   4.108  0.8441  0.2869  0.4404
14472TIP3   OH264906   4.284   0.091   4.684 -0.5413 -0.5561  0.3183
14472TIP3    H164907   4.340   0.092   4.762 -0.6835  0.4398  0.4107
14472TIP3    H264908   4.323   0.025   4.627 -0.0216 -0.7796  0.9332
14473TIP3   OH264909   6.375   4.727  14.264 -0.4905 -0.0207  0.1065
14473TIP3    H164910   6.279   4.733  14.259 -0.4808  1.5850  1.5747
14473TIP3    H264911   6.404   4.749  14.176 -1.4284  0.6477 -0.0494
14474TIP3   OH264912   1.588   4.060   1.746 -0.4259  0.2519  0.4008
14474TIP3    H164913   1.630   4.144   1.759  0.3016 -0.0229 -0.0961
14474TIP3    H264914   1.649   3.996   1.782 -1.1557 -0.0361  1.1466
14475TIP3   OH264915   4.781   2.567   3.399  0.5491  0.1233 -0.2225
14475TIP3    H164916   4.751   2.575   3.308  1.8056 -0.2778 -0.6849
14475TIP3    H264917   4.861   2.515   3.393  0.8216  0.3773  1.0884
14476TIP3   OH264918   1.279   4.065  13.115  0.0772  0.1304 -0.2084
14476TIP3    H164919   1.345   4.018  13.064  1.3376 -1.1310  2.4630
14476TIP3    H264920   1.196   4.023  13.092  0.7734 -1.2009 -0.3621
14477TIP3   OH264921   6.807   1.139   4.794  0.4497 -0.0198 -0.1879
14477TIP3    H164922   6.797   1.216   4.851 -0.5570 -0.0270 -0.3463
14477TIP3    H264923   6.900   1.118   4.798  0.4056  0.0341  1.3804
14478TIP3   OH264924   2.149   0.130   5.657 -0.0436 -0.3157  0.2955
14478TIP3    H164925   2.204   0.184   5.714 -0.0514 -0.1501  0.1444
14478TIP3    H264926   2.175   0.040   5.678  0.4964 -0.2309  0.0171
14479TIP3   OH264927   0.145   6.344   0.429  0.5515 -0.0610 -0.3313
14479TIP3    H164928   0.114   6.285   0.361  0.9961 -0.1497 -0.4601
14479TIP3    H264929   0.127   6.297   0.511  0.7935 -0.3229 -0.4273
14480TIP3   OH264930   2.900   1.987  17.160 -0.0803  0.0736 -0.0099
14480TIP3    H164931   2.964   2.041  17.113  1.0108  0.2886  1.6810
14480TIP3    H264932   2.947   1.953  17.236 -1.1219 -2.2423 -0.3479
14481TIP3   OH264933   4.713   5.481   1.135  0.1830  0.2285  0.2168
14481TIP3    H164934   4.631   5.528   1.149  1.6552  3.3148 -1.1538
14481TIP3    H264935   4.770   5.509   1.207  0.7368 -0.2752 -0.0176
14482TIP3   OH264936   2.188   0.126  10.638 -0.3930 -0.3290  0.0093
14482TIP3    H164937   2.121   0.144  10.572 -0.5743 -1.3102 -0.0838
14482TIP3    H264938   2.147   0.063  10.697  0.1704 -0.3165  0.4146
14483TIP3   OH264939   1.902   2.105  15.397 -0.2313  0.0189 -0.2407
14483TIP3    H164940   1.981   2.052  15.396 -0.9574 -1.1287  0.7161
14483TIP3    H264941   1.890   2.129  15.488  1.9892  4.8562 -1.0833
14484TIP3   OH264942   1.213   3.939  11.031 -0.3770  0.2855 -0.9506
14484TIP3    H164943   1.141   3.961  11.090 -0.2620  2.3182 -1.5529
14484TIP3    H264944   1.238   4.022  10.991  1.7567 -0.5298 -1.3753
14485TIP3   OH264945   6.517   0.690   0.882 -0.1799  0.1210  0.0078
14485TIP3    H164946   6.598   0.741   0.878 -0.2684  0.3068  0.5306
14485TIP3    H264947   6.449   0.755   0.901 -0.4864  0.0011 -0.6789
14486TIP3   OH264948   2.370   2.311   1.513  0.7396  0.4579 -0.1209
14486TIP3    H164949   2.394   2.335   1.423  0.6195  1.9754  0.2311
14486TIP3    H264950   2.349   2.218   1.508 -1.7487  1.0758 -2.1991
14487TIP3   OH264951   5.757   3.161  16.260  0.5449  0.2887  0.2110
14487TIP3    H164952   5.670   3.128  16.237  0.5428 -0.2602  0.9734
14487TIP3    H264953   5.785   3.211  16.183  0.4623 -1.3249 -0.8791
14488TIP3   OH264954   6.600   3.433  11.277 -0.2898 -0.0958 -0.6274
14488TIP3    H164955   6.672   3.486  11.311  0.5488  0.2293 -2.7806
14488TIP3    H264956   6.521   3.470  11.316  0.4956  1.2011 -0.2368
14489TIP3   OH264957   5.366   0.104   4.151  0.2379 -0.3290 -0.5357
14489TIP3    H164958   5.443   0.070   4.197  0.3056 -0.1450 -0.5113
14489TIP3    H264959   5.312   0.027   4.134  0.0653 -0.3582  0.1254
14490TIP3   OH264960   6.615   6.213   4.214  0.6230 -0.2841  0.0389
14490TIP3    H164961   6.648   6.147   4.276  0.8918 -1.0137 -0.8744
14490TIP3    H264962   6.525   6.187   4.196  0.4076  0.1676  0.4259
14491TIP3   OH264963   1.113   3.736   0.576 -0.1157 -0.0729 -0.0972
14491TIP3    H164964   1.176   3.788   0.627 -1.2784  0.3263  0.9372
14491TIP3    H264965   1.098   3.788   0.498  0.7697 -0.1259 -0.3117
14492TIP3   OH264966   0.734   1.786   3.597 -0.2140 -0.0375  0.1289
14492TIP3    H164967   0.791   1.836   3.538 -0.3816 -0.8581 -0.7336
14492TIP3    H264968   0.793   1.753   3.665 -0.1499  1.6074  0.9090
14493TIP3   OH264969   3.058   3.120   2.568  0.5374  0.0289  0.3527
14493TIP3    H164970   3.116   3.186   2.604 -0.4519  0.3402  1.4086
14493TIP3    H264971   3.008   3.088   2.643 -0.7278 -0.1647 -0.5525
14494TIP3   OH264972   4.046   0.472   4.796  0.1072  0.2562 -0.1720
14494TIP3    H164973   3.974   0.428   4.842  0.0287 -1.5799 -1.9699
14494TIP3    H264974   4.126   0.435   4.835  0.0954  1.6992  1.2633
14495TIP3   OH264975   3.513   3.286   4.414 -0.0044 -0.4923 -0.0991
14495TIP3    H164976   3.556   3.366   4.382 -0.6741 -1.1901 -2.9159
14495TIP3    H264977   3.569   3.215   4.383 -0.9410 -1.2290 -0.1226
14496TIP3   OH264978   3.966   0.302  14.865  0.3611  0.3735 -0.0350
14496TIP3    H164979   4.026   0.375  14.885  0.5298  0.4754 -0.8997
14496TIP3    H264980   4.004   0.260  14.788  0.8977 -1.3481  1.1350
14497TIP3   OH264981   6.782   3.299  14.393  0.3499 -0.6532  0.1559
14497TIP3    H164982   6.788   3.389  14.361 -0.8310 -0.8845 -0.7515
14497TIP3    H264983   6.873   3.272  14.407  0.6913  0.8428  0.9060
14498TIP3   OH264984   1.729   4.974   3.922  0.4618 -0.0683  0.8560
14498TIP3    H164985   1.674   4.948   3.848  0.4056  0.6989  0.6247
14498TIP3    H264986   1.668   5.015   3.984  0.7983  0.9953  0.4961
14499TIP3   OH264987   4.813   0.646   2.478  0.2612 -0.1444  0.5624
14499TIP3    H164988   4.875   0.654   2.406 -2.2790  1.4129 -1.5599
14499TIP3    H264989   4.825   0.725   2.530  2.2372 -1.3634  2.0645
14500TIP3   OH264990   1.178   0.351  14.187 -0.2526  0.6069  0.3418
14500TIP3    H164991   1.214   0.283  14.244 -0.9650  0.0075  0.0848
14500TIP3    H264992   1.196   0.433  14.234 -0.5313  0.1484  1.2766
14501TIP3   OH264993   3.245   3.303   2.658  0.0224 -0.8635  0.4243
14501TIP3    H164994   3.322   3.257   2.626 -0.3524 -1.7640  0.8085
14501TIP3    H264995   3.279   3.363   2.725  0.6854  0.3839 -0.9868
14502TIP3   OH264996   4.723   0.729   0.999 -0.3280 -0.2888 -0.4267
14502TIP3    H164997   4.813   0.696   1.000  0.3407  1.4749  0.5564
14502TIP3    H264998   4.732   0.822   0.978 -1.7401  0.3784  1.7436
14503TIP3   OH264999   0.871   6.255   4.446 -0.3725  0.3428  0.2967
14503TIP3    H165000   0.954   6.227   4.483 -0.9924 -1.8569  0.0844
14503TIP3    H265001   0.825   6.296   4.520  0.5443  0.7952  0.6247
14504TIP3   OH265002   3.642   0.738   0.482  1.4565  0.8308  0.2398
14504TIP3    H165003   3.548   0.738   0.498  1.4455  1.5400  0.1750
14504TIP3    H265004   3.678   0.802   0.544  1.8878  0.6021  0.2322
14505TIP3   OH265005   1.071   3.136   4.507  0.7716  0.6758  0.6162
14505TIP3    H165006   1.031   3.219   4.535 -3.0130 -0.9289  0.3293
14505TIP3    H265007   1.103   3.097   4.588 -1.4674  0.4396  1.4290
14506TIP3   OH265008   1.064   3.307   1.121  0.0357  0.3728 -0.0699
14506TIP3    H165009   1.138   3.314   1.061  0.6525  0.0566  0.6515
14506TIP3    H265010   1.096   3.341   1.204 -0.4419 -0.3008  0.3978
14507TIP3   OH265011   2.750   0.259   4.901  0.1577  0.1593 -0.7705
14507TIP3    H165012   2.814   0.300   4.843  0.0837 -1.4086 -1.9745
14507TIP3    H265013   2.756   0.166   4.883  0.2307 -0.3922  1.8691
14508TIP3   OH265014   1.013   2.851   3.612  0.2296 -0.2635 -0.3631
14508TIP3    H165015   0.930   2.861   3.566 -0.7598 -0.7001  1.2960
14508TIP3    H265016   1.079   2.861   3.544 -1.1644  0.5001 -1.6311
14509TIP3   OH265017   0.559   5.557  15.399 -0.0184 -0.7186 -0.5771
14509TIP3    H165018   0.523   5.640  15.369  0.9117 -0.7298 -1.7666
14509TIP3    H265019   0.493   5.521  15.457 -0.2294  1.0638  0.2943
14510TIP3   OH265020   5.219   4.547   1.212 -0.1530 -0.5203 -0.3555
14510TIP3    H165021   5.290   4.608   1.233 -1.5327  1.0590 -0.1925
14510TIP3    H265022   5.254   4.461   1.235  1.3228  0.3357  0.7178
14511TIP3   OH265023   2.791   1.839  10.852 -0.3186  0.4443 -0.3629
14511TIP3    H165024   2.742   1.802  10.778 -1.7227  0.5649  0.4759
14511TIP3    H265025   2.809   1.765  10.908  0.9891  0.3108 -0.9533
14512TIP3   OH265026   0.774   2.354   2.949 -0.0016  0.1616  0.3865
14512TIP3    H165027   0.853   2.348   3.003 -0.0079  1.3470  0.5504
14512TIP3    H265028   0.805   2.341   2.860  0.0705 -1.4013  0.6366
14513TIP3   OH265029   6.458   5.858   1.704  0.0251 -0.0055  0.2428
14513TIP3    H165030   6.425   5.944   1.731 -1.3923 -0.3951 -0.1780
14513TIP3    H265031   6.452   5.859   1.609 -0.5505 -0.7728  0.2636
14514TIP3   OH265032   2.009   3.673   3.319 -0.2044 -0.0654  0.0877
14514TIP3    H165033   1.928   3.623   3.309  0.5165 -1.4506  1.0040
14514TIP3    H265034   1.991   3.734   3.391  0.3319 -2.0248  1.9288
14515TIP3   OH265035   1.887   5.679  14.324  0.2901 -0.6201  0.4894
14515TIP3    H165036   1.982   5.690  14.332  0.4472 -1.1198 -0.6581
14515TIP3    H265037   1.862   5.628  14.402  0.9036 -0.1678  0.9858
14516TIP3   OH265038   0.441   0.328  10.613  0.0253  0.0833  0.4453
14516TIP3    H165039   0.406   0.242  10.635 -1.3379  0.0183 -1.7822
14516TIP3    H265040   0.423   0.382  10.690 -0.1624 -1.3076  1.4041
14517TIP3   OH265041   2.392   1.270  14.679  0.2107  0.3690  0.1116
14517TIP3    H165042   2.309   1.239  14.641 -0.3068 -0.3361  1.7543
14517TIP3    H265043   2.372   1.357  14.712 -0.1413 -0.1594  1.3186
14518TIP3   OH265044   3.160   3.938  10.440 -0.1587 -0.6504 -0.6980
14518TIP3    H165045   3.162   3.868  10.375  0.2154 -1.1380 -0.1605
14518TIP3    H265046   3.246   3.935  10.482 -0.3020 -0.1628 -0.3664
14519TIP3   OH265047   0.380   0.035   4.205  0.0395  0.3689 -0.2880
14519TIP3    H165048   0.435   0.052   4.281  0.0160 -0.0177 -0.1856
14519TIP3    H265049   0.389  -0.059   4.189  0.0132  0.4410 -0.7380
14520TIP3   OH265050   1.884   3.810  17.229  0.0349 -0.1163 -0.1256
14520TIP3    H165051   1.972   3.813  17.192 -0.1245  1.5539 -0.4056
14520TIP3    H265052   1.833   3.871  17.176 -0.4455  1.5679  2.1755
14521TIP3   OH265053   2.404   3.917   3.463  0.0892  0.2096 -0.1687
14521TIP3    H165054   2.328   3.975   3.463  0.3279  0.5280 -0.4598
14521TIP3    H265055   2.470   3.964   3.412  0.1903 -0.4443 -0.6429
14522TIP3   OH265056   6.601   3.263  16.947  0.5417  0.0549 -0.2402
14522TIP3    H165057   6.547   3.232  16.874  0.9315  1.1958 -1.0272
14522TIP3    H265058   6.681   3.210  16.941 -0.7393 -2.1090  1.3403
14523TIP3   OH265059   5.468   6.225   4.335  0.3389  0.7555  0.0115
14523TIP3    H165060   5.556   6.196   4.360  0.1759 -0.6350 -1.0017
14523TIP3    H265061   5.456   6.193   4.246 -1.2762  0.7627  0.2132
14524TIP3   OH265062   6.503   3.477   4.493 -0.5333  0.4785 -0.3915
14524TIP3    H165063   6.499   3.451   4.585  1.2891  0.2256 -0.3700
14524TIP3    H265064   6.417   3.514   4.475 -1.5705 -1.2393  0.8911
14525TIP3   OH265065   4.561   0.986  12.475 -0.3758  0.4489 -0.3644
14525TIP3    H165066   4.563   1.082  12.482  0.1869  0.4043  0.0883
14525TIP3    H265067   4.605   0.967  12.393 -1.6823  0.6514 -1.1179
14526TIP3   OH265068   3.073   4.173   4.870  0.6179  0.3011  0.3142
14526TIP3    H165069   2.982   4.196   4.850  0.2600 -1.6154 -0.3134
14526TIP3    H265070   3.102   4.241   4.931 -1.6215  0.2380  1.4994
14527TIP3   OH265071   0.684   5.629   1.157 -0.0734 -0.4890 -0.0556
14527TIP3    H165072   0.745   5.688   1.111 -0.4748 -0.2494 -0.2857
14527TIP3    H265073   0.598   5.667   1.141 -0.2350 -0.5370  0.7163
14528TIP3   OH265074   0.547   4.326  14.347 -0.0830  0.5585  0.2886
14528TIP3    H165075   0.641   4.332  14.333 -0.0417 -0.7359  0.0144
14528TIP3    H265076   0.512   4.407  14.309  0.7427  0.2826 -1.0968
14529TIP3   OH265077   6.189   3.445   3.150  0.0520 -0.4508 -0.3698
14529TIP3    H165078   6.125   3.505   3.113  1.2149  1.6590  0.8995
14529TIP3    H265079   6.269   3.497   3.156  0.4189 -1.2991  3.1438
14530TIP3   OH265080   2.951   0.310  11.232  0.4939  0.6066  1.0116
14530TIP3    H165081   2.914   0.370  11.167 -1.7869  0.6233  2.2939
14530TIP3    H265082   2.995   0.367  11.295 -0.6169  0.8740  1.5608
14531TIP3   OH265083   3.483   1.258  14.252  0.3916  0.6433 -0.4496
14531TIP3    H165084   3.409   1.256  14.192 -0.7003  0.4571  0.8726
14531TIP3    H265085   3.560   1.242  14.197 -0.4503  1.7209 -1.9728
14532TIP3   OH265086   5.124   0.016  12.777  0.8290  0.4447 -0.3077
14532TIP3    H165087   5.149   0.096  12.823 -0.2891  0.3915  0.4172
14532TIP3    H265088   5.207  -0.026  12.755  1.4251  2.0396 -1.1434
14533TIP3   OH265089   3.344   0.841   1.578  0.5676 -0.1731  0.3392
14533TIP3    H165090   3.270   0.900   1.590  0.6287 -0.1809  0.7429
14533TIP3    H265091   3.399   0.853   1.655  2.0937  1.4048 -0.9479
14534TIP3   OH265092   3.254   4.946  12.058  0.5751  0.0838  0.1250
14534TIP3    H165093   3.260   5.038  12.085  1.6412  0.6950 -2.1167
14534TIP3    H265094   3.160   4.929  12.053  0.3603  1.4884 -0.8333
14535TIP3   OH265095   6.259   4.014  17.171  0.1571  0.1610 -0.0276
14535TIP3    H165096   6.338   4.039  17.124  1.2116 -1.0077  1.0840
14535TIP3    H265097   6.188   4.055  17.121  1.1038 -2.0709 -3.3631
14536TIP3   OH265098   1.120   2.255   4.985 -0.1135 -0.5103  0.0005
14536TIP3    H165099   1.068   2.266   4.905 -0.2551 -0.8199  0.0510
14536TIP3    H265100   1.068   2.197   5.040 -0.6290  0.7395  0.8593
14537TIP3   OH265101   1.699   1.815  16.374 -0.2606  0.1600  0.5588
14537TIP3    H165102   1.710   1.910  16.373 -0.8339  0.2441 -2.1442
14537TIP3    H265103   1.604   1.802  16.371 -0.1547 -0.4795 -0.1399
14538TIP3   OH265104   5.877   6.076  16.280  0.2065  0.2946  0.0545
14538TIP3    H165105   5.931   6.031  16.215  0.2763 -0.0444  0.3450
14538TIP3    H265106   5.937   6.096  16.351  0.5151  2.2404 -0.7334
14539TIP3   OH265107   4.864   5.630   3.492 -0.4906  0.3660 -0.1229
14539TIP3    H165108   4.801   5.566   3.458 -0.4402  0.2284  0.0427
14539TIP3    H265109   4.866   5.614   3.586  0.3230 -0.1101 -0.2160
14540TIP3   OH265110   4.617   5.720   1.740  0.3040 -0.0856 -0.6529
14540TIP3    H165111   4.711   5.731   1.733  0.5396 -1.4941 -0.0034
14540TIP3    H265112   4.590   5.684   1.656  0.8458 -2.6749  0.2335
14541TIP3   OH265113   0.673   1.217  12.519 -0.1633 -0.2213 -0.2400
14541TIP3    H165114   0.626   1.298  12.501 -0.2444 -0.3347 -0.5410
14541TIP3    H265115   0.766   1.243  12.521 -0.1503 -0.2058 -0.8277
14542TIP3   OH265116   2.071   2.399   3.672 -0.2873 -0.0327 -0.7409
14542TIP3    H165117   2.049   2.465   3.606 -1.8589 -1.3607 -1.5882
14542TIP3    H265118   1.989   2.353   3.687  1.4763 -4.1379 -2.8039
14543TIP3   OH265119   2.466   4.260   2.085 -0.1851  0.3682 -0.2283
14543TIP3    H165120   2.552   4.301   2.083  1.8564 -3.7468 -0.1536
14543TIP3    H265121   2.438   4.268   2.177  1.4991 -0.9674  0.4239
14544TIP3   OH265122   4.177   4.249  13.617  0.3894 -0.0107 -0.4081
14544TIP3    H165123   4.109   4.183  13.607 -1.5340  1.6670  1.2895
14544TIP3    H265124   4.249   4.202  13.659 -0.9980 -1.0263  0.9033
14545TIP3   OH265125   4.523   1.654   2.229 -0.1754  0.2282 -0.5813
14545TIP3    H165126   4.546   1.637   2.320  0.9017  0.5697 -0.7760
14545TIP3    H265127   4.454   1.591   2.209  0.1498 -0.3904  0.2329
14546TIP3   OH265128   6.375   1.668  12.071 -0.7622 -0.0101  0.0751
14546TIP3    H165129   6.372   1.763  12.077  0.2767  0.0790 -0.6600
14546TIP3    H265130   6.289   1.643  12.036 -1.0287  0.6544  0.2550
14547TIP3   OH265131   0.122   5.333  13.127 -0.0030  0.0941  0.4151
14547TIP3    H165132   0.043   5.280  13.114 -0.1499 -0.2524  2.5984
14547TIP3    H265133   0.145   5.320  13.219  3.1094 -0.4945 -0.3807
14548TIP3   OH265134   4.581   3.362   0.197  0.2076  0.8940 -0.1287
14548TIP3    H165135   4.505   3.414   0.221  0.1344  1.1520 -0.8866
14548TIP3    H265136   4.563   3.334   0.107 -0.0723 -1.0392  0.5194
14549TIP3   OH265137   0.674   3.371   5.955  0.3271  0.1907 -0.3067
14549TIP3    H165138   0.679   3.458   5.915 -0.4063  0.8039  0.9170
14549TIP3    H265139   0.587   3.339   5.933  1.0525 -0.8052 -1.8637
14550TIP3   OH265140   6.115   1.498  14.083 -0.2634 -0.1979  0.7830
14550TIP3    H165141   6.021   1.502  14.063 -0.1825  0.0339  0.4493
14550TIP3    H265142   6.131   1.405  14.102 -0.4239 -0.3521  0.1834
14551TIP3   OH265143   4.991   3.882  16.768  0.3667  0.2334  0.0570
14551TIP3    H165144   4.943   3.909  16.690 -0.2470  0.3073  0.4557
14551TIP3    H265145   5.059   3.948  16.778 -1.2170  1.7458  1.1127
14552TIP3   OH265146   0.907   4.484   4.821  0.1083 -0.0480 -0.0155
14552TIP3    H165147   0.964   4.537   4.766 -0.5950  2.4260  1.5130
14552TIP3    H265148   0.818   4.508   4.794 -0.2219 -1.2237 -0.0006
14553TIP3   OH265149   2.063   0.223  13.950  0.3890  0.8320 -0.1721
14553TIP3    H165150   1.983   0.180  13.981 -0.0407  1.4983 -0.3379
14553TIP3    H265151   2.132   0.188  14.005 -0.3158  1.7741  1.3305
14554TIP3   OH265152   4.236   1.613  16.123  0.0451  0.1829  0.0635
14554TIP3    H165153   4.201   1.524  16.126 -2.4729  0.9256 -3.7026
14554TIP3    H265154   4.184   1.662  16.187  0.8000 -0.7812  1.4494
14555TIP3   OH265155   6.694   0.454   1.517 -0.0062 -0.3016 -0.2260
14555TIP3    H165156   6.709   0.386   1.582 -0.6423 -1.1554 -0.9562
14555TIP3    H265157   6.599   0.455   1.504  0.0540  0.2990 -0.6731
14556TIP3   OH265158   3.283   0.497  11.989  0.0703 -0.3882 -0.3206
14556TIP3    H165159   3.298   0.591  11.980 -1.3126 -0.1369 -0.1138
14556TIP3    H265160   3.203   0.490  12.041 -0.7321 -1.6674 -1.6769
14557TIP3   OH265161   3.885   2.395  12.237  0.5649 -0.1068 -0.3622
14557TIP3    H165162   3.980   2.396  12.225  0.3765  0.2291 -2.0407
14557TIP3    H265163   3.867   2.318  12.290  1.7632 -0.2380 -0.1420
14558TIP3   OH265164   0.630   6.002  14.281 -0.2756 -0.2362  0.2504
14558TIP3    H165165   0.719   5.968  14.294  0.4275  1.8953  1.1701
14558TIP3    H265166   0.627   6.022  14.187  0.9226  1.5317  0.5608
14559TIP3   OH265167   0.567   3.427   5.465 -0.3596  0.2491  0.2216
14559TIP3    H165168   0.499   3.430   5.532 -1.8910  2.1975 -1.3529
14559TIP3    H265169   0.632   3.365   5.499 -2.9821 -1.7941  1.6887
14560TIP3   OH265170   1.646   2.055  14.530 -0.4201  0.1499  0.0205
14560TIP3    H165171   1.573   2.086  14.477 -1.2530 -3.0903 -0.8101
14560TIP3    H265172   1.702   2.008  14.469  0.6537 -0.2417  1.2902
14561TIP3   OH265173   0.329   3.826   2.133  0.0294 -0.4180 -0.8894
14561TIP3    H165174   0.425   3.824   2.132  0.1453 -1.9042  2.7451
14561TIP3    H265175   0.303   3.738   2.106 -0.2420 -0.5120 -0.3346
14562TIP3   OH265176   0.320   2.985  13.396  0.0590 -0.3339 -0.0710
14562TIP3    H165177   0.287   3.073  13.414  0.0204 -0.4252  0.3203
14562TIP3    H265178   0.271   2.955  13.320  2.4737  1.3042 -2.3276
14563TIP3   OH265179   3.405   2.893  14.448 -0.4290 -0.3155 -0.8383
14563TIP3    H165180   3.386   2.951  14.374  0.3490 -0.9136 -1.5229
14563TIP3    H265181   3.337   2.913  14.512 -0.0420  1.5150 -0.9624
14564TIP3   OH265182   1.729   3.793  12.254 -0.1443 -0.2755  0.3600
14564TIP3    H165183   1.778   3.781  12.173 -0.2620 -0.1681  0.2712
14564TIP3    H265184   1.637   3.781  12.228 -0.3852  2.0266  0.0068
14565TIP3   OH265185   3.307   6.453   4.608 -0.0477  0.1066  0.1864
14565TIP3    H165186   3.290   6.517   4.539  1.0903 -0.9304 -1.0995
14565TIP3    H265187   3.307   6.368   4.562 -0.6003 -0.7131  1.6908
14566TIP3   OH265188   5.780   1.605   4.636 -0.0552  0.1479 -0.3876
14566TIP3    H165189   5.816   1.694   4.635  0.3642 -0.0208 -0.3221
14566TIP3    H265190   5.820   1.562   4.561 -1.3934  0.4562 -1.3094
14567TIP3   OH265191   3.471   4.602  16.011 -0.2114 -0.0414 -0.0482
14567TIP3    H165192   3.401   4.595  15.946 -0.9798  1.9053  0.5367
14567TIP3    H265193   3.435   4.658  16.079  1.2009 -0.6726  1.2507
14568TIP3   OH265194   0.706   1.498   3.168  0.2050 -0.1607 -0.2634
14568TIP3    H165195   0.618   1.465   3.147 -0.3758  2.3198 -1.8316
14568TIP3    H265196   0.690   1.577   3.220  1.5117  0.4009 -0.7051
14569TIP3   OH265197   5.623   3.306  13.927 -0.2434 -0.6583 -0.1781
14569TIP3    H165198   5.613   3.366  13.853 -1.4454  0.4643  0.8718
14569TIP3    H265199   5.717   3.292  13.935  0.1224  1.9747  0.2586
14570TIP3   OH265200   5.096   4.494  13.142  0.2753  0.4277 -0.4248
14570TIP3    H165201   5.003   4.480  13.125  0.1919  0.5779 -0.0801
14570TIP3    H265202   5.137   4.413  13.113  0.0615  0.4358 -0.7607
14571TIP3   OH265203   1.814   0.453  15.235 -0.0216 -0.1797  0.4386
14571TIP3    H165204   1.723   0.461  15.206 -0.5244  0.1464  2.1043
14571TIP3    H265205   1.864   0.488  15.161 -1.2458 -0.2509 -0.4531
14572TIP3   OH265206   5.599   3.400   1.524  0.0803 -0.0514 -0.1344
14572TIP3    H165207   5.654   3.415   1.601  0.0786 -0.3889 -0.0668
14572TIP3    H265208   5.525   3.459   1.536 -0.9408 -1.5569  1.1484
14573TIP3   OH265209   5.449   1.998   3.491  0.1911 -0.8114  0.4714
14573TIP3    H165210   5.433   2.089   3.517  0.0231 -0.6154 -0.2999
14573TIP3    H265211   5.544   1.988   3.498  0.1696 -0.7078  0.9611
14574TIP3   OH265212   4.142   4.630   5.956 -0.9345 -0.3357 -0.4965
14574TIP3    H165213   4.211   4.594   6.011 -0.7759 -0.0599 -0.5142
14574TIP3    H265214   4.064   4.631   6.012 -0.5839  0.6919 -0.0284
14575TIP3   OH265215   5.557   6.447   1.896 -0.1932  0.1587 -0.1171
14575TIP3    H165216   5.468   6.416   1.908 -1.1197  2.3719 -1.0838
14575TIP3    H265217   5.606   6.369   1.869 -1.9205 -0.9664 -0.0610
14576TIP3   OH265218   6.467   5.465   1.291 -0.4689  0.1271  0.1304
14576TIP3    H165219   6.509   5.379   1.281  0.6035  0.6092  0.3659
14576TIP3    H265220   6.540   5.526   1.296 -1.2471  1.1519 -0.8842
14577TIP3   OH265221   3.036   2.499   1.542 -0.4673 -0.4979 -0.8890
14577TIP3    H165222   2.988   2.530   1.619  1.2017 -0.0069 -0.0371
14577TIP3    H265223   3.069   2.413   1.567  0.4226 -0.1647 -0.8917
14578TIP3   OH265224   6.348   0.358   0.521 -0.0529  0.4953  0.1955
14578TIP3    H165225   6.421   0.393   0.572 -0.2917  0.1842  0.7438
14578TIP3    H265226   6.370   0.266   0.508 -1.5776 -0.2106  2.5169
14579TIP3   OH265227   4.110   1.083  14.636 -0.1584 -0.1598 -0.1638
14579TIP3    H165228   4.051   1.057  14.707 -0.4206  0.7788 -0.0218
14579TIP3    H265229   4.051   1.113  14.566  0.1348  0.7743 -0.0211
14580TIP3   OH265230   1.875   3.565  10.937  0.2189  0.4690 -0.2093
14580TIP3    H165231   1.969   3.560  10.924  0.2745  3.8582 -1.4895
14580TIP3    H265232   1.850   3.652  10.905 -2.9738  0.6212  2.4047
14581TIP3   OH265233   5.706   3.156   4.472  0.7292 -0.2830  0.0556
14581TIP3    H165234   5.767   3.211   4.424  0.3277 -0.6010 -0.8281
14581TIP3    H265235   5.756   3.125   4.548  2.5032 -2.6385 -2.0020
14582TIP3   OH265236   4.599   1.565   2.559  0.4524  0.1054  0.2138
14582TIP3    H165237   4.679   1.602   2.521  0.1698 -0.1235 -0.6011
14582TIP3    H265238   4.604   1.589   2.652  0.5739  1.6851 -0.1829
14583TIP3   OH265239   2.620   4.898   6.260  0.4604  0.2603 -0.3786
14583TIP3    H165240   2.557   4.952   6.309 -0.1157  0.3834 -1.2504
14583TIP3    H265241   2.654   4.957   6.193 -0.5392 -0.5920 -1.6524
14584TIP3   OH265242   0.992   4.361   3.245 -0.6090  0.3447 -0.1216
14584TIP3    H165243   1.043   4.324   3.317 -1.4687  1.9118  1.3349
14584TIP3    H265244   0.929   4.292   3.223  0.7257 -0.7822 -0.5147
14585TIP3   OH265245   3.639   5.380  16.407  0.2431  0.2280 -0.0445
14585TIP3    H165246   3.733   5.361  16.404  0.5318  1.8510 -1.8793
14585TIP3    H265247   3.603   5.335  16.331 -0.7228 -1.5886  1.4557
14586TIP3   OH265248   1.528   2.665  11.291 -0.1422  0.2365  0.5858
14586TIP3    H165249   1.563   2.711  11.367 -1.0067  1.0021  0.5315
14586TIP3    H265250   1.533   2.572  11.314  1.5327  0.3526  0.7330
14587TIP3   OH265251   3.039   3.879  11.894  0.0274 -0.0548 -0.0562
14587TIP3    H165252   3.065   3.891  11.802  0.0793  0.7191  0.0580
14587TIP3    H265253   3.119   3.851  11.938  0.1526  0.1764 -0.1312
14588TIP3   OH265254   2.039   6.148  10.401  0.3415  0.1667 -0.2746
14588TIP3    H165255   2.049   6.058  10.432  1.5462  0.6891  0.8971
14588TIP3    H265256   2.120   6.192  10.429 -0.4340  1.7160 -0.4404
14589TIP3   OH265257   1.042   3.953   4.505 -0.4001 -0.6399 -0.3304
14589TIP3    H165258   1.094   3.973   4.583 -1.5711  2.3517 -0.2294
14589TIP3    H265259   1.058   4.026   4.446 -2.0257 -1.2530 -1.5779
14590TIP3   OH265260   6.248   3.070   5.675  0.0612 -0.2972  0.3456
14590TIP3    H165261   6.279   3.128   5.744 -0.7450 -1.7898  1.9969
14590TIP3    H265262   6.304   2.993   5.681 -0.8140 -0.9592  0.1702
14591TIP3   OH265263   5.693   3.675   3.393 -0.3347 -0.0007 -0.3945
14591TIP3    H165264   5.643   3.692   3.313 -0.4352  1.0535 -0.1241
14591TIP3    H265265   5.677   3.583   3.412 -3.5642  0.6647  0.5759
14592TIP3   OH265266   6.544   5.489  16.009 -0.0675 -0.3040 -0.0244
14592TIP3    H165267   6.631   5.456  15.988  1.4754  2.7270  1.3254
14592TIP3    H265268   6.505   5.509  15.924  1.0044 -0.6329 -0.5994
14593TIP3   OH265269   6.293   4.939   6.177  0.0973  0.8427  0.3085
14593TIP3    H165270   6.200   4.961   6.189 -0.1958 -0.5849  0.7589
14593TIP3    H265271   6.320   4.902   6.261  1.0267  1.0472  0.1074
14594TIP3   OH265272   5.871   5.114   0.123 -0.0469 -0.1583  0.3564
14594TIP3    H165273   5.921   5.153   0.195 -0.8072  1.9813 -0.2712
14594TIP3    H265274   5.853   5.025   0.154  0.6779  0.3315  2.3051
14595TIP3   OH265275   5.300   6.490  12.335  0.0634 -0.0213  0.6295
14595TIP3    H165276   5.250   6.538  12.268  0.1446  0.5574  0.9810
14595TIP3    H265277   5.382   6.538  12.342 -0.0838  0.1178  1.3951
14596TIP3   OH265278   1.244   3.126  11.268  0.4513  0.0172 -0.2683
14596TIP3    H165279   1.326   3.077  11.264 -0.1822 -1.0267 -0.5907
14596TIP3    H265280   1.229   3.154  11.178  0.0603 -0.4388 -0.3432
14597TIP3   OH265281   0.388   0.241   0.059 -0.2587 -0.3431 -0.5884
14597TIP3    H165282   0.346   0.221   0.143 -2.0151  0.1213 -1.3304
14597TIP3    H265283   0.380   0.336   0.052  1.4852 -0.1788 -0.4660
14598TIP3   OH265284   4.796   2.846  14.159 -0.6389  0.0819 -0.4964
14598TIP3    H165285   4.872   2.892  14.194 -1.7041  0.5833  1.2455
14598TIP3    H265286   4.832   2.777  14.104  1.1674 -1.6455  2.7099
14599TIP3   OH265287   6.540   4.672   3.092  0.0211  0.2457 -0.2223
14599TIP3    H165288   6.590   4.703   3.168  2.3649 -1.4650 -1.0151
14599TIP3    H265289   6.534   4.577   3.105  0.0071  0.0081 -1.9258
14600TIP3   OH265290   3.194   0.822   4.889  0.0595  0.0257  0.2819
14600TIP3    H165291   3.144   0.848   4.967  3.2249  1.1806  2.0248
14600TIP3    H265292   3.237   0.740   4.915  1.9749  0.9751  0.1511
14601TIP3   OH265293   4.904   3.048   2.951 -0.3532 -0.4945  0.2848
14601TIP3    H165294   4.977   2.989   2.970 -0.3425  0.2317  2.5286
14601TIP3    H265295   4.929   3.131   2.991 -2.3009 -0.1741  0.8505
14602TIP3   OH265296   4.809   2.612   5.805  0.2047 -0.0748  0.0668
14602TIP3    H165297   4.796   2.619   5.900 -1.6486 -1.3818 -0.0466
14602TIP3    H265298   4.784   2.698   5.771 -0.3875  0.0020  0.6672
14603TIP3   OH265299   1.880   3.665   5.340 -0.2101  0.1589 -0.4798
14603TIP3    H165300   1.946   3.729   5.364 -1.1979 -0.1478  3.3902
14603TIP3    H265301   1.802   3.717   5.321 -0.1471  0.2720 -0.4293
14604TIP3   OH265302   6.643   2.365   5.454  0.1645 -0.3692  0.0832
14604TIP3    H165303   6.626   2.421   5.530  0.7457  0.2584 -0.2393
14604TIP3    H265304   6.726   2.397   5.420 -0.8074  0.3164 -1.6857
14605TIP3   OH265305   3.393   6.676  15.701 -0.1821  0.2909  0.1472
14605TIP3    H165306   3.421   6.585  15.693 -0.5968  0.3541 -2.2417
14605TIP3    H265307   3.429   6.704  15.785  0.5636 -1.8520  0.5790
14606TIP3   OH265308   6.731   0.852   0.965  0.6271  0.2524 -0.3574
14606TIP3    H165309   6.711   0.865   0.873  1.3304 -0.2476 -0.5777
14606TIP3    H265310   6.820   0.819   0.967  0.7130  0.5032  0.5180
14607TIP3   OH265311   5.475   0.363  14.564  0.5750 -0.1610  0.4221
14607TIP3    H165312   5.470   0.434  14.628  0.6394  1.0517 -0.8851
14607TIP3    H265313   5.406   0.382  14.501 -0.4687 -2.1680  0.9174
14608TIP3   OH265314   0.317   0.416  11.413  0.3240 -0.2443 -0.0495
14608TIP3    H165315   0.312   0.321  11.410 -0.6338 -0.1790 -0.9141
14608TIP3    H265316   0.358   0.441  11.330 -0.5038  0.1468 -0.3554
14609TIP3   OH265317   3.282   4.326  13.533  0.1279 -0.2396 -0.3355
14609TIP3    H165318   3.238   4.390  13.589 -0.1332  0.8508 -1.7646
14609TIP3    H265319   3.366   4.310  13.576 -0.9427 -1.0626  1.5090
14610TIP3   OH265320   2.143   3.766  13.419  0.1247 -0.4204 -0.0441
14610TIP3    H165321   2.122   3.741  13.329 -0.6786 -0.0347  0.0355
14610TIP3    H265322   2.236   3.744  13.428 -0.0379 -1.3988 -0.6431
14611TIP3   OH265323   1.108   4.229   2.277 -0.6853 -0.0998  0.1292
14611TIP3    H165324   1.173   4.170   2.238 -0.8591 -1.1023  1.3438
14611TIP3    H265325   1.138   4.317   2.253 -0.5366 -0.6677 -1.8646
14612TIP3   OH265326   6.156   0.368   1.654 -0.5688  0.5135 -0.0651
14612TIP3    H165327   6.226   0.432   1.662  0.8566 -1.3221  2.7474
14612TIP3    H265328   6.113   0.368   1.739 -2.8154  0.2632 -1.1548
14613TIP3   OH265329   6.294   1.049   6.024  0.3243  0.5029 -0.1271
14613TIP3    H165330   6.210   1.027   5.985  0.9332 -0.4912 -0.8972
14613TIP3    H265331   6.274   1.118   6.088 -1.2347 -0.5262  0.5111
14614TIP3   OH265332   0.319   1.920  13.839  0.6451 -0.4900 -0.0738
14614TIP3    H165333   0.313   1.983  13.767  0.4335 -0.2095  0.1887
14614TIP3    H265334   0.309   1.835  13.796 -0.8956 -0.2603 -0.2161
14615TIP3   OH265335   4.134   5.385   5.264 -0.5298 -0.0179 -0.4243
14615TIP3    H165336   4.209   5.437   5.236  0.6761 -1.4524  0.0274
14615TIP3    H265337   4.078   5.379   5.186  0.4732 -0.0139 -1.1630
14616TIP3   OH265338   0.424   5.609   4.131 -0.0591 -0.1219 -0.3401
14616TIP3    H165339   0.514   5.613   4.099  0.2146  1.1703  0.5488
14616TIP3    H265340   0.390   5.697   4.118 -1.0232 -0.4741 -0.1980
14617TIP3   OH265341   1.963   3.031  16.985  0.4265 -0.0227  0.1028
14617TIP3    H165342   1.903   2.958  17.002 -2.3207  1.6474 -1.9991
14617TIP3    H265343   1.972   3.075  17.070  2.0515 -2.6978  1.3712
14618TIP3   OH265344   0.732   1.796   6.008  0.5351  0.0082 -0.0220
14618TIP3    H165345   0.799   1.861   6.033  0.4728 -0.2313  0.7923
14618TIP3    H265346   0.734   1.732   6.079  1.4894 -1.5919 -1.4448
14619TIP3   OH265347   0.828   2.919   3.437  0.1449 -0.1446 -0.0009
14619TIP3    H165348   0.800   2.886   3.352 -0.5658  0.8971 -0.1769
14619TIP3    H265349   0.753   2.903   3.495  0.1897  0.2012  0.1556
14620TIP3   OH265350   3.620   2.281  16.959 -0.2880  0.1499 -0.7773
14620TIP3    H165351   3.527   2.302  16.956  0.1264  2.5576  1.0838
14620TIP3    H265352   3.658   2.330  16.886 -0.1668  1.0326 -0.1266
14621TIP3   OH265353   0.064   4.684  14.915 -0.1213  0.5303  0.0561
14621TIP3    H165354   0.085   4.720  15.001  1.7716  1.2680 -0.7068
14621TIP3    H265355   0.042   4.760  14.862  0.4215  0.2405 -0.5913
14622TIP3   OH265356   5.943   6.244   0.664 -0.5568  0.3192  0.2245
14622TIP3    H165357   5.981   6.302   0.730 -2.7418  0.2299  1.6058
14622TIP3    H265358   5.849   6.259   0.670 -0.9295 -1.1183 -1.5402
14623TIP3   OH265359   2.701   4.386   6.187 -0.4184  0.7123 -0.3391
14623TIP3    H165360   2.764   4.361   6.255  2.4336  1.1045 -2.6819
14623TIP3    H265361   2.733   4.470   6.155 -4.2137  2.6174  0.7220
14624TIP3   OH265362   2.835   2.552   1.758  0.1452  0.7882 -0.3504
14624TIP3    H165363   2.826   2.607   1.680 -1.3605  0.6283 -0.3112
14624TIP3    H265364   2.779   2.594   1.824 -1.4452 -1.0623 -0.4813
14625TIP3   OH265365   5.025   1.700   3.371  0.2799 -0.5028  0.6667
14625TIP3    H165366   5.083   1.764   3.412  1.0092 -1.4159  1.0747
14625TIP3    H265367   5.070   1.616   3.382 -0.2166 -0.9654 -0.6865
14626TIP3   OH265368   6.681   0.775   4.745 -0.4922  0.5286  0.1300
14626TIP3    H165369   6.677   0.704   4.681  0.0386  2.0495 -1.6374
14626TIP3    H265370   6.646   0.737   4.826 -2.8171 -0.9488 -1.4951
14627TIP3   OH265371   0.144   0.062   4.987  0.7059  0.1785 -1.0684
14627TIP3    H165372   0.170   0.069   5.079 -0.0907 -0.0302 -0.8259
14627TIP3    H265373   0.191  -0.014   4.954  2.3184  1.2411 -1.2888
14628TIP3   OH265374   0.878   3.353  12.349  0.7669  0.6087 -0.2759
14628TIP3    H165375   0.908   3.366  12.259  1.3276  0.1792 -0.1548
14628TIP3    H265376   0.957   3.328  12.397  0.0511 -1.5432 -0.1557
14629TIP3   OH265377   4.262   2.462  14.615  0.4615 -0.6269 -0.0471
14629TIP3    H165378   4.334   2.463  14.552  1.6170 -1.2644  1.2296
14629TIP3    H265379   4.296   2.511  14.691 -0.4903 -0.8410  0.5292
14630TIP3   OH265380   1.880   5.547   0.465  0.0647 -0.0759  0.1191
14630TIP3    H165381   1.862   5.582   0.378  1.2386 -1.2744 -0.6344
14630TIP3    H265382   1.804   5.491   0.484  0.3656 -0.7514 -0.6487
14631TIP3   OH265383   5.094   2.207  11.674  0.4124 -0.1980  0.0984
14631TIP3    H165384   5.165   2.143  11.681  0.4543  0.0398  2.3849
14631TIP3    H265385   5.033   2.182  11.744 -1.1592  0.3324 -1.0755
14632TIP3   OH265386   1.137   1.350  12.182  0.5488 -0.0395 -0.7094
14632TIP3    H165387   1.086   1.279  12.220  0.4315  1.5783  2.3209
14632TIP3    H265388   1.072   1.419  12.165  1.0914  0.4344 -0.8615
14633TIP3   OH265389   1.510   0.427  15.233  0.5374  0.5219 -0.0220
14633TIP3    H165390   1.455   0.504  15.220 -0.5656 -0.5485 -1.7998
14633TIP3    H265391   1.468   0.380  15.306 -0.7942 -0.1598 -1.2032
14634TIP3   OH265392   1.699   4.577   4.042 -0.3633  0.2962 -0.2190
14634TIP3    H165393   1.763   4.639   4.006 -1.4824  1.8387  0.4413
14634TIP3    H265394   1.752   4.517   4.095  0.8417  0.1151 -1.5769
14635TIP3   OH265395   3.322   3.226   4.810  0.0460 -0.2737  0.3456
14635TIP3    H165396   3.306   3.175   4.889 -0.0848  0.2296  0.6457
14635TIP3    H265397   3.270   3.182   4.742 -0.1271 -0.4931  0.6184
14636TIP3   OH265398   1.656   5.971  11.129 -0.3709  0.4683  0.4753
14636TIP3    H165399   1.633   5.879  11.137 -0.4867  0.5320  0.9240
14636TIP3    H265400   1.664   5.986  11.035  1.7899 -0.5070  0.4888
14637TIP3   OH265401   3.370   3.377   2.892 -0.6613  0.3205  0.2933
14637TIP3    H165402   3.386   3.283   2.896  0.9661  0.4745 -1.7068
14637TIP3    H265403   3.444   3.416   2.938 -0.1796  0.6874 -0.7729
14638TIP3   OH265404   2.593   1.022   1.917 -0.6895 -0.8437  0.6578
14638TIP3    H165405   2.553   1.069   1.844 -2.7079  0.6475  2.6690
14638TIP3    H265406   2.568   0.930   1.902  0.1943 -0.7949 -1.2995
14639TIP3   OH265407   6.480   0.783  12.995 -0.1049  0.2839 -0.4351
14639TIP3    H165408   6.560   0.835  12.994 -0.0749  0.2755  1.2480
14639TIP3    H265409   6.510   0.693  12.982 -0.0337  0.4996 -1.8639
14640TIP3   OH265410   4.930   2.410  15.656 -0.7927  0.2925  0.7862
14640TIP3    H165411   4.865   2.415  15.587 -0.6907  1.0186  0.7345
14640TIP3    H265412   4.939   2.316  15.674 -2.1443  0.2066  1.0826
14641TIP3   OH265413   6.231   3.965  12.434 -0.6805 -0.2317 -0.1602
14641TIP3    H165414   6.170   3.962  12.507 -0.2002 -2.3099  0.1718
14641TIP3    H265415   6.210   3.888  12.381  0.0764  0.3433 -1.3353
14642TIP3   OH265416   3.178   6.571   4.186 -0.7841  0.0958 -0.4473
14642TIP3    H165417   3.213   6.660   4.186  0.4603 -0.3913 -0.2684
14642TIP3    H265418   3.253   6.515   4.206 -1.4108 -1.0509 -1.2247
14643TIP3   OH265419   5.408   5.895  17.222  0.7107 -0.0222  0.0594
14643TIP3    H165420   5.376   5.985  17.233  1.3314  0.2361 -0.2143
14643TIP3    H265421   5.474   5.884  17.291 -0.6537 -0.8869  1.2418
14644TIP3   OH265422   4.391   6.495  16.754 -0.7626  0.2393  0.1986
14644TIP3    H165423   4.465   6.442  16.784 -1.2562  1.2619  3.3152
14644TIP3    H265424   4.428   6.583  16.741 -1.3831  0.7433  1.7216
14645TIP3   OH265425   3.300   3.380   4.201 -0.4234  0.0123 -0.2200
14645TIP3    H165426   3.385   3.366   4.158 -0.1751 -1.1937  0.6585
14645TIP3    H265427   3.320   3.433   4.278 -0.3653 -0.8639  0.3716
14646TIP3   OH265428   1.307   1.984   5.341  0.3682 -0.1218  0.1461
14646TIP3    H165429   1.314   2.073   5.305  0.0358 -0.1444  0.0325
14646TIP3    H265430   1.223   1.951   5.310 -0.4074  0.2347  1.7869
14647TIP3   OH265431   3.928   1.340  14.805  0.0283 -0.3799  0.2750
14647TIP3    H165432   3.977   1.423  14.807  1.5939 -1.2561 -0.5344
14647TIP3    H265433   3.899   1.332  14.714 -0.1478 -0.6984  0.3617
14648TIP3   OH265434   6.455   1.771   1.625 -0.4067 -0.0639  0.1384
14648TIP3    H165435   6.465   1.684   1.587 -1.4641 -0.9831  1.8862
14648TIP3    H265436   6.380   1.809   1.579 -0.1962 -0.2527 -0.3541
14649TIP3   OH265437   4.186   3.351  16.211  0.1451  0.2573  0.9306
14649TIP3    H165438   4.203   3.415  16.142  1.3863 -0.0306  0.9559
14649TIP3    H265439   4.271   3.335  16.250 -0.3823 -0.3903  1.8312
14650TIP3   OH265440   5.353   5.072  13.354  0.3722  0.1350  0.4307
14650TIP3    H165441   5.287   5.076  13.424  0.6303  3.6361  0.5626
14650TIP3    H265442   5.431   5.109  13.394  1.5845 -1.2389 -0.6391
14651TIP3   OH265443   5.172   2.161  14.522 -0.3484  0.2977  0.3278
14651TIP3    H165444   5.091   2.175  14.572 -0.7548 -0.3802 -0.1244
14651TIP3    H265445   5.178   2.066  14.514  1.2552  0.2822  1.5934
14652TIP3   OH265446   4.578   0.145   3.040 -0.0200 -0.3446  0.3111
14652TIP3    H165447   4.581   0.187   2.954  0.5562  0.7655  0.8630
14652TIP3    H265448   4.666   0.109   3.052  0.5596  1.3611  1.3378
14653TIP3   OH265449   3.173   2.404   4.030 -0.2098  0.1067 -0.1428
14653TIP3    H165450   3.241   2.421   3.965 -0.4612  1.5458 -0.0454
14653TIP3    H265451   3.124   2.330   3.994  2.2202 -1.8263  0.4385
14654TIP3   OH265452   3.492   5.087  14.370  0.1290 -0.6094 -0.2162
14654TIP3    H165453   3.412   5.131  14.340 -0.1671 -1.6084 -0.8946
14654TIP3    H265454   3.463   5.028  14.439  0.2856 -0.9760 -0.4653
14655TIP3   OH265455   2.165   0.670   3.487  0.7306  0.2985 -0.3775
14655TIP3    H165456   2.211   0.753   3.475 -0.4021  0.9352 -0.4316
14655TIP3    H265457   2.113   0.682   3.566  1.0687 -0.6005 -0.0157
14656TIP3   OH265458   1.098   3.543  12.288 -0.2344 -0.0039  0.0715
14656TIP3    H165459   1.077   3.486  12.214  0.5596 -0.0440 -0.1323
14656TIP3    H265460   1.115   3.483  12.360 -0.7922  0.0277  0.2325
14657TIP3   OH265461   6.249   5.028   1.661  0.2039  0.0175  0.2755
14657TIP3    H165462   6.313   5.086   1.703 -0.1017 -0.2637  1.1259
14657TIP3    H265463   6.298   4.947   1.647  0.5491  0.3807 -0.6631
14658TIP3   OH265464   3.129   6.216  15.038  0.2670 -0.3748  0.4325
14658TIP3    H165465   3.123   6.238  14.945  0.3928 -1.8586  0.0683
14658TIP3    H265466   3.041   6.231  15.072  0.7316  2.3330  0.5848
14659TIP3   OH265467   2.693   6.362  15.945  0.2121 -0.3295 -0.3532
14659TIP3    H165468   2.711   6.361  16.038 -0.6102 -1.7415 -0.1923
14659TIP3    H265469   2.611   6.313  15.936 -1.1516  2.0526 -1.5248
14660TIP3   OH265470   6.205   5.663  11.555  0.4846  0.4086  0.1041
14660TIP3    H165471   6.119   5.703  11.539  1.1626  1.6636 -0.4493
14660TIP3    H265472   6.208   5.650  11.650 -1.1827 -1.6403 -0.0962
14661TIP3   OH265473   0.293   0.762  16.428  0.6058 -0.0355  0.0487
14661TIP3    H165474   0.366   0.798  16.478  1.4206  2.3793 -2.7607
14661TIP3    H265475   0.215   0.804  16.465  1.3159  2.6840 -1.4557
14662TIP3   OH265476   4.215   5.639  13.192  0.1830 -0.4928 -0.3966
14662TIP3    H165477   4.145   5.595  13.239 -0.7833 -1.2560 -2.4934
14662TIP3    H265478   4.195   5.732  13.201 -0.2091 -0.6412  0.3327
14663TIP3   OH265479   0.449   0.290  13.356 -0.2896 -0.2651 -0.7740
14663TIP3    H165480   0.413   0.202  13.371 -0.3141 -0.3512 -1.3165
14663TIP3    H265481   0.543   0.276  13.346 -0.3217 -0.2639 -1.0988
14664TIP3   OH265482   0.580   1.913  10.294 -0.0132 -0.3480  0.6990
14664TIP3    H165483   0.560   1.831  10.250  0.7089  0.7919 -1.8100
14664TIP3    H265484   0.633   1.888  10.370 -0.3034 -2.2203  0.2999
14665TIP3   OH265485   1.973   1.479   4.289  0.6983  0.0436  0.0249
14665TIP3    H165486   1.991   1.494   4.196  0.5483  0.6408  0.0885
14665TIP3    H265487   1.985   1.565   4.329  0.0462 -0.0655  0.4452
14666TIP3   OH265488   4.970   5.744  15.301  0.8056  0.1062 -0.0180
14666TIP3    H165489   4.956   5.735  15.206 -2.6368  0.5369  0.3758
14666TIP3    H265490   4.964   5.654  15.334 -0.6260  0.2207  0.0691
14667TIP3   OH265491   0.180   5.044   5.526  0.4430  0.0465 -0.4848
14667TIP3    H165492   0.264   5.066   5.566  0.5181 -1.6196  0.3089
14667TIP3    H265493   0.184   4.950   5.511 -1.3689 -0.1013 -0.2124
14668TIP3   OH265494   2.527   4.115   3.652  0.1207 -0.1125 -0.0980
14668TIP3    H165495   2.607   4.126   3.602  0.6098 -1.0510  0.4462
14668TIP3    H265496   2.490   4.033   3.620 -0.8087  0.5016 -0.5986
14669TIP3   OH265497   0.250   3.410   2.206 -0.4254  0.3138  0.0864
14669TIP3    H165498   0.262   3.442   2.116 -1.4001  1.8001  0.4608
14669TIP3    H265499   0.195   3.333   2.196  0.0914  0.0284 -0.6553
14670TIP3   OH265500   2.431   2.849   0.578  0.3327 -0.3450 -0.5808
14670TIP3    H165501   2.458   2.940   0.573 -0.1524 -0.1915 -0.4493
14670TIP3    H265502   2.513   2.799   0.581  0.6546 -0.0588 -3.0900
14671TIP3   OH265503   6.816   2.524  12.022 -0.0760 -0.0008 -0.1501
14671TIP3    H165504   6.828   2.514  12.116 -0.9267 -2.4127 -0.2529
14671TIP3    H265505   6.891   2.576  11.993  1.0915 -0.6783  1.6005
14672TIP3   OH265506   3.521   6.687  15.964 -0.5613 -0.2055 -0.3720
14672TIP3    H165507   3.567   6.604  15.976 -2.1067 -0.9747  0.3599
14672TIP3    H265508   3.583   6.753  15.994 -0.2181 -1.2752  1.3225
14673TIP3   OH265509   2.981   0.987  14.579 -0.2052 -0.2923  0.0321
14673TIP3    H165510   2.982   1.073  14.537 -1.1008 -0.4729 -0.3853
14673TIP3    H265511   3.031   0.931  14.520  0.3658 -0.0677  0.2959
14674TIP3   OH265512   1.023   2.559  16.966 -0.1180  0.5889 -0.5458
14674TIP3    H165513   0.988   2.637  17.009  2.2067  0.9026  0.8545
14674TIP3    H265514   1.043   2.499  17.038  0.3982 -0.3235 -1.4396
14675TIP3   OH265515   4.699   0.468  13.463  0.3981 -0.0019 -0.0694
14675TIP3    H165516   4.653   0.389  13.435  0.5942 -0.6878  1.5092
14675TIP3    H265517   4.750   0.440  13.539  0.1825  1.7331  0.7264
14676TIP3   OH265518   5.928   3.072   2.302  0.3632  0.3261 -0.3255
14676TIP3    H165519   5.987   2.997   2.288  0.9446  1.1928 -2.7832
14676TIP3    H265520   5.887   3.086   2.217 -1.2663  1.5493  0.6445
14677TIP3   OH265521   2.260   2.894  16.986 -0.2675  0.2412  0.4052
14677TIP3    H165522   2.183   2.838  16.999  0.8875 -1.3870  0.3908
14677TIP3    H265523   2.285   2.880  16.894  1.0363 -0.5724  0.8614
14678TIP3   OH265524   3.166   6.330   3.559  0.1847  0.1704  0.0250
14678TIP3    H165525   3.120   6.336   3.643  1.3315 -0.5157  0.7101
14678TIP3    H265526   3.213   6.413   3.553  0.0451  0.2507  0.0268
14679TIP3   OH265527   3.632   6.728  12.676 -0.6913 -0.0604 -0.3783
14679TIP3    H165528   3.707   6.720  12.736 -1.2738  0.5871  0.4394
14679TIP3    H265529   3.639   6.816  12.639 -0.6471 -0.2594 -0.8548
14680TIP3   OH265530   5.140   2.750   3.214 -0.2888  0.7758  0.1698
14680TIP3    H165531   5.123   2.720   3.303  0.7981 -0.0944  0.0884
14680TIP3    H265532   5.208   2.692   3.181 -0.7793  0.9998 -1.2854
14681TIP3   OH265533   3.773   0.172  13.353 -0.4299 -0.1387 -0.1134
14681TIP3    H165534   3.812   0.182  13.440  1.1723 -0.5037 -0.7678
14681TIP3    H265535   3.732   0.086  13.355  0.6728 -0.6741 -0.1084
14682TIP3   OH265536   0.995   0.573   0.741  0.5810  0.5632  0.4240
14682TIP3    H165537   1.010   0.655   0.695 -1.4238  0.6276 -0.1922
14682TIP3    H265538   0.920   0.592   0.798  1.8319 -0.0605  2.3329
14683TIP3   OH265539   0.326   3.124  14.754 -0.5935 -0.6077  0.6890
14683TIP3    H165540   0.251   3.148  14.809 -1.1250 -2.8154  0.9893
14683TIP3    H265541   0.292   3.057  14.694  0.9538 -1.1199  0.3493
14684TIP3   OH265542   3.184   5.253   2.854  0.1410 -0.3074  0.7449
14684TIP3    H165543   3.277   5.252   2.830  0.0155 -0.6530  0.2582
14684TIP3    H265544   3.149   5.171   2.818 -1.1546  1.5176 -2.4131
14685TIP3   OH265545   0.797   1.030   3.497 -0.3630 -0.3017 -0.2033
14685TIP3    H165546   0.814   0.964   3.565 -0.5333 -0.0794  0.0591
14685TIP3    H265547   0.779   1.110   3.546 -1.0786 -0.2768 -0.4951
14686TIP3   OH265548   1.954   4.312  12.085 -0.6998  0.1476  0.2922
14686TIP3    H165549   1.885   4.368  12.048 -1.5154 -0.9945  0.0617
14686TIP3    H265550   1.933   4.224  12.054  1.7815  0.0025 -1.1270
14687TIP3   OH265551   1.066   6.354  10.732  0.4338  0.0034 -0.4718
14687TIP3    H165552   1.058   6.266  10.695  1.8775 -0.2920 -0.1406
14687TIP3    H265553   0.981   6.372  10.771 -0.3495 -0.6355 -1.8702
14688TIP3   OH265554   1.250   3.908  16.428 -0.3235 -0.3134  0.2954
14688TIP3    H165555   1.284   3.848  16.495 -3.1560  0.6724  2.7639
14688TIP3    H265556   1.296   3.990  16.444 -1.1958  0.0004  1.2712
14689TIP3   OH265557   6.751   3.428   0.342  0.2063 -0.1949 -0.1514
14689TIP3    H165558   6.803   3.348   0.340 -1.2410 -1.1451 -1.2584
14689TIP3    H265559   6.781   3.478   0.267 -0.1874 -0.5708 -0.5671
14690TIP3   OH265560   5.410   3.702  13.922 -0.0280  0.2475  0.2019
14690TIP3    H165561   5.327   3.749  13.911 -0.7594 -1.1784 -0.4425
14690TIP3    H265562   5.388   3.610  13.905  1.2910 -0.4051  1.8813
14691TIP3   OH265563   5.904   4.911  14.743 -0.4686  0.0193  0.2072
14691TIP3    H165564   5.861   4.836  14.703  0.3329  0.6191 -1.8104
14691TIP3    H265565   5.960   4.873  14.811 -1.0407 -1.0962  0.0662
14692TIP3   OH265566   4.817   5.026  13.276  0.4455  0.2620  0.2988
14692TIP3    H165567   4.869   4.960  13.230 -0.6464  0.2961 -1.0324
14692TIP3    H265568   4.752   4.976  13.325 -0.0620  0.3143 -0.3092
14693TIP3   OH265569   4.067   3.436  12.441  0.3479  0.7522 -0.5582
14693TIP3    H165570   4.084   3.479  12.524 -1.7376 -0.8722  0.7802
14693TIP3    H265571   3.971   3.435  12.434  0.3538 -2.3629 -1.1767
14694TIP3   OH265572   5.810   0.463  15.904 -0.1585 -0.5385  0.2538
14694TIP3    H165573   5.729   0.476  15.954  0.0411  2.0548  0.0017
14694TIP3    H265574   5.871   0.527  15.940  0.5435  0.2070 -2.1211
14695TIP3   OH265575   2.304   4.858   1.026 -0.2082  0.1734  0.4192
14695TIP3    H165576   2.311   4.952   1.042  0.4262  0.2155 -0.1156
14695TIP3    H265577   2.381   4.820   1.068  0.8256  0.1554 -1.4472
14696TIP3   OH265578   2.897   1.494   0.693 -0.1527  0.3409  0.4078
14696TIP3    H165579   2.972   1.456   0.739 -1.4525 -1.5958  0.9956
14696TIP3    H265580   2.934   1.531   0.612  1.6445  0.8207  1.4169
14697TIP3   OH265581   4.815   1.762  10.443  0.3044  0.0739 -0.0418
14697TIP3    H165582   4.807   1.667  10.442 -3.7201  0.3488 -1.1285
14697TIP3    H265583   4.774   1.789  10.525  0.9345  0.9072  0.0047
14698TIP3   OH265584   5.716   4.188   1.119 -0.1447  0.8051 -0.3502
14698TIP3    H165585   5.798   4.215   1.161 -0.6269  1.5090  0.1710
14698TIP3    H265586   5.660   4.162   1.192  0.8614 -3.3227 -0.9380
14699TIP3   OH265587   5.875   4.465  10.450 -0.3798  0.0165  0.1994
14699TIP3    H165588   5.954   4.430  10.407 -0.7684  0.4033 -0.8389
14699TIP3    H265589   5.872   4.419  10.534  1.3003  0.4566  0.5284
14700TIP3   OH265590   4.608   5.817   2.982  0.1040  0.0666 -0.2534
14700TIP3    H165591   4.651   5.887   3.032  1.2362  0.1491 -1.3334
14700TIP3    H265592   4.558   5.863   2.915  0.6545 -0.1524 -0.8139
14701TIP3   OH265593   3.266   3.473   3.482  0.4824 -0.0859  0.3414
14701TIP3    H165594   3.213   3.412   3.432 -0.3500 -0.8221  2.0762
14701TIP3    H265595   3.210   3.550   3.493  1.7511  1.2888 -2.3679
14702TIP3   OH265596   0.577   6.816   0.705 -0.4843 -0.6564 -0.5941
14702TIP3    H165597   0.599   6.901   0.743  0.7244 -1.2217 -0.0019
14702TIP3    H265598   0.639   6.755   0.745 -2.7069 -2.1913  0.6235
14703TIP3   OH265599   4.527   4.535   1.136  0.2169  0.1612 -0.1538
14703TIP3    H165600   4.458   4.587   1.177 -0.3440 -0.2856 -0.5225
14703TIP3    H265601   4.605   4.553   1.188  0.4803  2.8029 -1.3498
14704TIP3   OH265602   1.230   1.096   6.742  0.0532  0.1196  0.8720
14704TIP3    H165603   1.279   1.014   6.754  0.4900  0.6424  2.8013
14704TIP3    H265604   1.294   1.156   6.704 -0.4073 -0.5534 -1.0408
14705TIP3   OH265605   4.585   6.800   2.470 -0.0764 -0.1120 -0.3031
14705TIP3    H165606   4.576   6.871   2.407  1.0273  0.5195  0.2398
14705TIP3    H265607   4.522   6.821   2.539  1.8435  1.5993  0.9956
14706TIP3   OH265608   5.541   5.122  16.762  0.3494  0.3232  0.3300
14706TIP3    H165609   5.559   5.207  16.803  0.2441  0.7098 -0.4077
14706TIP3    H265610   5.612   5.110  16.699 -1.2911  1.3198 -1.7699
14707TIP3   OH265611   0.080   3.894  13.780 -0.4926  0.2313  0.1465
14707TIP3    H165612   0.075   3.928  13.869  1.7202 -1.6212  1.0515
14707TIP3    H265613   0.062   3.800  13.789  0.8587 -0.1808 -1.1912
14708TIP3   OH265614   6.635   4.551   4.508  0.5471  0.0117  0.1714
14708TIP3    H165615   6.570   4.621   4.515  0.5179  0.1739 -1.5225
14708TIP3    H265616   6.591   4.474   4.546 -0.9178 -0.0575 -1.5957
14709TIP3   OH265617   0.744   3.301   0.187 -0.0124 -0.0632 -0.0216
14709TIP3    H165618   0.783   3.217   0.161 -1.7400 -0.4031 -1.6199
14709TIP3    H265619   0.668   3.277   0.241 -0.2910  0.4749 -0.1666
14710TIP3   OH265620   5.932   0.940   5.399 -0.4500  0.1542  0.6379
14710TIP3    H165621   5.956   0.848   5.414 -0.5972  0.3387  2.0040
14710TIP3    H265622   6.011   0.980   5.365  0.0488 -0.1448  1.4356
14711TIP3   OH265623   3.481   1.637  12.540 -0.4266  0.0836  0.1431
14711TIP3    H165624   3.471   1.562  12.598  1.4518 -0.5704 -0.3114
14711TIP3    H265625   3.455   1.604  12.454 -0.0471  0.0774  0.0287
14712TIP3   OH265626   4.639   5.988   0.097  0.5765  0.4714 -0.2263
14712TIP3    H165627   4.636   6.013   0.005 -1.4905  0.1590 -0.2598
14712TIP3    H265628   4.556   6.019   0.134  1.4374  0.7207  1.5639
14713TIP3   OH265629   4.583   6.799   6.454  0.1212 -0.1278  0.3940
14713TIP3    H165630   4.518   6.764   6.515 -0.1490 -1.5782 -0.6832
14713TIP3    H265631   4.558   6.762   6.369  1.0884  1.0360 -0.4116
14714TIP3   OH265632   5.833   0.840  11.438  0.1021 -0.7905  0.3333
14714TIP3    H165633   5.838   0.849  11.533  1.9602 -2.9853  0.4818
14714TIP3    H265634   5.923   0.845  11.408 -0.3820 -1.0139 -1.2248
14715TIP3   OH265635   0.377   2.640  14.313  0.9107 -0.1791  0.1236
14715TIP3    H165636   0.358   2.615  14.403 -0.9425  0.4443 -0.0710
14715TIP3    H265637   0.455   2.590  14.290  0.5521 -1.4455  1.5927
14716TIP3   OH265638   3.657   5.551  13.567  0.0634 -0.0290  0.1661
14716TIP3    H165639   3.719   5.478  13.559 -1.2333 -1.1364  0.0088
14716TIP3    H265640   3.703   5.617  13.619  1.5506 -0.6343 -0.3762
14717TIP3   OH265641   1.637   4.179   0.228  0.0937 -0.3812 -0.1426
14717TIP3    H165642   1.573   4.203   0.295  0.7766 -2.6113  1.3944
14717TIP3    H265643   1.713   4.233   0.248 -0.1354 -0.1559  0.1313
14718TIP3   OH265644   4.048   4.447   0.106  0.3337 -0.3252 -0.4166
14718TIP3    H165645   4.052   4.414   0.016  0.6526 -0.3688 -0.3889
14718TIP3    H265646   4.138   4.473   0.125 -0.3519  3.0648 -1.3872
14719TIP3   OH265647   4.937   1.694   2.894  0.7572  0.2408 -0.1945
14719TIP3    H165648   4.917   1.683   2.987 -0.2073  1.2213 -0.2687
14719TIP3    H265649   4.985   1.777   2.890 -1.5880  1.6150 -0.8629
14720TIP3   OH265650   0.807   1.536   4.039  0.1395 -0.0992  0.8185
14720TIP3    H165651   0.837   1.451   4.070 -1.1657 -1.0065 -0.3561
14720TIP3    H265652   0.850   1.548   3.954 -0.2030  0.0967  0.6687
14721TIP3   OH265653   6.558   2.753  14.945  0.3118  0.1700  0.3521
14721TIP3    H165654   6.651   2.750  14.965  0.0050 -0.6701  1.7057
14721TIP3    H265655   6.553   2.795  14.859  1.8773  0.8738  0.6016
14722TIP3   OH265656   4.131   0.168  11.796 -0.2293 -0.8878  0.0054
14722TIP3    H165657   4.083   0.126  11.724  0.4122 -0.4224 -0.7052
14722TIP3    H265658   4.214   0.120  11.800  0.9713  0.9830 -1.5376
14723TIP3   OH265659   3.462   4.387   0.376  0.8122  0.0765 -0.0654
14723TIP3    H165660   3.441   4.433   0.457 -0.5517 -1.6235  0.6049
14723TIP3    H265661   3.427   4.442   0.306 -0.8573  0.0400  0.7214
14724TIP3   OH265662   0.888   0.940   0.272 -0.1043 -0.8164  0.4565
14724TIP3    H165663   0.812   0.986   0.306 -0.7736  0.6685 -2.8488
14724TIP3    H265664   0.854   0.854   0.247 -0.5832 -0.3896 -0.3947
14725TIP3   OH265665   0.576   4.866   1.018  0.4173 -0.2198 -0.0005
14725TIP3    H165666   0.525   4.904   1.089  0.3709 -2.8178  1.4299
14725TIP3    H265667   0.641   4.812   1.062 -0.0857 -2.4815 -1.9123
14726TIP3   OH265668   4.133   1.556   4.645  0.3665  0.3501  0.3427
14726TIP3    H165669   4.140   1.483   4.582  1.1563 -1.0990  2.0453
14726TIP3    H265670   4.040   1.561   4.666  0.3988 -0.6956  0.7804
14727TIP3   OH265671   1.452   1.602   3.877 -0.3368  0.2823 -0.2423
14727TIP3    H165672   1.454   1.694   3.904 -1.6998  0.9759 -2.3932
14727TIP3    H265673   1.540   1.569   3.897  0.5880  2.4204 -0.7010
14728TIP3   OH265674   0.219   1.996  14.085 -0.4828  0.0881 -0.1183
14728TIP3    H165675   0.167   2.073  14.061 -2.0811 -1.1381 -0.6931
14728TIP3    H265676   0.252   1.962  14.002 -1.2405 -0.8485 -0.0486
14729TIP3   OH265677   3.755   1.297   1.589  0.0713  0.0265  0.3255
14729TIP3    H165678   3.721   1.246   1.662 -1.6608  0.6166 -0.0546
14729TIP3    H265679   3.838   1.255   1.568  0.6488 -0.0777  2.6873
14730TIP3   OH265680   1.262   5.273   5.754  0.0628 -0.4071  0.2339
14730TIP3    H165681   1.239   5.214   5.826  0.1757  0.3868  0.9323
14730TIP3    H265682   1.198   5.343   5.759 -0.1045 -0.4993 -0.6269
14731TIP3   OH265683   3.896   5.347  16.616 -0.7475 -0.4041 -0.1441
14731TIP3    H165684   3.970   5.369  16.673  0.4223 -0.1737 -1.7039
14731TIP3    H265685   3.818   5.366  16.668  0.2735  1.7946  0.6278
14732TIP3   OH265686   4.955   1.892  16.931 -0.0642  0.2013 -0.1643
14732TIP3    H165687   5.016   1.939  16.875 -1.1282  1.8851  0.0479
14732TIP3    H265688   4.933   1.813  16.881  0.5772  0.6584 -1.1992
14733TIP3   OH265689   5.822   3.266  12.889  0.4815  0.1190 -0.1965
14733TIP3    H165690   5.858   3.190  12.935 -0.2671  0.7828  1.5439
14733TIP3    H265691   5.880   3.338  12.913  0.3855  0.3767 -0.7286
14734TIP3   OH265692   6.664   1.271   6.610 -0.0695  0.2725  0.3125
14734TIP3    H165693   6.748   1.231   6.633  0.3705  1.3630  0.6684
14734TIP3    H265694   6.618   1.278   6.694  0.1830  1.2146  0.3849
14735TIP3   OH265695   4.384   3.988  11.316  0.0954  0.0949 -0.2854
14735TIP3    H165696   4.451   3.989  11.248 -0.3001  1.2377 -0.6713
14735TIP3    H265697   4.350   3.899  11.316 -0.2440  0.2175 -1.9241
14736TIP3   OH265698   6.489   3.366   5.107 -0.2720 -0.5620 -0.4569
14736TIP3    H165699   6.436   3.399   5.179 -0.0896 -0.2985 -0.4407
14736TIP3    H265700   6.426   3.339   5.040 -0.4675 -1.4876  0.0873
14737TIP3   OH265701   5.113   1.964   0.532 -0.4985 -0.5177 -0.4137
14737TIP3    H165702   5.050   1.899   0.565 -0.0359 -1.1669 -0.8034
14737TIP3    H265703   5.063   2.046   0.529 -0.9226 -0.7292  0.6233
14738TIP3   OH265704   4.434   3.038  11.522  0.0375 -0.1216  0.0586
14738TIP3    H165705   4.502   3.105  11.534 -1.7423  1.4720  1.5826
14738TIP3    H265706   4.363   3.084  11.479 -0.3568 -1.6147 -0.9119
14739TIP3   OH265707   1.341   3.816   2.401  0.2746 -0.0614  0.0558
14739TIP3    H165708   1.287   3.844   2.328  0.8150 -1.2913 -0.8307
14739TIP3    H265709   1.397   3.747   2.365  2.3309  1.0784  0.9705
14740TIP3   OH265710   5.002   5.411   6.746  0.4020  0.3621 -0.0276
14740TIP3    H165711   4.931   5.451   6.696  0.2518 -1.1677 -1.0735
14740TIP3    H265712   5.080   5.423   6.691  0.5542  0.1765  0.1470
14741TIP3   OH265713   0.950   4.361  13.004 -0.0734 -0.1797 -0.1694
14741TIP3    H165714   0.909   4.376  12.919 -2.8727 -0.9533  1.0086
14741TIP3    H265715   0.937   4.268  13.021  0.2408  0.0186  1.2225
14742TIP3   OH265716   0.088   3.140   2.137 -0.1810 -0.2668 -0.1693
14742TIP3    H165717   0.153   3.079   2.171  0.3164 -0.2168 -1.0181
14742TIP3    H265718   0.053   3.096   2.060 -2.2296 -0.9606  1.1122
14743TIP3   OH265719   4.170   2.484  11.108  0.0740  0.4907 -0.0104
14743TIP3    H165720   4.264   2.494  11.128 -0.2316  2.4776  0.5819
14743TIP3    H265721   4.126   2.522  11.184 -1.1908  1.3840 -1.1718
14744TIP3   OH265722   1.741   5.045  15.354  0.4610 -0.8928  0.5590
14744TIP3    H165723   1.666   5.078  15.304  0.2580 -0.0448  1.4174
14744TIP3    H265724   1.803   5.016  15.287 -0.9438 -2.3516 -0.1612
14745TIP3   OH265725   0.791   0.155   2.135 -0.1216  0.7753  0.4785
14745TIP3    H165726   0.809   0.127   2.225 -2.2324 -0.1669  0.6379
14745TIP3    H265727   0.860   0.115   2.083 -0.4811 -0.9835  1.3268
14746TIP3   OH265728   5.589   5.735   6.252  0.5270  0.0701 -0.3480
14746TIP3    H165729   5.575   5.820   6.292 -0.8448 -0.1763 -0.2726
14746TIP3    H265730   5.655   5.693   6.306 -0.1296  0.3762  0.7022
14747TIP3   OH265731   6.644   3.467  17.213  0.2088 -0.0555  0.1474
14747TIP3    H165732   6.622   3.560  17.226 -0.5656 -0.3089  0.6475
14747TIP3    H265733   6.562   3.427  17.184  0.3229 -0.7531  0.7771
14748TIP3   OH265734   2.660   5.347   5.826  0.3444  0.0612  0.1949
14748TIP3    H165735   2.588   5.291   5.857  0.7671 -0.2824  0.5611
14748TIP3    H265736   2.661   5.334   5.732 -0.3220  0.3575  0.1424
14749TIP3   OH265737   1.671   5.382  13.466 -0.3133  0.0796 -0.0798
14749TIP3    H165738   1.655   5.403  13.558  0.5053  0.3694 -0.0002
14749TIP3    H265739   1.592   5.411  13.421 -0.0297  1.4810  0.3034
14750TIP3   OH265740   0.050   0.664  15.248 -0.1231 -0.0594 -0.5569
14750TIP3    H165741   0.118   0.729  15.262  1.5990 -1.7864 -0.6518
14750TIP3    H265742   0.095   0.580  15.257 -2.1267 -1.2393 -1.1871
14751TIP3   OH265743   2.268   0.418  15.546  0.3587  0.4894 -0.5264
14751TIP3    H165744   2.335   0.412  15.477  1.0130  3.0463 -0.1699
14751TIP3    H265745   2.204   0.351  15.523  0.2458  1.6743 -3.9934
14752TIP3   OH265746   2.256   4.888   5.525 -0.3077  0.1685  0.1539
14752TIP3    H165747   2.232   4.830   5.453 -0.1569 -0.1617  0.3715
14752TIP3    H265748   2.309   4.834   5.583 -1.6777  0.0081  1.2731
14753TIP3   OH265749   2.625   3.719   4.294  0.4476  0.4512 -0.2786
14753TIP3    H165750   2.560   3.717   4.224  1.2335  1.4614 -1.0695
14753TIP3    H265751   2.706   3.745   4.249  1.9513 -3.0018  0.2324
14754TIP3   OH265752   2.798   2.818   1.632 -0.7136  0.3609  0.3752
14754TIP3    H165753   2.839   2.890   1.585 -0.6599  0.2957  0.3241
14754TIP3    H265754   2.705   2.825   1.609 -0.6602  0.2228  0.1253
14755TIP3   OH265755   0.897   6.104  11.375 -0.2779  0.4243  0.3958
14755TIP3    H165756   0.952   6.143  11.443 -0.7182  0.4105  0.7599
14755TIP3    H265757   0.943   6.023  11.351 -1.0073 -0.4663  1.9156
14756TIP3   OH265758   5.002   0.353  13.325 -0.5216  0.5010 -0.3050
14756TIP3    H165759   5.055   0.428  13.351  2.5301 -1.3255 -0.9674
14756TIP3    H265760   5.024   0.285  13.388 -0.8860 -0.7931 -1.5508
14757TIP3   OH265761   1.013   1.687  12.008  0.2550  0.5312 -0.6836
14757TIP3    H165762   1.075   1.692  12.081 -0.1851  1.2539 -0.3458
14757TIP3    H265763   0.945   1.626  12.038  2.5909 -3.0989 -2.4652
14758TIP3   OH265764   5.927   6.068   0.323  0.0462 -0.2327 -0.4715
14758TIP3    H165765   5.985   6.033   0.255 -0.2237 -0.7801 -0.4240
14758TIP3    H265766   5.930   6.002   0.393  1.8116  1.2208  0.8640
14759TIP3   OH265767   2.847   0.025  12.208  0.2191 -0.0768  0.0491
14759TIP3    H165768   2.759   0.059  12.192  1.1822  2.1410 -0.8001
14759TIP3    H265769   2.885   0.015  12.120  0.9605 -0.6216  0.4246
14760TIP3   OH265770   4.886   3.979  12.374  0.2466 -0.3979  0.0334
14760TIP3    H165771   4.835   3.978  12.455 -0.8402  0.5042 -0.6110
14760TIP3    H265772   4.875   3.890  12.338 -1.0768 -0.1535 -0.2034
14761TIP3   OH265773   2.255   0.685   2.556 -0.7850  0.4297 -0.4722
14761TIP3    H165774   2.216   0.722   2.635  0.7507 -0.0952  0.5614
14761TIP3    H265775   2.219   0.738   2.484 -3.2773  0.0356  0.4183
14762TIP3   OH265776   0.233   5.259   4.844 -0.0442 -0.4359  0.0022
14762TIP3    H165777   0.190   5.174   4.829 -1.4339  0.4891 -1.5295
14762TIP3    H265778   0.269   5.253   4.932 -1.1287 -2.2162  0.3499
14763TIP3   OH265779   0.663   6.080   4.811 -0.2421 -0.1839 -0.3748
14763TIP3    H165780   0.670   6.086   4.715  2.4859 -0.4159 -0.2422
14763TIP3    H265781   0.599   6.011   4.826 -3.2731  2.1501 -2.0121
14764TIP3   OH265782   2.343   2.193   4.055 -0.2812 -0.1382 -0.0134
14764TIP3    H165783   2.340   2.285   4.028 -1.5212 -0.0881  0.2588
14764TIP3    H265784   2.407   2.192   4.126  2.1457 -0.0773 -2.1495
14765TIP3   OH265785   6.049   4.246  15.834 -0.2540  0.5102  0.3106
14765TIP3    H165786   6.024   4.171  15.887  0.5325 -0.8728 -1.2312
14765TIP3    H265787   6.127   4.280  15.876 -0.8353  0.7221  1.2418
14766TIP3   OH265788   5.489   2.342   4.299 -0.1149 -0.1817 -0.4373
14766TIP3    H165789   5.513   2.254   4.269  1.6840 -0.1047  0.7471
14766TIP3    H265790   5.508   2.342   4.393  0.6085  1.7213 -0.5636
14767TIP3   OH265791   3.239   6.011   4.773  0.0643  0.4464  0.4062
14767TIP3    H165792   3.269   6.089   4.820  0.0464 -0.3474  1.7908
14767TIP3    H265793   3.319   5.965   4.747  0.0777  0.4763  0.3956
14768TIP3   OH265794   4.989   5.225  12.095  0.1353 -0.3531 -0.1950
14768TIP3    H165795   4.902   5.202  12.063 -0.2638  3.9562 -2.5710
14768TIP3    H265796   4.974   5.300  12.153  2.2696  0.3698 -0.5322
14769TIP3   OH265797   4.626   4.396  14.139  0.1612  0.8198  0.3260
14769TIP3    H165798   4.601   4.462  14.204  0.2969  1.2151 -0.0183
14769TIP3    H265799   4.636   4.446  14.058  1.5865  0.5930  0.3547
14770TIP3   OH265800   0.865   4.644  17.216  0.1498  0.2777  0.0278
14770TIP3    H165801   0.778   4.672  17.186 -0.4635  2.1422  3.3020
14770TIP3    H265802   0.918   4.723  17.212  0.5173  0.1517  2.0909
14771TIP3   OH265803   0.444   4.917  16.532 -0.4292 -0.6338  0.8373
14771TIP3    H165804   0.511   4.871  16.582 -0.3342 -1.3475  0.0701
14771TIP3    H265805   0.448   4.878  16.445 -1.0830  0.0902  0.4741
14772TIP3   OH265806   0.896   2.080   5.348 -0.1706 -0.4821 -0.1236
14772TIP3    H165807   0.972   2.137   5.363 -0.2758 -0.3749  0.0020
14772TIP3    H265808   0.821   2.130   5.381 -0.0669 -1.3331  1.4260
14773TIP3   OH265809   3.166   6.245  11.487 -0.0057  0.5887 -0.0209
14773TIP3    H165810   3.130   6.238  11.398  0.7774 -1.8116 -0.1665
14773TIP3    H265811   3.193   6.156  11.510  0.1927  1.2513  2.4761
14774TIP3   OH265812   4.661   5.306   2.777  0.0318 -0.0931 -0.0975
14774TIP3    H165813   4.625   5.291   2.689  0.2428  0.7048 -0.3220
14774TIP3    H265814   4.745   5.349   2.761 -0.5575  1.3232  0.5288
14775TIP3   OH265815   0.933   0.491   4.174  0.0346 -0.2643 -0.3718
14775TIP3    H165816   0.937   0.430   4.248  0.2915 -1.1987 -1.1536
14775TIP3    H265817   1.012   0.544   4.184  0.1471 -0.4823 -0.0603
14776TIP3   OH265818   3.950   1.344  11.045 -0.2759  0.1488  0.3832
14776TIP3    H165819   3.954   1.339  10.949  1.2309 -0.2456  0.4553
14776TIP3    H265820   3.879   1.406  11.062 -0.8544 -0.1009 -0.9735
14777TIP3   OH265821   4.111   6.559  14.341 -0.1591  0.4212 -0.6777
14777TIP3    H165822   4.123   6.486  14.401  0.0264  1.5053  0.6168
14777TIP3    H265823   4.032   6.603  14.372 -0.0363  1.0230 -1.2038
14778TIP3   OH265824   4.621   0.664  15.718 -0.5121 -0.3575  0.4987
14778TIP3    H165825   4.695   0.720  15.694 -1.1670  0.5130  0.4581
14778TIP3    H265826   4.641   0.580  15.678  0.9086 -0.4051  1.2728
14779TIP3   OH265827   1.275   1.587   6.558  0.1822  0.1478  0.7449
14779TIP3    H165828   1.301   1.544   6.640  0.0372 -0.1884  0.6149
14779TIP3    H265829   1.242   1.516   6.503 -0.4334  0.4833  0.6823
14780TIP3   OH265830   4.846   5.601  14.293  0.2573 -0.7100 -0.3533
14780TIP3    H165831   4.794   5.522  14.300  0.6431 -1.0017 -0.7145
14780TIP3    H265832   4.811   5.660  14.360  1.4993 -2.0539  1.5322
14781TIP3   OH265833   2.669   4.982   1.846 -0.3500 -0.6880  0.8325
14781TIP3    H165834   2.595   5.041   1.841 -0.8223 -1.3988 -0.8888
14781TIP3    H265835   2.714   4.991   1.762  0.5645 -1.4883  1.2133
14782TIP3   OH265836   4.097   1.020   3.765 -0.5110 -0.5140  0.4005
14782TIP3    H165837   4.036   1.012   3.692  0.8545 -0.3649 -0.7703
14782TIP3    H265838   4.118   1.114   3.768  0.6917 -0.7651 -0.0638
14783TIP3   OH265839   5.475   5.615   5.655 -0.0574  0.3807  0.2331
14783TIP3    H165840   5.515   5.544   5.706 -1.5792 -0.2860  0.5299
14783TIP3    H265841   5.440   5.572   5.577 -0.8525  0.8208  0.3398
14784TIP3   OH265842   4.249   0.309   4.052 -0.3067  0.0442 -0.3396
14784TIP3    H165843   4.306   0.313   4.129 -1.7577  0.0579  0.7575
14784TIP3    H265844   4.250   0.398   4.018  0.1937  0.0836 -0.2350
14785TIP3   OH265845   6.685   5.168  13.082 -0.1705  0.0982  0.4719
14785TIP3    H165846   6.685   5.148  12.988 -3.0622 -0.8015  0.6040
14785TIP3    H265847   6.742   5.101  13.121  1.3609  0.7247 -0.6841
14786TIP3   OH265848   6.059   1.002  16.551  0.0552 -0.2248 -0.4995
14786TIP3    H165849   6.029   1.065  16.616  1.2280  0.6994 -0.8444
14786TIP3    H265850   6.018   0.919  16.577 -1.2321  0.5948  0.1418
14787TIP3   OH265851   1.491   0.808   0.894 -0.0046 -0.0290 -0.3389
14787TIP3    H165852   1.496   0.900   0.920 -0.0966 -0.3081  0.6925
14787TIP3    H265853   1.398   0.787   0.896  0.0637 -0.3013 -0.0084
14788TIP3   OH265854   4.125   4.946  16.946  0.4781 -0.0932 -0.1255
14788TIP3    H165855   4.156   5.036  16.955  0.1941  0.0804 -0.8163
14788TIP3    H265856   4.132   4.928  16.852 -2.7258  0.4140 -0.5340
14789TIP3   OH265857   2.127   2.800   4.370 -0.1620  0.4328 -0.3542
14789TIP3    H165858   2.215   2.834   4.354 -0.3474  0.9729 -0.2320
14789TIP3    H265859   2.125   2.716   4.323  1.1904 -0.7097  1.5472
14790TIP3   OH265860   1.145   2.073   3.056 -0.1665 -0.1099  0.0188
14790TIP3    H165861   1.241   2.074   3.058 -0.1569  1.2749  3.3973
14790TIP3    H265862   1.122   1.981   3.063  0.9379 -0.3714  0.3915
14791TIP3   OH265863   0.082   4.665  15.952  0.0389 -0.6754 -0.2970
14791TIP3    H165864   0.105   4.742  16.004 -0.1263 -0.3299 -0.7351
14791TIP3    H265865   0.051   4.701  15.869  2.2224 -1.2788 -1.3944
14792TIP3   OH265866   5.752   4.718  14.330 -0.6605 -0.1865 -0.0830
14792TIP3    H165867   5.751   4.668  14.248  1.4302 -0.4232 -0.0026
14792TIP3    H265868   5.808   4.793  14.312 -0.3405 -0.1356  1.0654
14793TIP3   OH265869   3.616   4.367  12.877  0.4180 -0.4960 -0.6435
14793TIP3    H165870   3.602   4.418  12.798  1.2800 -0.8941 -1.0584
14793TIP3    H265871   3.620   4.276  12.848 -2.0135 -0.8976  0.2096
14794TIP3   OH265872   2.238   3.641   4.743  0.7922  0.3178  0.1268
14794TIP3    H165873   2.229   3.735   4.756  0.9533  0.3118  0.2807
14794TIP3    H265874   2.164   3.602   4.790 -0.8553  0.5299 -2.1895
14795TIP3   OH265875   4.098   5.244   2.740 -0.2248 -0.1723 -0.1091
14795TIP3    H165876   4.074   5.253   2.648 -0.6068  2.5847  0.2024
14795TIP3    H265877   4.181   5.197   2.740 -0.2639 -0.2573 -1.8543
14796TIP3   OH265878   0.873   5.424  16.597 -0.0882 -0.3631 -0.3454
14796TIP3    H165879   0.933   5.465  16.658  1.0562 -1.2079 -0.8827
14796TIP3    H265880   0.803   5.388  16.651  0.6953 -0.7279  0.4309
14797TIP3   OH265881   2.144   1.293   5.324 -0.3537 -0.4288  0.5468
14797TIP3    H165882   2.167   1.219   5.379  0.2001  0.3613  1.3989
14797TIP3    H265883   2.126   1.255   5.238 -1.0231 -1.6465  1.2230
14798TIP3   OH265884   5.772   4.586  15.317 -0.2358 -0.5416  0.1824
14798TIP3    H165885   5.742   4.495  15.311 -1.3635 -0.1415 -0.4858
14798TIP3    H265886   5.823   4.600  15.237  0.7946 -0.8898  0.7786
14799TIP3   OH265887   4.520   6.413  16.066 -0.5886 -0.4878  0.0902
14799TIP3    H165888   4.590   6.424  16.131  0.1672  0.3510 -0.8349
14799TIP3    H265889   4.538   6.480  16.000 -1.6663 -0.9596 -0.7020
14800TIP3   OH265890   0.599   4.900  14.701  0.2583 -0.3242 -0.1875
14800TIP3    H165891   0.654   4.859  14.767  1.3482  2.8810  0.9828
14800TIP3    H265892   0.610   4.846  14.623 -0.6106 -3.8536  2.0232
14801TIP3   OH265893   3.812   6.766   3.335  0.2329  0.1744  0.1365
14801TIP3    H165894   3.864   6.783   3.256  0.4231  1.1243  0.4669
14801TIP3    H265895   3.765   6.847   3.351 -2.2868 -1.0338 -0.8291
14802TIP3   OH265896   1.067   5.127   0.448  0.3440  0.1517  0.4464
14802TIP3    H165897   1.155   5.141   0.412  0.0929  0.8901  0.1027
14802TIP3    H265898   1.018   5.085   0.378  0.2094  0.4409  0.3648
14803TIP3   OH265899   4.184   3.536   1.931  0.0222 -0.0110 -0.1261
14803TIP3    H165900   4.231   3.501   1.856  0.0024  1.0232 -0.6316
14803TIP3    H265901   4.243   3.602   1.968  0.8736 -1.8545  1.9570
14804TIP3   OH265902   2.335   5.651   3.674 -0.4043  0.4113  0.7438
14804TIP3    H165903   2.390   5.707   3.619  0.3542 -1.9168 -0.9669
14804TIP3    H265904   2.322   5.701   3.754  1.3273  2.4731 -0.2152
14805TIP3   OH265905   3.839   3.684  15.029  0.1634 -0.2423  0.1569
14805TIP3    H165906   3.893   3.626  15.082  0.5625 -0.1906 -0.1936
14805TIP3    H265907   3.844   3.647  14.941 -0.2574 -0.1553  0.0940
14806TIP3   OH265908   2.777   2.417  11.641  0.9665  1.4110  0.7107
14806TIP3    H165909   2.764   2.322  11.633  1.5913  1.4278 -0.7152
14806TIP3    H265910   2.688   2.453  11.634  1.0027  1.1109 -2.3192
14807TIP3   OH265911   2.081   1.418   2.215  0.2054 -0.1147 -0.1899
14807TIP3    H165912   2.039   1.408   2.301 -2.1223  2.8160 -0.9223
14807TIP3    H265913   2.025   1.371   2.155 -0.4380  1.3028 -0.7166
14808TIP3   OH265914   0.016   0.034   3.200 -0.0543  0.0525  0.5634
14808TIP3    H165915  -0.068   0.040   3.245 -0.3250  2.6260 -0.2170
14808TIP3    H265916   0.078   0.008   3.268 -1.3120 -0.9610  1.3376
14809TIP3   OH265917   6.399   5.003   4.731  0.3939  0.1237  0.3717
14809TIP3    H165918   6.341   5.053   4.674  1.6987 -0.0089 -1.1059
14809TIP3    H265919   6.346   4.984   4.809 -0.5665  2.5323  0.3299
14810TIP3   OH265920   3.941   1.712   6.303  0.0647 -0.1541 -0.2318
14810TIP3    H165921   3.913   1.639   6.247 -0.8850  1.3761 -1.8070
14810TIP3    H265922   3.977   1.670   6.381  0.9614 -2.3356 -1.7680
14811TIP3   OH265923   3.186   4.086  12.010  0.4024  0.2374  0.5852
14811TIP3    H165924   3.261   4.123  11.963  1.7485 -0.7268  1.9282
14811TIP3    H265925   3.111   4.138  11.981  1.2655 -0.0190 -2.2541
14812TIP3   OH265926   0.526   4.146  13.199 -0.2295 -0.3876  0.3360
14812TIP3    H165927   0.445   4.174  13.239 -0.7731 -1.2966 -0.1009
14812TIP3    H265928   0.593   4.202  13.237 -0.9667 -0.1034  1.2160
14813TIP3   OH265929   4.617   2.224   4.471 -0.4086  0.0416  0.2739
14813TIP3    H165930   4.675   2.171   4.526  0.3213 -0.6631 -1.1288
14813TIP3    H265931   4.630   2.313   4.502 -1.0670 -0.4981  2.1550
14814TIP3   OH265932   1.080   5.124  14.013 -0.7084  0.0020 -0.3545
14814TIP3    H165933   0.998   5.076  14.025 -0.9737  0.7706  0.9873
14814TIP3    H265934   1.131   5.069  13.954 -2.3610 -0.2790 -1.5704
14815TIP3   OH265935   1.732   4.041   3.548 -0.7961  0.3012 -0.1158
14815TIP3    H165936   1.722   4.092   3.628  1.5218  0.0657  0.3658
14815TIP3    H265937   1.652   3.988   3.543 -1.7679  1.6102  1.0677
14816TIP3   OH265938   1.451   5.679  15.070  0.1975  1.1181  0.3733
14816TIP3    H165939   1.384   5.650  15.008 -0.3669  2.5416  0.2972
14816TIP3    H265940   1.531   5.688  15.018  0.3265 -0.0534  0.3558
14817TIP3   OH265941   0.555   1.697   2.423  0.0767  0.3576  0.5100
14817TIP3    H165942   0.603   1.657   2.495 -0.2584  1.2414  1.2295
14817TIP3    H265943   0.571   1.639   2.348  1.0039 -0.1776  1.1164
14818TIP3   OH265944   1.629   6.532   1.411 -0.2066 -0.4649  0.5185
14818TIP3    H165945   1.638   6.491   1.497 -2.5720  0.3060  1.1653
14818TIP3    H265946   1.567   6.477   1.363 -0.6923  0.3977  0.1392
14819TIP3   OH265947   4.757   2.787   5.586 -0.7048  0.2285  0.4112
14819TIP3    H165948   4.769   2.817   5.496  1.3093 -0.0055  0.5644
14819TIP3    H265949   4.710   2.859   5.629 -0.8673  0.7442 -0.6084
14820TIP3   OH265950   5.970   0.366  11.169 -0.4632 -1.0503  0.3243
14820TIP3    H165951   6.041   0.306  11.193 -1.3831 -1.6088  1.7219
14820TIP3    H265952   5.993   0.397  11.082  1.0698 -1.8761  0.4226
14821TIP3   OH265953   5.192   3.833  11.088 -0.2025 -0.2872  0.2194
14821TIP3    H165954   5.192   3.912  11.034  0.6920 -0.8965 -0.6976
14821TIP3    H265955   5.279   3.832  11.129 -0.4580 -0.4308  0.7624
14822TIP3   OH265956   4.185   3.022  13.487 -0.4117 -0.1011  0.5992
14822TIP3    H165957   4.100   3.047  13.523 -0.2612 -0.0867  0.9415
14822TIP3    H265958   4.244   3.019  13.562 -0.1577 -0.3316  0.3949
14823TIP3   OH265959   2.548   6.606  15.913  0.0476 -0.4148 -0.7331
14823TIP3    H165960   2.496   6.578  15.838 -0.9487 -1.0262  0.1710
14823TIP3    H265961   2.617   6.540  15.921 -0.8582 -1.3008 -0.0852
14824TIP3   OH265962   3.684   4.035   1.650  0.1879 -0.1699  0.6707
14824TIP3    H165963   3.623   4.100   1.617 -0.0125 -0.4967  0.4006
14824TIP3    H265964   3.631   3.956   1.664  0.6627 -0.6548 -0.1923
14825TIP3   OH265965   0.822   5.964   1.858 -0.1802 -0.0560  0.0082
14825TIP3    H165966   0.835   6.039   1.916 -0.9902 -0.5720  0.8786
14825TIP3    H265967   0.776   5.899   1.912 -0.7360 -0.6421 -1.1404
14826TIP3   OH265968   1.470   1.123   3.841 -0.5702 -0.2306  0.5177
14826TIP3    H165969   1.422   1.202   3.867 -1.5926 -0.5750 -0.2779
14826TIP3    H265970   1.409   1.076   3.785  0.6867 -0.7067 -0.4724
14827TIP3   OH265971   4.345   1.375   2.320  0.3499  0.1356 -0.3601
14827TIP3    H165972   4.305   1.413   2.242  0.3784 -3.4796 -2.2189
14827TIP3    H265973   4.287   1.401   2.391  0.4726  3.7494 -1.4841
14828TIP3   OH265974   5.054   0.812   4.932  0.7149  0.3403  0.3142
14828TIP3    H165975   5.043   0.836   5.024  0.6472 -0.6495  0.5701
14828TIP3    H265976   5.131   0.861   4.903  1.2683 -0.0354  1.1446
14829TIP3   OH265977   4.826   3.679  16.879 -0.3150 -0.4585  0.1973
14829TIP3    H165978   4.853   3.749  16.820 -1.0486 -0.4771 -0.1543
14829TIP3    H265979   4.854   3.709  16.966 -0.0326 -0.0384 -0.0363
14830TIP3   OH265980   1.116   0.738   5.392  0.5752 -0.2259  0.2677
14830TIP3    H165981   1.191   0.747   5.334  1.0359 -1.1839  0.6943
14830TIP3    H265982   1.044   0.780   5.346  1.1599 -0.1303 -0.5627
14831TIP3   OH265983   5.966   4.221   2.079 -0.2859 -0.0449 -0.3336
14831TIP3    H165984   6.032   4.177   2.132 -0.8649 -0.3810  0.1281
14831TIP3    H265985   6.015   4.271   2.014  0.4629  0.9547  0.9875
14832TIP3   OH265986   1.530   1.470  17.026  0.3361  0.2975  0.6239
14832TIP3    H165987   1.465   1.419  16.978 -0.1204  1.1750  0.2960
14832TIP3    H265988   1.553   1.542  16.966  1.1252  0.3580  0.9902
14833TIP3   OH265989   6.516   3.893   0.132 -0.3815 -0.6174 -0.2662
14833TIP3    H165990   6.595   3.842   0.146 -0.4309 -1.2973 -2.3127
14833TIP3    H265991   6.526   3.969   0.190  1.5259 -0.9516 -0.1251
14834TIP3   OH265992   0.278   6.287   4.644 -0.0146  0.3200  0.5934
14834TIP3    H165993   0.275   6.192   4.647  1.4208  0.2933  0.9868
14834TIP3    H265994   0.238   6.315   4.727  0.2852  0.0634  0.8229
14835TIP3   OH265995   1.622   1.027  15.000  0.3385 -0.1521 -0.0707
14835TIP3    H165996   1.579   1.105  15.032 -0.0747 -0.4178  0.0277
14835TIP3    H265997   1.716   1.043  15.014  0.1474 -0.3599  1.4525
14836TIP3   OH265998   1.013   6.063  15.884  0.2007 -0.3997 -0.0303
14836TIP3    H165999   0.989   6.137  15.939 -0.1441  0.0755 -0.8022
14836TIP3    H266000   1.088   6.023  15.928  0.9662  0.9504 -0.0684
14837TIP3   OH266001   0.149   5.737  16.702  0.4953 -0.1955 -0.0072
14837TIP3    H166002   0.073   5.783  16.666  0.4613 -1.1224 -1.1795
14837TIP3    H266003   0.223   5.767  16.648  0.8996  0.4049  0.8737
14838TIP3   OH266004   1.696   4.631   1.445 -0.1196  0.3150  0.6189
14838TIP3    H166005   1.657   4.583   1.371 -0.3198 -0.9972  1.5624
14838TIP3    H266006   1.786   4.599   1.450 -0.0413  0.5662  0.8183
14839TIP3   OH266007   6.378   1.362  13.255  0.0568 -0.1178 -0.4053
14839TIP3    H166008   6.313   1.395  13.192 -1.0846 -1.4800  0.0327
14839TIP3    H266009   6.328   1.305  13.313  1.4558 -0.3169  0.6194
14840TIP3   OH266010   2.523   6.155  17.244 -0.3159  0.6148  0.5248
14840TIP3    H166011   2.523   6.105  17.326  0.3435  0.2809  0.3246
14840TIP3    H266012   2.483   6.096  17.180  0.1599  0.4656  0.3624
14841TIP3   OH266013   5.299   5.948  14.674  0.3133  0.0078 -0.2436
14841TIP3    H166014   5.225   5.971  14.617 -0.1102 -0.7787 -0.0058
14841TIP3    H266015   5.299   6.016  14.741 -0.8155 -0.5512  0.3327
14842TIP3   OH266016   1.074   5.575   0.054 -0.0151  0.9806  0.3388
14842TIP3    H166017   1.089   5.506   0.118  0.5892  0.9339  0.1513
14842TIP3    H266018   0.983   5.602   0.068  0.0411  0.8050  1.0437
14843TIP3   OH266019   1.855   1.338   5.988 -0.3906  0.8871 -0.3898
14843TIP3    H166020   1.927   1.275   5.979 -0.0646  1.2986 -0.6233
14843TIP3    H266021   1.824   1.352   5.899 -1.3011  0.0754 -0.2050
14844TIP3   OH266022   4.355   6.303  11.703  0.1475  0.3105  0.8825
14844TIP3    H166023   4.339   6.396  11.685 -0.4783 -0.0782 -0.5801
14844TIP3    H266024   4.381   6.302  11.795  0.2893  1.9546  0.8924
14845TIP3   OH266025   0.375   6.391  14.852 -0.3322 -0.2993 -0.2925
14845TIP3    H166026   0.416   6.477  14.840  1.7905 -1.0416  1.3028
14845TIP3    H266027   0.340   6.394  14.941 -0.4781 -0.9947 -0.3249
14846TIP3   OH266028   4.049   0.146   0.536  0.0467  0.7858 -0.0229
14846TIP3    H166029   4.029   0.186   0.451  1.4093  0.0479 -0.7183
14846TIP3    H266030   4.066   0.054   0.515  0.6541  0.6608  1.0015
14847TIP3   OH266031   4.612   4.669  14.755 -0.5645  0.1995 -0.1874
14847TIP3    H166032   4.645   4.653  14.844 -0.6060  1.0226 -0.0269
14847TIP3    H266033   4.579   4.759  14.757  0.2130  0.5195 -1.2717
14848TIP3   OH266034   3.579   4.072  12.349  0.1638  0.7475 -0.0782
14848TIP3    H166035   3.622   4.064  12.264  1.1457  1.2659  0.3530
14848TIP3    H266036   3.531   4.154  12.345 -2.0741 -0.5734 -1.1045
14849TIP3   OH266037   0.166   2.115   5.991  0.1950  0.0371 -0.4631
14849TIP3    H166038   0.081   2.071   6.001  0.3084 -0.6115 -2.2669
14849TIP3    H266039   0.217   2.085   6.066 -0.9020 -0.1537  0.2267
14850TIP3   OH266040   0.768   3.001   4.277  0.4738 -0.4823 -0.2230
14850TIP3    H166041   0.825   2.965   4.345  1.8094  1.6122 -0.1825
14850TIP3    H266042   0.693   3.037   4.324  1.4599  1.0828  0.1931
14851TIP3   OH266043   6.085   3.895  14.853 -0.1700 -0.4406  0.4799
14851TIP3    H166044   6.016   3.873  14.916 -1.5853 -0.6082 -1.0892
14851TIP3    H266045   6.048   3.966  14.801  0.6588 -0.8665 -0.7067
14852TIP3   OH266046   6.110   0.970   4.770 -0.1584 -0.8175  0.1575
14852TIP3    H166047   6.113   1.066   4.774  1.5031 -0.7871 -1.1361
14852TIP3    H266048   6.167   0.948   4.696  0.8872 -2.8802  1.5302
14853TIP3   OH266049   3.844   3.068  12.933  0.1465  0.0154  0.1638
14853TIP3    H166050   3.799   3.080  12.849  0.2654  1.8710  0.3403
14853TIP3    H266051   3.858   3.157  12.966 -0.3871 -0.7003  2.4221
14854TIP3   OH266052   3.795   2.185  13.982 -0.1995  0.1146 -0.7577
14854TIP3    H166053   3.750   2.103  13.962  2.8629 -1.4912 -1.3068
14854TIP3    H266054   3.807   2.184  14.077 -0.1720 -0.0548 -0.7641
14855TIP3   OH266055   0.923   3.325  16.040 -0.3268  0.2037 -0.2547
14855TIP3    H166056   0.926   3.237  16.077 -0.2727  0.1583 -0.3632
14855TIP3    H266057   0.874   3.315  15.958  0.3822  0.1165 -0.6812
14856TIP3   OH266058   3.962   2.664  16.144 -0.3245  0.3319  0.0759
14856TIP3    H166059   4.057   2.656  16.131 -0.2584 -1.1319  1.3239
14856TIP3    H266060   3.924   2.610  16.074 -0.1519 -1.3924  1.2845
14857TIP3   OH266061   0.135   0.744   0.669 -0.1513 -0.1051 -0.6878
14857TIP3    H166062   0.056   0.793   0.692  0.1230  0.0868 -0.1272
14857TIP3    H266063   0.130   0.733   0.574  0.2151  1.7552 -0.9368
14858TIP3   OH266064   4.108   2.912   3.196 -0.0198 -0.1000 -0.1013
14858TIP3    H166065   4.170   2.973   3.155  1.1483 -1.8243 -0.9165
14858TIP3    H266066   4.145   2.895   3.283 -0.2632  0.1839  0.0631
14859TIP3   OH266067   2.311   1.738   4.979  0.9525  0.9317 -0.3503
14859TIP3    H166068   2.338   1.778   5.061 -0.4185  2.9146 -0.8465
14859TIP3    H266069   2.216   1.731   4.985  0.7254  2.0500 -2.1609
14860TIP3   OH266070   5.115   1.013   1.138  0.0168 -0.1520 -0.6074
14860TIP3    H166071   5.188   1.022   1.077  0.4051  0.6250 -0.0325
14860TIP3    H266072   5.157   0.995   1.222 -0.4808 -0.1775 -0.3661
14861TIP3   OH266073   1.245   6.682   3.531  0.6308 -0.3656 -0.2157
14861TIP3    H166074   1.308   6.677   3.602  1.0432  1.0486 -0.4525
14861TIP3    H266075   1.168   6.724   3.570  0.2698 -1.0389 -0.2079
14862TIP3   OH266076   4.296   5.939   5.545  0.0100 -0.1570  0.1266
14862TIP3    H166077   4.269   5.848   5.533  0.5239 -0.4456  1.0567
14862TIP3    H266078   4.392   5.935   5.548  0.0604  0.5136 -0.6232
14863TIP3   OH266079   0.428   0.539  12.000  0.2398 -0.3476 -0.1760
14863TIP3    H166080   0.451   0.447  12.007  0.3872 -0.2737  0.3901
14863TIP3    H266081   0.345   0.540  11.953  0.1603 -0.7781 -0.0442
14864TIP3   OH266082   0.094   0.165  10.755 -0.3709  0.0083  0.3192
14864TIP3    H166083   0.113   0.167  10.661  1.1635 -1.9553  0.5510
14864TIP3    H266084   0.019   0.106  10.763 -0.7082  0.4329  0.2992
14865TIP3   OH266085   4.652   6.542  13.800 -0.1746 -0.3853 -0.2665
14865TIP3    H166086   4.592   6.498  13.740 -1.5025 -0.5781  1.1684
14865TIP3    H266087   4.739   6.524  13.764 -1.0279  2.6077 -4.2204
14866TIP3   OH266088   0.487   1.867   1.813  0.0037 -0.1329 -0.3300
14866TIP3    H166089   0.548   1.796   1.834 -0.2099 -0.7954 -1.8472
14866TIP3    H266090   0.411   1.851   1.869  0.9569  0.3267  1.1066
14867TIP3   OH266091   1.425   3.614  14.384 -0.5464 -0.1625  0.1526
14867TIP3    H166092   1.390   3.528  14.408  0.0454 -0.4724 -0.0881
14867TIP3    H266093   1.492   3.632  14.450 -1.0092  0.3470  0.4970
14868TIP3   OH266094   3.938   1.677  16.413 -0.3655  0.6088 -0.1997
14868TIP3    H166095   3.990   1.605  16.378 -3.2268 -1.1802 -0.9376
14868TIP3    H266096   3.869   1.690  16.349 -1.5204  2.1612  1.3022
14869TIP3   OH266097   5.909   0.917  14.214 -0.4878 -0.4650  0.7813
14869TIP3    H166098   5.879   0.958  14.295  1.7489  0.2735  1.2905
14869TIP3    H266099   5.996   0.883  14.235  0.9028  1.2957 -1.7518
14870TIP3   OH266100   0.689   2.776   0.134  0.8686 -0.5904 -0.1369
14870TIP3    H166101   0.612   2.767   0.078  0.7963  0.4258 -0.2220
14870TIP3    H266102   0.744   2.701   0.113  0.3174 -0.8288 -0.7366
14871TIP3   OH266103   4.275   0.476  15.521  0.4335 -0.0089  0.2887
14871TIP3    H166104   4.329   0.463  15.443 -0.4466 -0.8935 -0.1996
14871TIP3    H266105   4.333   0.455  15.594  1.4717  1.5140 -0.0719
14872TIP3   OH266106   3.445   3.519   1.675 -0.9157 -0.0888 -0.4240
14872TIP3    H166107   3.445   3.610   1.646 -0.2528 -0.0735 -0.3863
14872TIP3    H266108   3.458   3.523   1.769  0.0932 -0.2550 -0.5514
14873TIP3   OH266109   4.210   3.127  11.366  0.4029 -0.5450  0.9601
14873TIP3    H166110   4.140   3.065  11.389 -1.5338  0.9082 -0.7972
14873TIP3    H266111   4.251   3.088  11.289 -0.9172  0.3972 -0.2397
14874TIP3   OH266112   0.648   1.067   0.884 -0.5344 -0.4279  0.0139
14874TIP3    H166113   0.633   1.000   0.818  0.1262 -0.1170 -0.4513
14874TIP3    H266114   0.610   1.147   0.847 -0.5091 -0.3380  0.1787
14875TIP3   OH266115   0.723   0.827  12.515 -0.4010 -0.3672  0.2342
14875TIP3    H166116   0.726   0.875  12.598 -1.0576 -0.7352  0.4772
14875TIP3    H266117   0.673   0.883  12.457  3.4905  1.8088 -1.2066
14876TIP3   OH266118   3.060   6.669   5.117 -0.1376 -0.5075 -0.0031
14876TIP3    H166119   3.142   6.650   5.163 -0.0455  0.6527  0.3432
14876TIP3    H266120   3.025   6.584   5.094 -0.9210 -1.2032  3.4669
14877TIP3   OH266121   2.909   3.397  15.829 -1.0616 -0.4239  0.1586
14877TIP3    H166122   2.843   3.329  15.814 -2.4358  0.9463 -0.1671
14877TIP3    H266123   2.893   3.461  15.760 -0.1822  0.5318  0.8247
14878TIP3   OH266124   6.298   5.193  15.079  0.4360  0.5452 -0.4337
14878TIP3    H166125   6.274   5.285  15.084 -0.9418  0.2418 -1.2747
14878TIP3    H266126   6.312   5.177  14.986  1.0688 -0.0104 -0.2501
14879TIP3   OH266127   3.906   3.142  10.654  0.1068  0.4333 -0.3472
14879TIP3    H166128   3.899   3.051  10.624  0.9746  0.5069 -0.7899
14879TIP3    H266129   3.901   3.194  10.574  0.3731  0.7332 -0.1710
14880TIP3   OH266130   5.781   0.278  10.308  0.7679  0.3542 -0.2328
14880TIP3    H166131   5.750   0.198  10.348  1.4185  1.0748  1.7688
14880TIP3    H266132   5.703   0.318  10.269 -0.7044  1.6373  3.8105
14881TIP3   OH266133   3.643   2.662   5.568 -0.0560 -0.0714 -0.0407
14881TIP3    H166134   3.564   2.701   5.532 -0.5236 -2.2445 -1.4868
14881TIP3    H266135   3.614   2.579   5.606  1.5262 -1.0140 -0.7984
14882TIP3   OH266136   4.684   2.615  13.416 -0.3697 -0.0989 -0.0763
14882TIP3    H166137   4.651   2.604  13.327 -1.6026 -2.6862  0.6801
14882TIP3    H266138   4.612   2.656  13.464  0.0165  0.5880 -0.0795
14883TIP3   OH266139   4.549   1.567   3.065  0.0671 -0.2561  0.6622
14883TIP3    H166140   4.526   1.510   3.139  1.6564  0.7476  1.9784
14883TIP3    H266141   4.541   1.656   3.100  1.8424  0.2016 -0.0499
14884TIP3   OH266142   0.338   1.514   4.432  0.1344  0.2944 -0.2009
14884TIP3    H166143   0.303   1.479   4.350 -2.3475  0.2056  0.8482
14884TIP3    H266144   0.406   1.576   4.405 -0.8145  0.4436 -2.3176
14885TIP3   OH266145   5.636   1.108  13.915 -0.1572 -0.2589 -0.2851
14885TIP3    H166146   5.620   1.172  13.984 -1.3666  0.3133 -1.0682
14885TIP3    H266147   5.731   1.109  13.901  0.0636 -0.2241  1.2051
14886TIP3   OH266148   0.899   0.082  16.366 -0.6090 -0.0567 -0.1199
14886TIP3    H166149   0.831   0.147  16.352 -0.4698  0.0763 -0.1799
14886TIP3    H266150   0.919   0.087  16.460  0.6272  1.2076 -0.4336
14887TIP3   OH266151   4.564   6.697   2.891 -0.0425 -0.3505  0.7156
14887TIP3    H166152   4.541   6.634   2.822  0.1143 -1.1421  1.3839
14887TIP3    H266153   4.486   6.702   2.946 -0.8749  1.7264 -0.5708
14888TIP3   OH266154   6.028   2.436  14.650  0.2710 -0.3131 -0.2980
14888TIP3    H166155   6.083   2.508  14.680 -1.8487  1.3509 -0.3489
14888TIP3    H266156   5.977   2.412  14.727  0.0600 -0.9375 -0.6298
14889TIP3   OH266157   4.670   5.899   5.062  0.4697  0.1503 -0.2855
14889TIP3    H166158   4.708   5.968   5.116 -0.5587 -0.1272  0.8185
14889TIP3    H266159   4.620   5.946   4.995 -0.8207  0.5036  0.8906
14890TIP3   OH266160   0.061   4.551   4.766  0.9799  0.2740  0.6278
14890TIP3    H166161   0.125   4.538   4.696  2.0210  1.4007  1.3471
14890TIP3    H266162   0.043   4.463   4.799  1.6638 -0.1092 -0.0045
14891TIP3   OH266163   6.130   1.186   2.274 -0.8332 -0.3041  0.2322
14891TIP3    H166164   6.224   1.170   2.280 -1.0837 -1.1756  2.2419
14891TIP3    H266165   6.101   1.134   2.199 -0.1256 -2.0955  1.1772
14892TIP3   OH266166   1.352   3.680   1.415 -0.7808 -0.1571 -0.1451
14892TIP3    H166167   1.444   3.671   1.439 -1.5477 -2.6072  2.1649
14892TIP3    H266168   1.321   3.590   1.408 -2.9837  0.6480 -1.0021
14893TIP3   OH266169   6.364   0.321  14.465  0.4642  0.1108 -0.6498
14893TIP3    H166170   6.338   0.368  14.386 -0.6276 -1.7812 -1.4542
14893TIP3    H266171   6.343   0.230  14.447  3.0049 -0.7800  0.6895
14894TIP3   OH266172   3.382   3.526  11.133 -0.3960  0.1314  0.1151
14894TIP3    H166173   3.325   3.602  11.123 -0.1174  0.2386 -0.6982
14894TIP3    H266174   3.430   3.521  11.051  2.0386  1.0508  1.4534
14895TIP3   OH266175   1.731   0.509   3.071 -0.1435  0.2291  0.1309
14895TIP3    H166176   1.762   0.577   3.011 -0.8454 -0.8789 -1.5253
14895TIP3    H266177   1.637   0.528   3.080  0.2555  1.3154  2.1203
14896TIP3   OH266178   0.768   3.578   5.023 -0.2169  0.4889 -0.3913
14896TIP3    H166179   0.738   3.489   5.008 -1.3841  0.5131  1.6269
14896TIP3    H266180   0.815   3.601   4.943  2.7658 -2.9893  0.2606
14897TIP3   OH266181   3.405   5.613   1.132  0.4360  0.0221 -0.4891
14897TIP3    H166182   3.475   5.605   1.068  0.4595 -0.0000 -0.4606
14897TIP3    H266183   3.364   5.697   1.112  0.3179 -0.0751 -0.6566
14898TIP3   OH266184   2.283   4.285  15.120 -0.5774  0.2065 -0.1841
14898TIP3    H166185   2.341   4.227  15.170 -1.6099  0.3992  1.2637
14898TIP3    H266186   2.206   4.231  15.101 -0.0447  0.0346 -1.8656
14899TIP3   OH266187   1.398   1.709  15.777 -0.8716 -1.1964 -0.8425
14899TIP3    H166188   1.334   1.780  15.783 -0.7227 -1.0809 -0.6325
14899TIP3    H266189   1.389   1.662  15.860  0.9867  0.2321  0.2115
14900TIP3   OH266190   4.975   3.755  14.193 -0.3576  0.0419 -0.3617
14900TIP3    H166191   4.912   3.827  14.188 -1.2693 -0.7465 -0.4768
14900TIP3    H266192   4.959   3.704  14.114  1.1594  0.4215 -0.9141
14901TIP3   OH266193   1.933   2.501   0.522  0.0277  0.1355  0.0664
14901TIP3    H166194   1.965   2.571   0.579  3.8748 -1.6065  0.1763
14901TIP3    H266195   1.925   2.425   0.579  2.2953 -1.2015 -1.3549
14902TIP3   OH266196   6.051   2.158  16.798 -0.3190 -0.0517 -0.4821
14902TIP3    H166197   6.014   2.214  16.866  1.3101 -0.5598  0.8488
14902TIP3    H266198   6.105   2.217  16.745 -1.0815  0.2149 -0.9836
14903TIP3   OH266199   1.457   5.433   2.316  0.1719  0.7407 -0.7396
14903TIP3    H166200   1.367   5.443   2.284 -0.1986  2.2737  0.6847
14903TIP3    H266201   1.510   5.482   2.254  0.0340 -0.2207 -1.6216
14904TIP3   OH266202   0.046   2.726  16.351 -0.0085  0.0889  0.0998
14904TIP3    H166203  -0.047   2.702  16.346 -0.2409  0.8769  0.4681
14904TIP3    H266204   0.091   2.662  16.296 -0.7036 -0.6731  0.4091
14905TIP3   OH266205   6.780   1.862  16.530 -0.3816 -0.0979 -0.2752
14905TIP3    H166206   6.787   1.861  16.434 -0.1092  1.2041 -0.2729
14905TIP3    H266207   6.687   1.842  16.546 -0.6187  0.5188 -0.8367
14906TIP3   OH266208   3.857   3.160   2.402  0.3950  0.5373  0.0204
14906TIP3    H166209   3.898   3.237   2.441 -1.5285  0.8622  1.4775
14906TIP3    H266210   3.845   3.100   2.475 -0.5024 -0.0876 -0.6279
14907TIP3   OH266211   5.488   5.725   1.006  0.3658  0.4009 -0.1045
14907TIP3    H166212   5.477   5.669   0.928  2.2638 -0.2766  0.0842
14907TIP3    H266213   5.461   5.812   0.977  3.1837  0.6427 -2.2540
14908TIP3   OH266214   1.421   4.479   4.397  0.2548 -0.0259  0.1183
14908TIP3    H166215   1.412   4.466   4.303 -1.0237  0.8242  0.1096
14908TIP3    H266216   1.336   4.453   4.433  0.7367 -0.3529  1.0410
14909TIP3   OH266217   3.573   2.823   1.523 -0.0154  0.5724 -0.2285
14909TIP3    H166218   3.529   2.806   1.606 -1.0120  2.2435 -0.3676
14909TIP3    H266219   3.640   2.756   1.516 -0.8067 -0.3997  1.2886
14910TIP3   OH266220   3.529   4.335  12.282 -0.5859  0.7758 -0.2312
14910TIP3    H166221   3.595   4.398  12.309 -0.9541  0.7948  0.6420
14910TIP3    H266222   3.446   4.383  12.286 -0.9354  0.0953  0.9806
14911TIP3   OH266223   0.444   1.176  16.358  0.2229  0.2362  0.1260
14911TIP3    H166224   0.463   1.267  16.335 -2.7146  1.4888  2.3709
14911TIP3    H266225   0.380   1.148  16.293 -1.1525  0.8006  1.2063
14912TIP3   OH266226   2.611   4.277  12.434  0.2610  0.1966 -0.0356
14912TIP3    H166227   2.646   4.365  12.449  1.2126  0.3058 -2.5358
14912TIP3    H266228   2.587   4.277  12.341 -0.2831 -1.9936  0.0786
14913TIP3   OH266229   1.089   3.219   2.408 -0.3836  0.5459 -0.3188
14913TIP3    H166230   1.058   3.145   2.460  1.2384  0.3175  0.3590
14913TIP3    H266231   1.029   3.224   2.334 -1.7433 -0.1615  0.7065
14914TIP3   OH266232   3.150   5.072   2.182 -0.1150 -0.6474 -0.2667
14914TIP3    H166233   3.127   5.162   2.203  1.2448 -0.4015  0.2300
14914TIP3    H266234   3.103   5.053   2.101 -0.2559  0.5625 -0.4709
14915TIP3   OH266235   4.385   3.107  12.264  0.2590 -0.0838 -0.0523
14915TIP3    H166236   4.410   3.110  12.356  1.5018 -1.0709 -0.3398
14915TIP3    H266237   4.289   3.099  12.265  0.0443  2.0281  1.0952
14916TIP3   OH266238   2.479   0.711  15.497  0.0236 -0.0338 -0.0170
14916TIP3    H166239   2.459   0.644  15.562 -1.3197 -0.9352 -1.3406
14916TIP3    H266240   2.519   0.782  15.548  0.2394 -1.2760  1.5830
14917TIP3   OH266241   3.739   5.111  13.017  0.5978  0.0273 -0.3298
14917TIP3    H166242   3.657   5.072  12.986  0.5250  1.0463 -1.4624
14917TIP3    H266243   3.730   5.204  12.996  1.2319  0.4764  1.3178
14918TIP3   OH266244   3.041   5.134  11.747  0.3830 -0.2567 -0.0484
14918TIP3    H166245   2.961   5.158  11.794  0.8033  1.8777 -0.3638
14918TIP3    H266246   3.009   5.086  11.670 -0.7166  1.8026 -0.9216
14919TIP3   OH266247   4.409   4.504  16.436 -0.0809  0.6342 -0.0887
14919TIP3    H166248   4.443   4.593  16.426 -1.1698  1.3066  1.9885
14919TIP3    H266249   4.320   4.508  16.400  0.1739  0.1683 -0.7755
14920TIP3   OH266250   1.258   5.231   4.138 -0.7281 -0.8416  0.7045
14920TIP3    H166251   1.280   5.183   4.218  0.5476 -3.6536 -1.2554
14920TIP3    H266252   1.344   5.256   4.102 -1.3070  0.6218  0.2962
14921TIP3   OH266253   1.079   0.330  16.199 -0.5188  0.1001  0.3790
14921TIP3    H166254   1.009   0.393  16.213 -0.8687 -0.6724  2.3581
14921TIP3    H266255   1.155   0.382  16.173 -0.2359  1.6110  3.9654
14922TIP3   OH266256   3.096   0.927   5.135  0.5089  0.0393 -0.0882
14922TIP3    H166257   3.147   0.997   5.175 -1.1159  1.0986  0.1405
14922TIP3    H266258   3.014   0.968   5.108 -0.2861 -1.6639 -0.3668
14923TIP3   OH266259   1.182   3.879   6.038  0.0998  0.0704  0.3491
14923TIP3    H166260   1.089   3.902   6.032  0.0415 -0.1332  0.4646
14923TIP3    H266261   1.189   3.831   6.121 -0.0534 -1.6295 -0.6056
14924TIP3   OH266262   0.523   0.979   3.812  0.0805 -0.1300 -0.7113
14924TIP3    H166263   0.448   0.992   3.753 -0.1918  0.2846 -0.2725
14924TIP3    H266264   0.599   1.003   3.759 -0.2053  0.7603 -0.7343
14925TIP3   OH266265   3.189   0.316  15.512 -0.1867 -0.2208 -1.0702
14925TIP3    H166266   3.242   0.249  15.555  0.0680 -0.1550 -1.2782
14925TIP3    H266267   3.239   0.397  15.522 -0.1836 -0.1837 -1.3802
14926TIP3   OH266268   0.910   3.308  16.832  0.2158 -0.6568 -0.2296
14926TIP3    H166269   0.998   3.309  16.793  0.1367 -2.3115 -0.5035
14926TIP3    H266270   0.924   3.281  16.922  0.2364  1.6742  0.5026
14927TIP3   OH266271   5.721   0.348  14.213 -0.2507  0.0054  0.3025
14927TIP3    H166272   5.644   0.336  14.158 -1.1164 -0.5183  1.6175
14927TIP3    H266273   5.782   0.398  14.158 -0.5359 -1.7219 -1.6349
14928TIP3   OH266274   6.252   5.058   5.118  0.1868  0.0437  0.4539
14928TIP3    H166275   6.315   4.990   5.093  0.4913  0.4974 -0.0333
14928TIP3    H266276   6.289   5.098   5.197  0.7287  0.5931 -0.0719
14929TIP3   OH266277   6.670   3.189   4.640 -0.7344  0.1253 -0.1734
14929TIP3    H166278   6.631   3.102   4.642  0.9348 -0.6352  0.7070
14929TIP3    H266279   6.689   3.206   4.548 -0.8458 -0.5488 -0.3177
14930TIP3   OH266280   4.192   1.949  15.498  0.4488 -0.0721 -0.3246
14930TIP3    H166281   4.273   1.907  15.470 -0.3316 -1.7333 -0.1242
14930TIP3    H266282   4.213   1.986  15.585  0.9378 -0.6279 -0.2024
14931TIP3   OH266283   1.764   1.349   2.853  0.0830 -0.1161  0.0064
14931TIP3    H166284   1.682   1.390   2.883 -0.0100 -0.6343  0.4733
14931TIP3    H266285   1.774   1.273   2.910  1.3120  0.3883  0.4727
14932TIP3   OH266286   2.680   1.211  10.463 -0.4159  0.1661  0.3132
14932TIP3    H166287   2.744   1.148  10.497  0.4732  0.4028 -0.8747
14932TIP3    H266288   2.645   1.254  10.541  0.1648 -0.6544  1.0397
14933TIP3   OH266289   1.246   3.811   4.917  0.1461 -0.0003  0.7446
14933TIP3    H166290   1.164   3.853   4.942 -0.0543 -0.2074  0.4416
14933TIP3    H266291   1.233   3.718   4.935 -1.2244 -0.6655 -3.1393
14934TIP3   OH266292   4.386   2.227   4.795 -0.1942 -0.8096 -0.6318
14934TIP3    H166293   4.415   2.232   4.704  2.0504 -0.7784  0.0327
14934TIP3    H266294   4.355   2.315   4.815 -0.2023 -0.6747 -1.2316
14935TIP3   OH266295   6.530   5.326   4.413 -0.4570 -0.0569  0.3148
14935TIP3    H166296   6.606   5.356   4.362 -0.0808 -0.1989  0.7860
14935TIP3    H266297   6.498   5.406   4.455 -1.3176  0.2272 -0.8418
14936TIP3   OH266298   2.353   1.697  13.252 -0.4141  0.6451  0.3453
14936TIP3    H166299   2.432   1.709  13.199 -1.5449  2.1889 -1.0501
14936TIP3    H266300   2.339   1.602  13.253  1.6853  0.3221  0.9791
14937TIP3   OH266301   4.615   5.315  12.794 -0.4219  0.4120  0.2927
14937TIP3    H166302   4.629   5.250  12.862 -0.2520  0.7674  0.6015
14937TIP3    H266303   4.666   5.391  12.823  1.8043 -0.3191 -1.5193
14938TIP3   OH266304   1.788   5.801   3.093  0.5636  0.4542  0.0909
14938TIP3    H166305   1.809   5.734   3.159  0.7284  1.4391  1.0637
14938TIP3    H266306   1.699   5.829   3.116  1.0377  1.5861  0.5958
14939TIP3   OH266307   0.037   6.086  14.983 -0.2161  0.7855 -0.0847
14939TIP3    H166308   0.067   5.996  14.967  0.1152  0.4756  2.0857
14939TIP3    H266309  -0.044   6.094  14.934  0.8176 -0.0108 -1.9938
14940TIP3   OH266310   4.578   4.340  15.610 -0.0419 -0.5647  0.8602
14940TIP3    H166311   4.546   4.395  15.538 -0.7319 -1.3347  0.5709
14940TIP3    H266312   4.516   4.355  15.681 -1.4478 -2.5289  0.0961
14941TIP3   OH266313   1.414   5.714  12.165  0.1489  0.2353  0.1088
14941TIP3    H166314   1.476   5.654  12.208  1.5701  2.4945  1.3150
14941TIP3    H266315   1.329   5.688  12.200  0.8213 -0.6133  1.1723
14942TIP3   OH266316   3.622   1.231  12.545  0.2621 -0.3555  0.6092
14942TIP3    H166317   3.653   1.320  12.563 -0.5917  0.5444 -2.1164
14942TIP3    H266318   3.542   1.243  12.494  0.3862 -2.6797 -0.2071
14943TIP3   OH266319   3.500   2.641  13.104 -0.2889  0.2310 -0.0914
14943TIP3    H166320   3.546   2.652  13.187 -0.6159  0.4375  0.0589
14943TIP3    H266321   3.471   2.550  13.104  0.5209 -0.0357 -0.3876
14944TIP3   OH266322   0.745   0.484  11.436  0.3457 -0.4415  0.0329
14944TIP3    H166323   0.821   0.470  11.379  0.2957  0.5849 -0.3049
14944TIP3    H266324   0.783   0.512  11.520  0.3115  1.3164 -0.5185
14945TIP3   OH266325   4.369   2.813  14.209 -0.8059 -0.5805  0.3101
14945TIP3    H166326   4.358   2.737  14.152  0.9281  0.1545 -1.0411
14945TIP3    H266327   4.390   2.885  14.150 -2.1654  0.9310  1.5989
14946TIP3   OH266328   3.159   3.214  16.936  0.2118 -0.0703  0.0608
14946TIP3    H166329   3.202   3.266  16.869  0.1271 -0.7232 -0.4990
14946TIP3    H266330   3.179   3.260  17.018  1.1919  0.1421 -0.2920
14947TIP3   OH266331   4.193   4.174   5.479  0.4290 -0.0496 -0.3874
14947TIP3    H166332   4.152   4.199   5.562  0.0245 -2.6397  0.2482
14947TIP3    H266333   4.286   4.191   5.493  0.3508 -0.3662  0.5721
14948TIP3   OH266334   4.135   5.535  11.831  0.0353 -0.5075 -0.5668
14948TIP3    H166335   4.151   5.559  11.922  2.0840 -1.3034 -0.6858
14948TIP3    H266336   4.151   5.616  11.782 -1.1083 -0.0676 -0.2329
14949TIP3   OH266337   0.493   0.201  16.805 -0.6787 -0.1433  0.4440
14949TIP3    H166338   0.485   0.210  16.710  2.5074 -0.9874  0.0353
14949TIP3    H266339   0.462   0.113  16.823  0.2644 -0.5822 -0.0462
14950TIP3   OH266340   5.067   2.290  12.459 -0.4192 -0.5786 -0.1023
14950TIP3    H166341   4.982   2.296  12.415 -1.0700 -3.7705  0.5635
14950TIP3    H266342   5.098   2.201  12.440  1.4784 -0.4016  1.9470
14951TIP3   OH266343   4.545   0.076  14.099 -0.3251  0.2714 -0.6606
14951TIP3    H166344   4.565   0.116  14.183 -2.9577 -0.5021  0.3976
14951TIP3    H266345   4.617   0.014  14.084 -0.4139 -0.4109  1.5856
14952TIP3   OH266346   0.598   0.910  11.924  0.5129  0.0145 -0.5986
14952TIP3    H166347   0.515   0.897  11.878 -0.7333  4.0243  0.3387
14952TIP3    H266348   0.586   0.865  12.008  0.1041 -1.1658 -1.2672
14953TIP3   OH266349   1.251   0.282  14.675 -0.3226 -0.4305 -0.4120
14953TIP3    H166350   1.295   0.199  14.657 -0.7342 -0.5856 -0.6967
14953TIP3    H266351   1.304   0.322  14.744 -1.0062 -1.6537  0.8497
14954TIP3   OH266352   4.874   6.018  12.746 -0.0148 -0.1886 -0.0870
14954TIP3    H166353   4.949   6.076  12.727 -2.2138  2.1999 -1.8190
14954TIP3    H266354   4.846   6.043  12.833  1.0045 -0.9006  0.4574
14955TIP3   OH266355   4.311   1.924  14.405 -0.2604  0.1828 -0.0755
14955TIP3    H166356   4.253   1.968  14.467  0.2852 -0.2205  0.7242
14955TIP3    H266357   4.393   1.972  14.409 -0.5456  0.8022 -1.2679
14956TIP3   OH266358   6.166   4.455   5.799  0.0728  0.3160  0.4279
14956TIP3    H166359   6.160   4.360   5.802 -0.4717  0.3265 -0.1195
14956TIP3    H266360   6.080   4.485   5.829  0.1287  0.6244  0.2801
14957TIP3   OH266361   5.988   1.711   0.026 -0.2842 -0.8024  0.1068
14957TIP3    H166362   5.971   1.753  -0.058  0.8527 -0.0329  0.2347
14957TIP3    H266363   5.905   1.718   0.074 -0.3434  0.6477 -0.1703
14958TIP3   OH266364   1.170   5.204  15.826  0.5173 -0.1009  0.1908
14958TIP3    H166365   1.161   5.109  15.829  1.2208 -0.1459  1.3329
14958TIP3    H266366   1.218   5.226  15.906  0.2242  1.2298  0.0133
14959TIP3   OH266367   2.030   4.618   4.320  0.6949  0.4322 -0.0827
14959TIP3    H166368   2.125   4.622   4.308  0.8738  1.8934  1.6086
14959TIP3    H266369   2.002   4.546   4.264  2.8146 -0.1012 -0.5046
14960TIP3   OH266370   3.127   4.768  11.280 -0.0262 -0.1981 -0.3917
14960TIP3    H166371   3.049   4.792  11.330  0.2714 -0.6929  0.3356
14960TIP3    H266372   3.103   4.782  11.189 -1.2484 -1.1088 -0.2252
14961TIP3   OH266373   1.304   1.798   2.967  0.4134  0.9243  0.4810
14961TIP3    H166374   1.208   1.804   2.969  0.2367 -0.5685 -1.2617
14961TIP3    H266375   1.330   1.798   3.059 -1.2932  0.9693  0.9847
14962TIP3   OH266376   1.814   1.692   1.104 -0.2201 -0.2308  0.4053
14962TIP3    H166377   1.722   1.711   1.088  0.1099  1.9479  0.8768
14962TIP3    H266378   1.861   1.766   1.065  1.3676 -1.5710 -0.2785
14963TIP3   OH266379   3.953   5.595   0.951  0.7643  0.3556 -0.0488
14963TIP3    H166380   3.910   5.665   0.902  1.7790  1.5437  0.7108
14963TIP3    H266381   4.042   5.592   0.915  1.2943  0.7499  1.2078
14964TIP3   OH266382   1.653   2.181   4.653  0.2379 -0.1187  0.5562
14964TIP3    H166383   1.712   2.141   4.717  2.7003 -0.3243 -1.7841
14964TIP3    H266384   1.610   2.107   4.610  0.9326 -0.0958 -0.1868
14965TIP3   OH266385   0.493   0.989   0.009  0.4981  0.0220  0.0571
14965TIP3    H166386   0.572   1.017   0.056  0.5114  0.4284 -0.2060
14965TIP3    H266387   0.443   1.069  -0.004  1.2833  0.1704 -2.1015
14966TIP3   OH266388   4.940   4.432  14.283  0.2269  0.0980 -0.0126
14966TIP3    H166389   4.881   4.504  14.262  2.0009  1.4507 -0.4940
14966TIP3    H266390   4.970   4.399  14.198  1.2787  0.3790  0.2342
14967TIP3   OH266391   4.043   3.821   2.001  0.1181 -0.4549  0.0637
14967TIP3    H166392   4.098   3.861   1.934 -0.8421  0.0623 -0.4352
14967TIP3    H266393   3.968   3.785   1.953 -0.4480 -0.3111  0.8170
14968TIP3   OH266394   0.206   6.786  16.894 -0.3000  0.1030 -0.1890
14968TIP3    H166395   0.282   6.727  16.895 -0.8770 -0.6529  1.6491
14968TIP3    H266396   0.232   6.861  16.946 -1.2577 -0.7975  1.6649
14969TIP3   OH266397   5.617   4.276   4.727  0.1314 -0.1989 -0.1186
14969TIP3    H166398   5.692   4.241   4.678 -0.7386 -2.7827  0.3306
14969TIP3    H266399   5.657   4.321   4.802  1.2967 -0.4205 -0.5962
14970TIP3   OH266400   2.536   5.647  16.198  0.3389  0.7273  0.2651
14970TIP3    H166401   2.572   5.692  16.275  0.1057  0.9474  0.2471
14970TIP3    H266402   2.530   5.716  16.131  1.5097  0.3223 -0.2778
14971TIP3   OH266403   0.400   5.810  16.191 -0.2907  0.1286 -0.1381
14971TIP3    H166404   0.324   5.865  16.169 -1.0452 -0.5666  0.7193
14971TIP3    H266405   0.367   5.721  16.188  0.2160 -0.1195  1.3506
14972TIP3   OH266406   2.320   0.075  17.230  0.1278 -0.8127 -0.0550
14972TIP3    H166407   2.263   0.093  17.156 -0.2461  0.3628  0.5076
14972TIP3    H266408   2.403   0.047  17.190 -0.4814 -1.4548 -0.8841
14973TIP3   OH266409   4.703   4.604   2.126  0.2838 -0.3016  0.7271
14973TIP3    H166410   4.764   4.677   2.113 -0.3853  0.3443  1.1360
14973TIP3    H266411   4.720   4.573   2.215  0.4302 -0.5020  0.6269
14974TIP3   OH266412   3.394   2.270   5.876  0.3546 -0.2340  0.0632
14974TIP3    H166413   3.452   2.346   5.880  1.1353 -0.7208 -1.5029
14974TIP3    H266414   3.452   2.195   5.888 -0.5704 -0.5619  2.7950
14975TIP3   OH266415   1.847   6.546   0.548 -0.0450  0.0468  0.1975
14975TIP3    H166416   1.812   6.503   0.470  0.9291  0.5218 -0.5150
14975TIP3    H266417   1.895   6.622   0.514  0.2585  0.3429  1.2720
14976TIP3   OH266418   6.369   3.450  16.365 -0.3380 -0.0536  0.1098
14976TIP3    H166419   6.275   3.434  16.362 -0.2663 -0.3394 -0.8061
14976TIP3    H266420   6.383   3.494  16.449 -1.2381 -0.3055  0.4033
14977TIP3   OH266421   0.550   6.126   4.291  0.0732 -0.0278  1.0846
14977TIP3    H166422   0.498   6.046   4.301 -0.7742  0.3817  0.0409
14977TIP3    H266423   0.488   6.190   4.256  0.3932  1.4936  3.1886
14978TIP3   OH266424   3.537   3.146   0.645  0.1054 -0.5643 -0.2034
14978TIP3    H166425   3.442   3.138   0.636  0.1976 -1.2802 -0.5882
14978TIP3    H266426   3.558   3.095   0.723  0.2001 -0.5531 -0.2213
14979TIP3   OH266427   2.728   2.314  10.971 -0.6612  0.4861 -0.0395
14979TIP3    H166428   2.703   2.355  10.888  0.1249 -1.1851 -1.1362
14979TIP3    H266429   2.819   2.288  10.958 -1.7150 -3.5074 -0.2129
14980TIP3   OH266430   1.767   0.413  12.639  0.4027 -0.1068 -0.1414
14980TIP3    H166431   1.862   0.415  12.649  0.1528  1.8992  2.3647
14980TIP3    H266432   1.749   0.470  12.565  1.1515 -0.4160 -0.5639
14981TIP3   OH266433   5.952   5.425  17.027  0.4166 -0.0589 -0.4014
14981TIP3    H166434   5.956   5.495  17.092 -2.5025  0.2078 -0.4416
14981TIP3    H266435   5.914   5.351  17.074  2.0187 -1.1670 -0.7922
14982TIP3   OH266436   5.379   0.686  14.174  0.7964 -0.9030 -0.0350
14982TIP3    H166437   5.442   0.757  14.158  1.0306 -0.9967  0.4781
14982TIP3    H266438   5.374   0.680  14.269 -0.0177 -0.8726 -0.0786
14983TIP3   OH266439   4.188   5.863   3.075  0.0049  0.1850 -0.0388
14983TIP3    H166440   4.206   5.873   3.169 -0.3695  0.2551  0.0274
14983TIP3    H266441   4.097   5.834   3.071 -0.0816  0.4940 -0.3927
14984TIP3   OH266442   4.724   4.610   4.564 -0.7679  0.2023 -0.2769
14984TIP3    H166443   4.812   4.648   4.561 -0.6230 -0.1711 -0.8989
14984TIP3    H266444   4.701   4.610   4.657 -0.1549  0.4082 -0.1223
14985TIP3   OH266445   2.952   5.226   4.692 -0.1192 -0.4583 -0.5163
14985TIP3    H166446   2.968   5.225   4.597  1.1078 -0.2240 -0.3183
14985TIP3    H266447   3.029   5.270   4.729 -2.0902  2.3973  0.3184
14986TIP3   OH266448   2.765   2.205   3.010 -0.4447  0.2922  0.2519
14986TIP3    H166449   2.729   2.243   2.929 -1.0206 -0.5070  0.1314
14986TIP3    H266450   2.857   2.189   2.989 -0.5058  0.4233 -0.1281
14987TIP3   OH266451   1.477   2.251  15.182 -0.0352 -0.1122 -0.0260
14987TIP3    H166452   1.505   2.223  15.269 -0.3508  0.2209  0.1848
14987TIP3    H266453   1.398   2.304  15.198  0.3150  0.5435 -0.4581
14988TIP3   OH266454   3.977   6.768  16.866 -0.5955 -0.2109  0.1115
14988TIP3    H166455   3.994   6.705  16.796 -2.3201 -0.3525 -0.1877
14988TIP3    H266456   3.979   6.853  16.823  3.5205  0.1878  0.8035
14989TIP3   OH266457   2.102   0.338  16.314 -0.4920  0.4003 -0.1030
14989TIP3    H166458   2.128   0.430  16.311  0.8824  0.0812  1.1576
14989TIP3    H266459   2.111   0.314  16.407 -0.8840 -0.9800 -0.4155
14990TIP3   OH266460   3.349   2.652  13.910 -0.3566  0.2114  0.5299
14990TIP3    H166461   3.436   2.630  13.876  1.0888  2.3587  2.6741
14990TIP3    H266462   3.352   2.625  14.002 -1.5996  1.2497  0.8869
14991TIP3   OH266463   0.774   3.331   5.604  0.6023 -0.0359  0.7648
14991TIP3    H166464   0.862   3.370   5.603  0.2785  0.7428 -2.1786
14991TIP3    H266465   0.719   3.398   5.645  0.9456  0.5739  0.2511
14992TIP3   OH266466   6.069   6.182  16.062 -0.1459  0.4645 -0.7564
14992TIP3    H166467   6.061   6.087  16.070 -4.5150  0.8080  0.2578
14992TIP3    H266468   6.090   6.197  15.970  2.2851 -1.4994 -0.5744
14993TIP3   OH266469   4.194   2.438   0.665 -0.4051  0.4166  0.4544
14993TIP3    H166470   4.170   2.477   0.581 -0.0133 -1.8965 -0.7665
14993TIP3    H266471   4.240   2.507   0.712 -0.2251  1.5958 -1.4235
14994TIP3   OH266472   2.114   0.514   1.166 -0.2300 -0.4534  0.8664
14994TIP3    H166473   2.117   0.554   1.080 -1.0029 -2.4544 -0.1216
14994TIP3    H266474   2.139   0.584   1.226 -0.4228  1.1635 -0.9002
14995TIP3   OH266475   2.292   3.685  15.250 -0.1429  0.0883 -0.6655
14995TIP3    H166476   2.236   3.616  15.216 -0.4772  0.2111 -0.3628
14995TIP3    H266477   2.290   3.753  15.183 -0.8019  0.3296 -0.4007
14996TIP3   OH266478   4.289   0.879   2.494 -0.2620  0.4409 -0.3924
14996TIP3    H166479   4.284   0.920   2.408 -0.1426 -1.8737 -1.5518
14996TIP3    H266480   4.373   0.833   2.494  0.7205  2.1797  1.7957
14997TIP3   OH266481   0.348   3.464  15.749 -0.2126 -0.2148  0.0259
14997TIP3    H166482   0.286   3.418  15.806  0.0553 -0.9930 -0.3025
14997TIP3    H266483   0.434   3.445  15.786 -0.1468  0.5989  0.2921
14998TIP3   OH266484   3.603   1.558   3.777 -0.1285  0.3041  0.1759
14998TIP3    H166485   3.559   1.642   3.790 -0.9775 -0.1661  0.4296
14998TIP3    H266486   3.689   1.580   3.741  0.9366  1.4708  3.2755
14999TIP3   OH266487   4.766   0.281  14.727 -0.2224 -0.3960 -0.1342
14999TIP3    H166488   4.711   0.202  14.719 -0.7962  0.0459 -0.6080
14999TIP3    H266489   4.719   0.348  14.678  1.0370 -0.1632 -1.0587
15000TIP3   OH266490   4.166   0.884   2.933 -0.2421 -0.1463  0.3628
15000TIP3    H166491   4.135   0.949   2.871 -0.4462  0.6134  1.2509
15000TIP3    H266492   4.201   0.814   2.879 -0.0699  0.6759 -0.5989
15001TIP3   OH266493   2.376   5.836  10.647 -1.0033  0.1809  0.5845
15001TIP3    H166494   2.418   5.751  10.638 -0.5740  0.3827  0.6617
15001TIP3    H266495   2.374   5.852  10.741  0.2704  0.9228  0.4923
15002TIP3   OH266496   6.171   6.480  13.240  0.1253  0.1120 -0.0786
15002TIP3    H166497   6.129   6.394  13.244  0.5169 -0.0809 -0.1012
15002TIP3    H266498   6.130   6.530  13.311 -0.3442  0.0150 -0.2768
15003TIP3   OH266499   5.441   4.939  13.125 -0.7833  0.7427 -0.4524
15003TIP3    H166500   5.378   4.870  13.144 -1.2574  1.4634  0.6756
15003TIP3    H266501   5.443   4.992  13.205  0.6333  1.2098 -0.7827
15004TIP3   OH266502   5.505   3.772  11.968 -0.0443  0.0579  0.1260
15004TIP3    H166503   5.445   3.845  11.954 -0.7658 -0.7346 -1.0969
15004TIP3    H266504   5.587   3.801  11.928 -0.4941 -0.0072 -0.8657
15005TIP3   OH266505   6.291   3.715  14.238  0.5279 -0.6294  0.1873
15005TIP3    H166506   6.276   3.670  14.321 -0.5809 -0.5822  0.0165
15005TIP3    H266507   6.269   3.650  14.171 -2.4645  0.5592 -0.0713
15006TIP3   OH266508   6.280   0.518  13.479 -0.2316 -0.5145 -0.2980
15006TIP3    H166509   6.231   0.448  13.436 -1.8036  1.2043 -1.3255
15006TIP3    H266510   6.292   0.585  13.411  0.6772  0.5230  0.8602
15007TIP3   OH266511   3.347   3.777  13.121  0.5603 -0.3194 -0.0627
15007TIP3    H166512   3.388   3.847  13.070 -0.2961  0.3297  0.1241
15007TIP3    H266513   3.309   3.718  13.056  0.2220  0.0463 -0.1974
15008TIP3   OH266514   1.994   6.218   1.546  0.3050 -0.3554  0.3869
15008TIP3    H166515   1.971   6.280   1.477  0.2281  1.1207  1.7216
15008TIP3    H266516   2.078   6.248   1.579  0.8524 -1.6784  0.2404
15009TIP3   OH266517   5.812   0.563   4.349 -0.5930  0.0837 -0.1973
15009TIP3    H166518   5.887   0.543   4.405 -1.2954 -0.4304  0.5658
15009TIP3    H266519   5.737   0.565   4.408 -1.1290  1.0475 -0.8831
15010TIP3   OH266520   5.051   2.193  11.227  0.1750 -0.1196 -0.3169
15010TIP3    H166521   5.036   2.230  11.140 -2.7542  0.2055  0.2919
15010TIP3    H266522   5.000   2.112  11.227  0.6174 -0.4090  0.9269
15011TIP3   OH266523   5.890   2.792  14.455  0.5956 -0.0029 -0.2626
15011TIP3    H166524   5.912   2.885  14.454  0.7550 -0.0283  0.6461
15011TIP3    H266525   5.923   2.761  14.539 -0.6371 -0.6011  0.0080
15012TIP3   OH266526   2.668   5.923   3.245 -0.4959 -0.3156  0.1763
15012TIP3    H166527   2.589   5.958   3.203 -1.9256 -1.2227  2.0120
15012TIP3    H266528   2.731   5.995   3.240 -0.8279 -0.1552 -2.8235
15013TIP3   OH266529   3.370   1.186   6.298  0.3590 -0.2722 -0.3759
15013TIP3    H166530   3.370   1.110   6.240 -1.0166  1.3097 -2.5447
15013TIP3    H266531   3.279   1.195   6.326  0.6844  0.0447  0.5881
15014TIP3   OH266532   0.577   3.902   6.218  0.5427 -0.3070  0.2325
15014TIP3    H166533   0.597   3.830   6.157 -1.5357  1.3958 -2.5735
15014TIP3    H266534   0.505   3.869   6.272  0.2904 -0.7011 -0.3434
15015TIP3   OH266535   0.106   6.014  17.179 -0.0245 -0.3752 -0.7202
15015TIP3    H166536   0.164   6.048  17.247 -0.9195  0.3597 -0.3030
15015TIP3    H266537   0.138   6.052  17.098  1.6667 -2.0478 -0.8666
15016TIP3   OH266538   3.718   2.652  11.294 -0.7289  0.1324 -0.0601
15016TIP3    H166539   3.675   2.733  11.268 -0.5717 -0.6666 -2.8907
15016TIP3    H266540   3.654   2.583  11.274 -0.2622 -0.5884  0.8759
15017TIP3   OH266541   0.404   1.946   0.546 -1.0357 -0.1016  0.1906
15017TIP3    H166542   0.353   1.889   0.605 -0.2782 -0.2151  0.7433
15017TIP3    H266543   0.494   1.916   0.556 -0.9845 -0.5218 -1.5083
15018TIP3   OH266544   1.201   5.829   1.064 -0.1658 -0.1638  0.1863
15018TIP3    H166545   1.293   5.807   1.047 -0.2738 -0.1820 -0.3891
15018TIP3    H266546   1.202   5.875   1.148  0.2248 -1.2136  0.7671
15019TIP3   OH266547   2.423   3.565  13.002  0.1830  0.2195 -0.3751
15019TIP3    H166548   2.393   3.638  12.947  1.2020 -0.1757 -1.4587
15019TIP3    H266549   2.450   3.498  12.940  0.3359 -0.6484  0.6249
15020TIP3   OH266550   3.994   2.948  14.076 -0.2928  0.1086 -0.1762
15020TIP3    H166551   4.037   3.034  14.068 -0.3138  0.2442  1.0100
15020TIP3    H266552   3.966   2.927  13.988  1.4161  0.4456 -0.8309
15021TIP3   OH266553   1.323   2.400  16.483 -0.0077  0.3873 -0.1116
15021TIP3    H166554   1.405   2.399  16.533 -0.3631  0.1369  0.4835
15021TIP3    H266555   1.321   2.485  16.439 -0.1486  1.0122  1.0873
15022TIP3   OH266556   0.451   3.762  13.542 -0.0305  0.1573 -0.5389
15022TIP3    H166557   0.390   3.693  13.517  0.2549 -0.1287 -0.4515
15022TIP3    H266558   0.395   3.831  13.578 -0.4170  0.4535 -1.6755
15023TIP3   OH266559   3.228   5.744  14.154 -0.0219 -0.0288 -0.0374
15023TIP3    H166560   3.217   5.754  14.059 -0.3360 -0.6495 -0.0723
15023TIP3    H266561   3.317   5.774  14.171 -0.9614  2.9426 -0.0955
15024TIP3   OH266562   1.717   4.563   0.489 -0.1203  0.4677 -0.1051
15024TIP3    H166563   1.644   4.613   0.525  0.7598  0.9112  1.1001
15024TIP3    H266564   1.736   4.497   0.556  0.2400  0.0213 -0.6461
15025TIP3   OH266565   5.912   2.303   2.752  0.2312  0.1160  0.6223
15025TIP3    H166566   5.883   2.247   2.823 -0.2513 -0.9195 -0.3842
15025TIP3    H266567   5.910   2.248   2.674  1.6024  0.9789 -0.0648
15026TIP3   OH266568   3.307   2.165   6.179  0.0926 -0.1435  0.4254
15026TIP3    H166569   3.368   2.093   6.197 -1.6141 -1.1683  2.3350
15026TIP3    H266570   3.234   2.123   6.133 -1.2172  0.1906  2.1285
15027TIP3   OH266571   0.991   1.505   1.245  0.3458 -0.1315 -0.0922
15027TIP3    H166572   0.960   1.423   1.283 -0.0892  0.1814  0.2250
15027TIP3    H266573   0.913   1.545   1.207  0.5288  0.2172 -0.1031
15028TIP3   OH266574   2.475   5.346  13.240 -0.3642 -0.4461  0.4443
15028TIP3    H166575   2.416   5.270  13.238 -1.2896  0.2796 -1.3630
15028TIP3    H266576   2.498   5.356  13.332 -2.3710 -1.2960  1.0807
15029TIP3   OH266577   6.477   6.077  15.223 -0.4729  0.3827  0.3016
15029TIP3    H166578   6.388   6.044  15.208 -0.0680 -0.0968 -1.1811
15029TIP3    H266579   6.534   6.005  15.195  0.3990  0.1965  2.4373
15030TIP3   OH266580   5.438   4.327   4.524  0.5252  0.5770 -0.4858
15030TIP3    H166581   5.494   4.298   4.595  0.6439  1.9708  0.0106
15030TIP3    H266582   5.372   4.259   4.515  1.4388 -0.3636 -0.0950
15031TIP3   OH266583   5.378   0.299   3.242 -0.6812 -0.1434  0.1034
15031TIP3    H166584   5.423   0.375   3.204  0.0457 -1.2687 -1.3358
15031TIP3    H266585   5.406   0.225   3.188 -2.1610 -1.2889  0.8707
15032TIP3   OH266586   6.137   5.002  15.724  0.1121  0.6362  0.6413
15032TIP3    H166587   6.178   4.940  15.664  1.1751  0.5451  1.4538
15032TIP3    H266588   6.046   5.007  15.695 -0.2884 -2.2258  1.3327
15033TIP3   OH266589   1.105   1.756  17.226 -0.3052  0.8239  0.1242
15033TIP3    H166590   1.081   1.821  17.160 -1.0004  0.7716  0.3223
15033TIP3    H266591   1.051   1.778  17.302  0.2671  0.6934  0.5739
15034TIP3   OH266592   0.085   4.895  16.380  0.1307  0.0750  0.2691
15034TIP3    H166593   0.146   4.950  16.428  2.4927 -2.1248 -0.1437
15034TIP3    H266594   0.028   4.857  16.448  0.4082  0.6731  0.8356
15035TIP3   OH266595   5.275   4.331   4.848 -0.2144 -0.1106  0.2418
15035TIP3    H166596   5.198   4.309   4.797  1.4445 -0.6901 -2.1023
15035TIP3    H266597   5.322   4.395   4.795 -0.0778  1.7852  2.5709
15036TIP3   OH266598   3.052   2.208   1.556 -0.6721  0.3867 -0.0660
15036TIP3    H166599   3.022   2.128   1.599  0.4095 -0.2002 -0.3733
15036TIP3    H266600   3.126   2.180   1.502 -1.1158  1.3646 -1.2067
15037TIP3   OH266601   4.827   1.980   3.967 -0.7414 -0.4533 -0.0439
15037TIP3    H166602   4.846   2.060   4.015  0.6664 -1.0874  0.5110
15037TIP3    H266603   4.904   1.925   3.982 -1.9944 -2.1862  0.1983
15038TIP3   OH266604   1.492   1.241  15.066 -1.0400  0.0165 -0.5854
15038TIP3    H166605   1.451   1.277  15.145 -1.6785  1.3194 -1.4938
15038TIP3    H266606   1.419   1.220  15.008 -0.5376  0.1536 -1.2791
15039TIP3   OH266607   5.592   3.092  15.185 -0.2539  0.4275  0.2861
15039TIP3    H166608   5.596   3.187  15.176  1.1477  0.4929  1.2661
15039TIP3    H266609   5.573   3.078  15.278 -0.9056 -0.2488  0.0526
15040TIP3   OH266610   2.067   0.904  11.021 -0.7287 -0.8280  0.6713
15040TIP3    H166611   2.071   0.998  11.000  1.2872 -1.4518 -2.0784
15040TIP3    H266612   2.027   0.900  11.108 -4.7102  2.3303 -0.8863
15041TIP3   OH266613   5.985   5.054   0.624  0.0762 -0.3441  0.1681
15041TIP3    H166614   6.007   5.008   0.705 -1.3235 -0.4035  0.5279
15041TIP3    H266615   5.917   5.116   0.650 -1.2612 -1.2059 -1.1863
15042TIP3   OH266616   6.272   5.611   0.742  0.3752 -0.0134  0.6850
15042TIP3    H166617   6.245   5.523   0.768  0.6662 -0.7212 -1.3141
15042TIP3    H266618   6.193   5.651   0.707  1.0066 -0.7594 -1.6892
15043TIP3   OH266619   3.584   3.362  13.749 -0.4150  0.3357 -0.1102
15043TIP3    H166620   3.584   3.446  13.702  1.3137  0.5539  0.2548
15043TIP3    H266621   3.521   3.374  13.819 -2.6915  0.1718 -2.0548
15044TIP3   OH266622   3.460   2.094  13.181  0.0332 -0.0028  0.4677
15044TIP3    H166623   3.541   2.074  13.133 -0.0658 -0.8977  0.6625
15044TIP3    H266624   3.391   2.054  13.130 -0.1126 -0.6427  1.1566
15045TIP3   OH266625   0.858   5.455   1.950  0.6902  0.0891  0.5436
15045TIP3    H166626   0.807   5.529   1.984  0.2606 -0.1719  0.4662
15045TIP3    H266627   0.916   5.494   1.884 -2.3638 -0.2352 -2.4433
15046TIP3   OH266628   0.622   3.630  15.869 -0.4963  0.2933  0.0599
15046TIP3    H166629   0.605   3.678  15.951  0.8122 -2.0723  1.7904
15046TIP3    H266630   0.701   3.671  15.833 -0.4912  0.6986  0.5249
15047TIP3   OH266631   1.131   4.279  15.470 -0.5552 -0.1412  0.1888
15047TIP3    H166632   1.120   4.185  15.478  0.3771 -0.1948  0.8847
15047TIP3    H266633   1.061   4.317  15.523 -1.0611 -0.4299 -0.2644
15048TIP3   OH266634   6.129   5.097   2.646 -0.4555  0.6655  0.7135
15048TIP3    H166635   6.186   5.173   2.629 -0.1113  0.4122  0.7440
15048TIP3    H266636   6.051   5.115   2.593  0.4077  0.1294 -0.7843
15049TIP3   OH266637   3.088   2.651  11.159  0.5073 -0.0261  0.2860
15049TIP3    H166638   3.126   2.589  11.096  0.6443  0.5796 -0.2284
15049TIP3    H266639   3.002   2.614  11.179  0.3693 -0.1068 -0.4357
15050TIP3   OH266640   6.542   2.969  16.124 -0.7347  0.8243 -0.7378
15050TIP3    H166641   6.487   2.891  16.138 -2.0251  1.7093 -0.7442
15050TIP3    H266642   6.482   3.043  16.138  0.7413  1.8344  0.3948
15051TIP3   OH266643   4.206   2.520  16.656 -0.0340  0.1789 -0.0757
15051TIP3    H166644   4.287   2.540  16.704 -0.2489 -0.3524  0.5237
15051TIP3    H266645   4.136   2.548  16.716 -0.2900  1.3338 -0.9046
15052TIP3   OH266646   1.673   5.912   4.615  0.2512  0.2159 -0.2153
15052TIP3    H166647   1.591   5.956   4.639 -0.5711 -1.6039  0.3375
15052TIP3    H266648   1.679   5.924   4.520 -0.0792  1.2857 -0.1171
15053TIP3   OH266649   2.765   2.728  17.099  0.0242 -0.3411 -0.4705
15053TIP3    H166650   2.745   2.637  17.077 -0.0654 -0.6457  0.8085
15053TIP3    H266651   2.685   2.761  17.138  0.1914  0.1551 -0.5489
15054TIP3   OH266652   2.797   4.269   0.365  0.0527  0.0398  0.5582
15054TIP3    H166653   2.831   4.335   0.426  1.8239  0.4972 -0.8866
15054TIP3    H266654   2.874   4.219   0.337 -0.8479 -0.7279 -0.6212
15055TIP3   OH266655   0.728   5.989   5.898 -0.1577 -0.1138  0.4887
15055TIP3    H166656   0.805   5.944   5.863  1.2882  2.2486  0.4932
15055TIP3    H266657   0.763   6.047   5.966 -1.7297  2.0082 -0.4449
15056TIP3   OH266658   4.569   0.815   1.212 -0.0811  0.2146 -0.1220
15056TIP3    H166659   4.588   0.909   1.217 -0.5442  0.3799 -1.4257
15056TIP3    H266660   4.633   0.781   1.149 -1.1736 -0.0049 -1.1292
15057TIP3   OH266661   6.462   3.151  16.611 -0.4514 -0.0405 -0.0489
15057TIP3    H166662   6.419   3.110  16.687 -0.6474 -0.7670 -0.5438
15057TIP3    H266663   6.502   3.077  16.565 -1.3814  0.2393 -1.3202
15058TIP3   OH266664   3.908   3.590  15.388  0.8635 -0.4682  0.4428
15058TIP3    H166665   3.849   3.660  15.359  0.4451 -0.7641  0.5741
15058TIP3    H266666   3.850   3.517  15.409  1.1354 -0.2470  2.0947
15059TIP3   OH266667   0.947   0.346  11.294 -0.3998  0.2908 -0.3648
15059TIP3    H166668   1.010   0.343  11.221  0.8107 -2.8862  0.7180
15059TIP3    H266669   1.002   0.346  11.372 -1.7457 -0.7043  0.5882
15060TIP3   OH266670   3.451   5.257  16.612 -0.2226  0.7974  0.1215
15060TIP3    H166671   3.514   5.251  16.541 -0.8016  1.3508 -0.4441
15060TIP3    H266672   3.482   5.194  16.677  1.6011  1.9202  0.4005
15061TIP3   OH266673   3.418   6.257   4.917  0.3040 -0.5795  0.3464
15061TIP3    H166674   3.345   6.294   4.966 -0.4490 -2.4027  0.6762
15061TIP3    H266675   3.457   6.331   4.871 -2.1850  0.3017 -0.3830
15062TIP3   OH266676   5.455   6.360  16.280  0.2170 -0.5464  0.3626
15062TIP3    H166677   5.525   6.316  16.232  2.4828  2.5139  0.7501
15062TIP3    H266678   5.384   6.369  16.216  1.1167 -1.4388 -0.7846
15063TIP3   OH266679   1.524   4.889   1.784  0.6901  0.0217  0.0686
15063TIP3    H166680   1.597   4.943   1.815  0.5236  0.3119 -0.0416
15063TIP3    H266681   1.527   4.897   1.689  0.2540  0.3742  0.0870
15064TIP3   OH266682   3.604   5.199   5.506  0.4620  0.0200  0.2949
15064TIP3    H166683   3.567   5.154   5.582 -0.5731  0.4117  0.0355
15064TIP3    H266684   3.652   5.132   5.459  0.3577 -0.4269  0.8162
15065TIP3   OH266685   0.239   2.103  16.280  0.6118  0.0668  0.0937
15065TIP3    H166686   0.257   2.011  16.297 -2.0156 -0.3022  1.0038
15065TIP3    H266687   0.179   2.103  16.205  1.5871  1.1086 -0.7134
15066TIP3   OH266688   4.980   1.165  15.564  1.0323  0.3768  0.0431
15066TIP3    H166689   4.960   1.073  15.580 -0.3529  0.7049  0.2953
15066TIP3    H266690   5.073   1.167  15.543  0.8824 -1.2034 -0.8510
15067TIP3   OH266691   1.229   4.297   2.642  0.3604 -0.4792 -0.1235
15067TIP3    H166692   1.172   4.357   2.691  0.6093  0.0256 -0.4505
15067TIP3    H266693   1.170   4.244   2.589  0.1708 -0.2314 -0.1563
15068TIP3   OH266694   2.116   6.226   2.556 -0.1114  0.0839 -0.1933
15068TIP3    H166695   2.099   6.160   2.489  0.2509 -0.3587  0.1479
15068TIP3    H266696   2.196   6.269   2.528 -0.0990  0.0716 -0.1769
15069TIP3   OH266697   1.339   5.086  16.792 -0.3046  0.4008 -0.1110
15069TIP3    H166698   1.412   5.077  16.731  1.3010  0.4603  1.7614
15069TIP3    H266699   1.261   5.072  16.738  0.9754  2.0992 -2.5047
15070TIP3   OH266700   2.124   2.480  11.832 -0.5303 -0.2045  0.1304
15070TIP3    H166701   2.195   2.430  11.791  2.2016  2.8325  0.8865
15070TIP3    H266702   2.083   2.419  11.893 -0.3029 -2.8016 -2.2045
15071TIP3   OH266703   1.282   3.323  14.252 -0.3436 -0.5160  0.3170
15071TIP3    H166704   1.197   3.322  14.209  0.5064 -2.0124 -1.4088
15071TIP3    H266705   1.263   3.344  14.344 -2.3112  1.4893 -0.5162
15072TIP3   OH266706   1.627   1.801  11.255  0.4296  0.2604  0.0521
15072TIP3    H166707   1.647   1.848  11.174 -1.3107 -0.2731 -0.7132
15072TIP3    H266708   1.681   1.722  11.250  1.3402  0.8699  0.0676
15073TIP3   OH266709   5.072   0.778  15.344 -0.2825 -0.0672  0.4153
15073TIP3    H166710   5.026   0.703  15.383 -0.4979 -0.0348  0.2226
15073TIP3    H266711   5.089   0.836  15.418  0.2513 -0.4971  0.6307
15074TIP3   OH266712   2.421   5.918   6.112 -0.0253 -0.3641  0.6228
15074TIP3    H166713   2.494   5.859   6.092  0.3052  0.1008  0.4360
15074TIP3    H266714   2.434   5.940   6.205  0.7777  0.6766  0.2722
15075TIP3   OH266715   6.489   0.455   2.899  0.1087  0.1381  0.3932
15075TIP3    H166716   6.401   0.486   2.922 -0.3905 -1.1300  0.1945
15075TIP3    H266717   6.480   0.361   2.888  1.3530  0.0879 -0.3238
15076TIP3   OH266718   2.166   3.658   1.127 -0.3697  0.2978  0.1042
15076TIP3    H166719   2.145   3.676   1.219 -1.5141 -0.8589  0.0860
15076TIP3    H266720   2.085   3.623   1.090  0.4727 -0.5409 -1.0010
15077TIP3   OH266721   3.630   2.389  13.937  0.0069  0.2509 -0.2811
15077TIP3    H166722   3.575   2.343  14.000 -0.1007  0.0351 -0.5312
15077TIP3    H266723   3.718   2.353  13.952  0.0302  0.3957 -0.0717
15078TIP3   OH266724   6.539   2.116   5.286  0.1971 -0.0862 -0.0152
15078TIP3    H166725   6.463   2.061   5.302  0.7076 -0.7534  0.1220
15078TIP3    H266726   6.561   2.153   5.371  1.4183 -1.7014  0.3840
15079TIP3   OH266727   4.903   3.054  15.351 -0.0557  0.4346  0.1843
15079TIP3    H166728   4.900   3.138  15.304 -0.5358  0.1509 -0.2939
15079TIP3    H266729   4.991   3.050  15.387 -0.2896  1.5207  0.8825
15080TIP3   OH266730   5.224   5.037   4.557 -0.6012 -0.4291  0.6937
15080TIP3    H166731   5.206   5.052   4.464 -1.5411  1.4782  1.1745
15080TIP3    H266732   5.303   5.089   4.574  0.1059 -1.5034  0.7686
15081TIP3   OH266733   0.409   4.266   3.306  0.1888 -0.2707  0.0354
15081TIP3    H166734   0.475   4.328   3.336  0.4266  0.0017 -1.0502
15081TIP3    H266735   0.328   4.316   3.305  0.2075 -0.2391  0.0815
15082TIP3   OH266736   1.823   2.107  11.950  0.1038  0.4298  0.2855
15082TIP3    H166737   1.872   2.105  11.868  1.0388  1.5017  0.8036
15082TIP3    H266738   1.872   2.047  12.007 -0.4535 -0.1905  0.1197
15083TIP3   OH266739   6.793   5.011  11.816  0.2530 -0.2212  0.7707
15083TIP3    H166740   6.826   4.921  11.821 -0.8476 -0.5525  2.4595
15083TIP3    H266741   6.805   5.046  11.905 -1.2745  0.5897  0.6756
15084TIP3   OH266742   0.520   4.901   0.672 -0.2784  0.7208  0.5216
15084TIP3    H166743   0.530   4.929   0.581  0.4385  0.3118  0.4712
15084TIP3    H266744   0.453   4.833   0.670  1.9798 -1.5262 -0.1565
15085TIP3   OH266745   5.007   2.297  16.879  0.4358 -0.3044 -0.1204
15085TIP3    H166746   5.017   2.285  16.785 -0.3712  0.5637 -0.3266
15085TIP3    H266747   5.002   2.209  16.915 -3.4695 -0.6659 -1.3478
15086TIP3   OH266748   0.347   6.717  11.719 -0.5313 -0.2368  0.8000
15086TIP3    H166749   0.274   6.752  11.770 -0.7511  0.5722 -0.0621
15086TIP3    H266750   0.403   6.792  11.702  0.5863 -0.8716  1.5644
15087TIP3   OH266751   3.614   2.503  15.345  0.1640 -0.4526 -0.4706
15087TIP3    H166752   3.643   2.519  15.255 -0.2822 -0.9175 -0.7004
15087TIP3    H266753   3.641   2.413  15.364  2.5484  0.4845  0.7720
15088TIP3   OH266754   1.562   3.753  11.706  0.4673  0.3596 -0.0889
15088TIP3    H166755   1.643   3.799  11.682 -0.3527  1.0103 -1.6751
15088TIP3    H266756   1.590   3.662  11.720  1.7625  0.9168  1.1467
15089TIP3   OH266757   2.281   1.529   5.164 -0.0809  0.1238  0.0963
15089TIP3    H166758   2.243   1.616   5.179  0.3282  0.6147 -1.6892
15089TIP3    H266759   2.243   1.475   5.233 -0.7410  1.5951  0.9177
15090TIP3   OH266760   4.315   6.360   3.316  0.0763 -0.1502  0.4136
15090TIP3    H166761   4.227   6.397   3.309  0.0806 -0.1085  0.5750
15090TIP3    H266762   4.373   6.433   3.294  0.0984  0.0535  1.1406
15091TIP3   OH266763   5.061   2.931  13.436  0.2568  1.0531 -0.6790
15091TIP3    H166764   5.065   2.998  13.504  0.3224  0.5315 -0.1679
15091TIP3    H266765   4.968   2.909  13.428  0.5138 -0.8736  1.2024
15092TIP3   OH266766   0.351   3.228  13.632  0.0118  0.2461  0.2603
15092TIP3    H166767   0.295   3.222  13.709 -1.5985  2.3634 -0.6753
15092TIP3    H266768   0.439   3.236  13.667 -0.7030  1.2046  1.9188
15093TIP3   OH266769   2.453   0.339  15.342 -0.9633  0.3704 -0.0862
15093TIP3    H166770   2.419   0.359  15.256 -0.4246  2.8968  0.2491
15093TIP3    H266771   2.436   0.246  15.354 -0.0771 -0.2735 -3.3449
15094TIP3   OH266772   2.715   5.758   3.840 -0.5282 -0.5474  0.2618
15094TIP3    H166773   2.740   5.817   3.911 -1.2163  0.6883 -0.5065
15094TIP3    H266774   2.695   5.675   3.883 -0.0793 -0.0688  1.4096
15095TIP3   OH266775   5.564   0.665   2.156  0.5947 -0.2254 -0.7552
15095TIP3    H166776   5.654   0.636   2.167 -0.0581 -2.0110  0.0704
15095TIP3    H266777   5.565   0.758   2.180  2.0850 -0.4085 -0.0866
15096TIP3   OH266778   3.832   3.616   1.608  0.5320 -0.3601  0.2195
15096TIP3    H166779   3.813   3.651   1.521 -0.9288 -0.7151  0.3915
15096TIP3    H266780   3.854   3.524   1.593 -2.2556 -1.1085  0.4726
15097TIP3   OH266781   0.531   4.046   1.717  0.2815 -0.7713 -0.4971
15097TIP3    H166782   0.502   3.956   1.732  0.5256 -0.6543  0.7396
15097TIP3    H266783   0.556   4.078   1.804 -0.2961  0.6642 -0.8372
15098TIP3   OH266784   0.922   3.659  13.054  0.1700  0.0140 -0.1115
15098TIP3    H166785   0.855   3.603  13.014 -0.5416  1.2042 -0.6197
15098TIP3    H266786   0.981   3.598  13.097 -1.9983 -0.9897  1.5215
15099TIP3   OH266787   6.112   3.719  13.237 -0.0868 -0.3807  0.5134
15099TIP3    H166788   6.193   3.707  13.187 -0.0921  0.5386  0.2818
15099TIP3    H266789   6.085   3.808  13.217 -0.9376 -0.5480  0.9216
15100TIP3   OH266790   3.142   3.982  16.170 -0.3911  0.5891 -0.4137
15100TIP3    H166791   3.174   3.895  16.146  2.4783  2.0001 -1.9821
15100TIP3    H266792   3.076   4.002  16.104 -2.5096 -1.1485  1.1051
15101TIP3   OH266793   4.014   2.298   3.760  0.7796  0.1121  0.2852
15101TIP3    H166794   4.107   2.303   3.737  0.6205  2.0867 -0.0310
15101TIP3    H266795   3.971   2.268   3.680  1.1191 -0.6552  0.3867
15102TIP3   OH266796   5.731   3.696  13.586  0.1996  0.5253 -0.2562
15102TIP3    H166797   5.738   3.790  13.603  2.0166  0.3449  0.1364
15102TIP3    H266798   5.770   3.684  13.500  2.2616 -0.1732  0.7406
15103TIP3   OH266799   4.972   4.981   3.062  0.6891  0.5695 -0.0211
15103TIP3    H166800   4.988   4.927   3.139 -1.1983  1.6781  1.1860
15103TIP3    H266801   4.887   4.950   3.028  0.5446  1.4339 -0.4724
15104TIP3   OH266802   3.764   0.773   1.886 -0.5212 -0.5012  0.7645
15104TIP3    H166803   3.759   0.816   1.800 -0.1587 -0.2270  0.8795
15104TIP3    H266804   3.780   0.681   1.866 -0.0955 -0.3803  0.5460
15105TIP3   OH266805   2.496   0.071  14.245  0.1151 -0.6781 -0.4244
15105TIP3    H166806   2.532   0.159  14.232  0.6331 -0.7916  0.2026
15105TIP3    H266807   2.456   0.075  14.332 -1.4582 -0.5328 -1.1492
15106TIP3   OH266808   1.063   5.512   2.466 -0.6791 -0.2458  0.0557
15106TIP3    H166809   1.036   5.452   2.536  0.3146 -0.3443  0.3645
15106TIP3    H266810   1.060   5.599   2.507 -0.6327 -0.2450  0.0570
15107TIP3   OH266811   1.628   3.961  15.432 -0.2663 -0.2421 -0.8978
15107TIP3    H166812   1.571   3.942  15.357 -1.9013  1.1802 -0.0573
15107TIP3    H266813   1.574   4.014  15.490  0.7441 -1.8437  1.6067
15108TIP3   OH266814   6.386   0.644  16.478 -0.0164  0.1009  0.6669
15108TIP3    H166815   6.339   0.568  16.443  0.4463  0.6524 -1.1897
15108TIP3    H266816   6.476   0.613  16.489  0.2122  0.4311 -0.2648
15109TIP3   OH266817   3.115   0.862  13.417  0.1847  0.0659 -0.9634
15109TIP3    H166818   3.195   0.844  13.369 -0.3555 -1.5259 -1.2932
15109TIP3    H266819   3.134   0.942  13.466  2.1824 -0.6471 -0.5351
15110TIP3   OH266820   6.085   4.805   3.304  0.2746  0.0558 -0.4205
15110TIP3    H166821   6.072   4.711   3.297 -0.5095  0.3613 -3.4474
15110TIP3    H266822   6.003   4.838   3.339 -0.4620 -0.0717 -2.0275
15111TIP3   OH266823   4.947   4.101  15.450  0.0311  0.5122  0.2362
15111TIP3    H166824   4.963   4.151  15.530 -0.4417  1.6039 -0.3518
15111TIP3    H266825   4.905   4.163  15.391 -0.3009 -0.4995 -0.5946
15112TIP3   OH266826   3.191   1.339   3.474 -0.1292  0.1197  0.1868
15112TIP3    H166827   3.261   1.373   3.530 -0.1589 -0.0240  0.3117
15112TIP3    H266828   3.232   1.324   3.389 -0.4667  1.9201 -0.3110
15113TIP3   OH266829   6.500   3.487   5.488 -0.1274 -0.0120  0.0384
15113TIP3    H166830   6.553   3.407   5.486 -1.3243 -0.8549  0.8658
15113TIP3    H266831   6.462   3.488   5.576 -0.6065  1.1463 -0.1798
15114TIP3   OH266832   2.467   3.490  16.686 -0.1051 -0.4018 -0.4461
15114TIP3    H166833   2.477   3.459  16.776 -0.4743  2.4860  0.6380
15114TIP3    H266834   2.536   3.445  16.637  1.4533 -0.4254  1.7148
15115TIP3   OH266835   3.591   2.761  12.144 -0.0882 -0.0811  0.3215
15115TIP3    H166836   3.523   2.821  12.175 -0.1575 -0.1401  0.2846
15115TIP3    H266837   3.633   2.729  12.223  1.1661  1.4150  0.2926
15116TIP3   OH266838   0.633   1.284  15.805 -0.3665 -0.2895 -0.3791
15116TIP3    H166839   0.610   1.322  15.720  1.5580  0.7420 -0.4696
15116TIP3    H266840   0.694   1.213  15.785 -2.3374 -2.1147 -0.0509
15117TIP3   OH266841   5.267   3.527  15.531  0.0912 -0.0640 -0.0860
15117TIP3    H166842   5.259   3.620  15.552  0.2829 -0.0344 -0.1394
15117TIP3    H266843   5.355   3.518  15.495  0.1049 -0.2830 -0.0015
15118TIP3   OH266844   3.796   1.145   2.621  1.0079 -0.5378 -0.1766
15118TIP3    H166845   3.761   1.232   2.641  2.1138 -0.5913  2.1463
15118TIP3    H266846   3.720   1.087   2.629  0.6631 -0.0390  0.2578
15119TIP3   OH266847   2.861   6.171  11.083 -0.1888 -0.1372  0.4562
15119TIP3    H166848   2.873   6.187  10.989  0.5032  0.3812  0.6280
15119TIP3    H266849   2.784   6.114  11.088 -0.8363  0.6531 -0.3604
15120TIP3   OH266850   0.830   6.209   3.170  0.1762 -0.3875  0.2738
15120TIP3    H166851   0.804   6.184   3.259 -1.4189  0.3995  0.0483
15120TIP3    H266852   0.829   6.305   3.171  2.0119 -0.3582 -0.0710
15121TIP3   OH266853   1.844   2.461   1.755  0.7725  0.3940  0.5804
15121TIP3    H166854   1.766   2.498   1.713 -0.4091 -0.3921  2.0406
15121TIP3    H266855   1.895   2.426   1.682 -0.1490  1.0567 -0.4153
15122TIP3   OH266856   3.231   2.364   4.377  0.0503  0.8172 -0.0435
15122TIP3    H166857   3.217   2.269   4.376 -0.0164  0.8196 -3.4972
15122TIP3    H266858   3.314   2.376   4.424  1.0435 -1.1014 -1.2631
15123TIP3   OH266859   6.728   3.729  15.837  0.1571 -0.3770  0.6432
15123TIP3    H166860   6.772   3.777  15.907 -0.5318 -1.5430  1.8811
15123TIP3    H266861   6.635   3.736  15.858 -0.1260  0.0736 -0.6901
15124TIP3   OH266862   3.482   4.302  17.250 -0.7450  0.1160  0.1499
15124TIP3    H166863   3.546   4.333  17.186 -2.1578  0.7243 -1.0003
15124TIP3    H266864   3.444   4.381  17.287  0.5483 -0.2310  2.2663
15125TIP3   OH266865   2.161   6.244   5.263 -0.0590 -0.1449 -0.6261
15125TIP3    H166866   2.135   6.336   5.254  0.9522  0.1797 -0.3178
15125TIP3    H266867   2.116   6.214   5.342  0.4227  0.3803 -0.1458
15126TIP3   OH266868   0.839   5.858  11.156  0.1819 -0.6493  0.3208
15126TIP3    H166869   0.872   5.813  11.078  2.4058  0.9684  0.2859
15126TIP3    H266870   0.849   5.794  11.226 -0.1901 -1.5117 -0.4063
15127TIP3   OH266871   6.585   2.962  15.831 -0.3710 -0.4983 -0.3938
15127TIP3    H166872   6.591   3.056  15.849  0.8469 -0.7698  0.6888
15127TIP3    H266873   6.558   2.923  15.914  2.0768 -1.4112  0.0352
15128TIP3   OH266874   1.098   0.563  12.762 -0.1665  0.4136  0.7138
15128TIP3    H166875   1.086   0.537  12.671 -0.0953 -1.0340  1.1026
15128TIP3    H266876   1.179   0.614  12.762  0.8158 -1.0925  0.2312
15129TIP3   OH266877   4.937   3.935   4.244  0.5728 -0.1864  0.3144
15129TIP3    H166878   4.886   3.856   4.227  0.1270  0.4641 -1.4331
15129TIP3    H266879   4.909   3.997   4.177  3.5572  0.2341 -0.6015
15130TIP3   OH266880   5.269   6.022  15.975 -0.6904  0.0262  0.0317
15130TIP3    H166881   5.242   6.038  15.885 -0.8977  0.9396  0.2517
15130TIP3    H266882   5.363   6.004  15.969 -0.9335 -1.1248 -0.4985
15131TIP3   OH266883   4.007   0.034  11.582  0.2075 -0.0459 -0.1838
15131TIP3    H166884   4.034  -0.016  11.505  1.8409  0.8666 -0.2308
15131TIP3    H266885   3.977  -0.032  11.645 -0.4133 -0.8543 -1.3085
15132TIP3   OH266886   6.225   6.406  10.636 -0.9401  0.1546 -0.7730
15132TIP3    H166887   6.161   6.457  10.686 -0.8041 -0.6737  0.2623
15132TIP3    H266888   6.277   6.472  10.590  0.2056  1.0724  1.7119
15133TIP3   OH266889   3.139   6.029  11.670 -0.2961  0.1429  0.1463
15133TIP3    H166890   3.045   6.024  11.683 -0.0932 -1.1448  1.1713
15133TIP3    H266891   3.172   6.076  11.747 -0.1587  1.1922 -0.5336
15134TIP3   OH266892   1.735   1.882  11.506  0.0688  0.6414  0.8030
15134TIP3    H166893   1.670   1.856  11.440  1.6421  0.6254 -0.7852
15134TIP3    H266894   1.707   1.838  11.586 -0.6291 -1.2091 -0.4168
15135TIP3   OH266895   3.597   4.017   6.286 -0.6673 -0.0727 -0.1161
15135TIP3    H166896   3.622   4.109   6.293 -1.4366  0.3764 -2.7818
15135TIP3    H266897   3.503   4.015   6.305 -0.9409 -0.0930 -1.4316
15136TIP3   OH266898   4.337   1.119  13.773 -0.0096 -0.2346 -0.1006
15136TIP3    H166899   4.353   1.045  13.714 -0.9169 -0.8369  0.4048
15136TIP3    H266900   4.304   1.189  13.716 -0.5531 -0.6981 -0.3562
15137TIP3   OH266901   3.370   0.832   1.861 -0.0770  0.6882 -0.4254
15137TIP3    H166902   3.278   0.809   1.855  0.2221 -0.3589 -0.9474
15137TIP3    H266903   3.378   0.875   1.947 -1.3846  2.4068 -1.1450
15138TIP3   OH266904   0.891   2.478  16.731  0.4828  0.1036 -0.3073
15138TIP3    H166905   0.859   2.388  16.740  2.0211 -0.4370 -0.0621
15138TIP3    H266906   0.922   2.501  16.819  1.9585  0.1231 -0.8129
15139TIP3   OH266907   5.993   4.141   3.856 -0.2833 -0.2189 -0.0921
15139TIP3    H166908   6.053   4.184   3.794  0.2598  0.2672  0.7548
15139TIP3    H266909   6.011   4.184   3.939 -0.5831 -1.2790  0.5256
15140TIP3   OH266910   4.772   1.306  14.939  0.0091 -0.1499 -0.0550
15140TIP3    H166911   4.783   1.230  14.883  0.2904 -0.0975 -0.0671
15140TIP3    H266912   4.686   1.293  14.980 -0.1040 -0.2879 -0.3383
15141TIP3   OH266913   5.336   5.806  13.535  0.0722  0.5844 -0.0180
15141TIP3    H166914   5.377   5.871  13.592 -2.8290  0.9358  1.7514
15141TIP3    H266915   5.360   5.722  13.573 -0.7602  0.7868  0.9787
15142TIP3   OH266916   1.756   1.338  14.625 -0.2446 -0.2608 -0.0615
15142TIP3    H166917   1.775   1.337  14.719 -1.1230  2.3500  0.1803
15142TIP3    H266918   1.661   1.348  14.620 -0.4306 -2.4230 -1.2509
15143TIP3   OH266919   3.773   2.658   5.985 -0.0841 -0.2259  0.2027
15143TIP3    H166920   3.694   2.707   5.961  0.0695  0.3149  0.7918
15143TIP3    H266921   3.767   2.649   6.080  1.3822  1.2441  0.4513
15144TIP3   OH266922   5.186   5.730  13.840 -0.1711 -0.1061  0.0737
15144TIP3    H166923   5.266   5.690  13.805 -0.9854 -1.0518 -0.7163
15144TIP3    H266924   5.217   5.783  13.914  1.6228  2.2539 -2.2562
15145TIP3   OH266925   6.023   6.576   6.186  0.6163 -0.4782  0.1512
15145TIP3    H166926   6.029   6.641   6.116  0.2169 -0.8412 -0.2230
15145TIP3    H266927   6.048   6.623   6.265 -1.2812  0.5664  0.1479
15146TIP3   OH266928   5.761   3.106  12.151 -0.1169  0.2636 -0.2848
15146TIP3    H166929   5.761   3.171  12.081  1.3665  0.0362 -0.4976
15146TIP3    H266930   5.755   3.022  12.106 -1.8352  0.2271 -0.0197
15147TIP3   OH266931   1.233   3.313   1.464 -0.0413  0.3214 -0.3362
15147TIP3    H166932   1.162   3.373   1.486 -1.5219 -1.5663  0.2540
15147TIP3    H266933   1.298   3.326   1.533 -1.8166 -1.0333  1.6513
15148TIP3   OH266934   3.581   6.557   3.330  0.2952  0.1456 -0.7547
15148TIP3    H166935   3.656   6.589   3.380 -0.4425  0.1895  0.3430
15148TIP3    H266936   3.579   6.613   3.252  2.4158 -0.9731 -1.6513
15149TIP3   OH266937   2.617   4.590   3.247  0.0446  0.6820  0.8660
15149TIP3    H166938   2.689   4.627   3.298  1.2518  1.0655 -1.0977
15149TIP3    H266939   2.660   4.540   3.178 -1.5854 -0.6520  0.7819
15150TIP3   OH266940   0.176   6.351   4.910 -0.7744 -0.1943 -0.2561
15150TIP3    H166941   0.227   6.430   4.927  1.1885 -1.0938 -1.7019
15150TIP3    H266942   0.185   6.299   4.989 -2.0698  0.9926  0.7019
15151TIP3   OH266943   0.969   6.314   1.080  0.4935 -0.5797  0.3179
15151TIP3    H166944   1.031   6.333   1.150  0.2210 -0.3449  0.4965
15151TIP3    H266945   0.988   6.223   1.055 -0.7508 -1.3626  2.0970
15152TIP3   OH266946   4.971   0.622   3.478 -0.2529  0.1595  0.1499
15152TIP3    H166947   5.025   0.625   3.557 -0.9050  0.8875  0.5748
15152TIP3    H266948   4.893   0.672   3.500 -1.1623 -0.9723 -0.4210
15153TIP3   OH266949   6.560   3.924  14.599  0.5107 -0.2262 -0.1191
15153TIP3    H166950   6.485   3.866  14.612  0.1618  0.3482  0.4405
15153TIP3    H266951   6.599   3.894  14.516  0.9910 -1.9668  0.7037
15154TIP3   OH266952   0.202   1.826  11.871  0.2944  0.3887  0.0478
15154TIP3    H166953   0.241   1.758  11.926 -0.6513 -0.3390 -0.1598
15154TIP3    H266954   0.114   1.838  11.907  0.1346  0.8552 -0.4891
15155TIP3   OH266955   6.135   1.952   3.701  0.4247  0.3676  0.0436
15155TIP3    H166956   6.113   1.859   3.704 -0.9420  0.6426 -1.1296
15155TIP3    H266957   6.117   1.978   3.610  2.0311  1.4767  0.0254
15156TIP3   OH266958   1.941   1.049  17.187 -0.1504  0.0653  0.0483
15156TIP3    H166959   1.876   1.038  17.256  0.6460  2.2829  1.1744
15156TIP3    H266960   1.923   1.135  17.150  1.4317  0.2066 -0.4021
15157TIP3   OH266961   4.679   1.070   1.244  0.1539 -0.4937  0.1762
15157TIP3    H166962   4.687   1.081   1.149  0.5768 -2.8843 -0.0891
15157TIP3    H266963   4.720   1.148   1.280  0.2403  0.3156 -1.6066
15158TIP3   OH266964   0.168   4.606  16.896 -0.1722  0.3264  0.4382
15158TIP3    H166965   0.112   4.558  16.836  0.4894  0.1375 -0.0207
15158TIP3    H266966   0.126   4.595  16.982  0.2066 -1.4106  0.4108
15159TIP3   OH266967   0.984   4.277  11.770  0.6075  0.4003 -0.2134
15159TIP3    H166968   1.067   4.311  11.736  1.8564 -0.5047  1.8459
15159TIP3    H266969   1.009   4.198  11.819 -1.5868 -0.3997 -0.3432
15160TIP3   OH266970   1.822   1.505  15.983  0.1562  0.0843  0.0201
15160TIP3    H166971   1.881   1.580  15.996  0.7911 -0.4566  0.3239
15160TIP3    H266972   1.751   1.540  15.929 -0.3276  1.2988  1.4009
15161TIP3   OH266973   5.372   2.057   5.176  0.2615 -0.5169 -0.0064
15161TIP3    H166974   5.446   2.081   5.232 -2.2855 -0.4963  3.4947
15161TIP3    H266975   5.362   1.963   5.188 -0.7721 -0.3867  0.1629
15162TIP3   OH266976   1.481   6.639  10.983  0.4995 -0.4835  0.2073
15162TIP3    H166977   1.533   6.669  10.908  3.2295 -0.7943  1.8924
15162TIP3    H266978   1.391   6.663  10.961  1.6044  2.0671 -1.8691
15163TIP3   OH266979   4.425   4.386   3.828  0.0843  0.2383  0.7020
15163TIP3    H166980   4.410   4.480   3.830  0.9282  0.4182 -1.1146
15163TIP3    H266981   4.520   4.377   3.829  0.0068 -0.6514  2.3414
15164TIP3   OH266982   4.013   3.189   6.390  0.8040 -1.0352 -0.4778
15164TIP3    H166983   3.977   3.151   6.471  2.8713  1.1965  1.5551
15164TIP3    H266984   3.938   3.234   6.350 -0.5195 -3.1384 -0.4450
15165TIP3   OH266985   3.250   4.064  12.932  0.2130 -0.1920  0.3499
15165TIP3    H166986   3.289   4.030  12.851  0.1799  0.2045  0.1644
15165TIP3    H266987   3.170   4.108  12.903 -0.0220 -0.4200  0.6498
15166TIP3   OH266988   0.799   3.281   5.044 -0.3670 -0.3059  0.2438
15166TIP3    H166989   0.712   3.281   5.003 -1.0349 -0.4767  1.6562
15166TIP3    H266990   0.799   3.205   5.102 -0.0153  0.8574  1.7972
15167TIP3   OH266991   6.763   1.369   4.535  0.1728  0.6097  0.0758
15167TIP3    H166992   6.778   1.278   4.561 -0.5316  0.7405  0.9487
15167TIP3    H266993   6.818   1.420   4.594  0.4563  0.7644 -0.3198
15168TIP3   OH266994   0.058   2.929   1.920 -0.0336  0.6286  0.5473
15168TIP3    H166995   0.085   2.855   1.865  2.6274  1.6901  0.3680
15168TIP3    H266996  -0.016   2.968   1.873 -0.3980 -0.9133 -0.1937
15169TIP3   OH266997   3.952   3.179   5.573  0.1113 -0.0910 -0.2065
15169TIP3    H166998   4.011   3.222   5.511 -1.3931  0.9820 -0.9482
15169TIP3    H266999   3.904   3.115   5.520 -0.9613  0.6170 -0.1064
15170TIP3   OH267000   4.130   3.379   1.313 -0.2913 -0.0464  0.1922
15170TIP3    H167001   4.095   3.290   1.317  2.9710 -1.3778  2.6347
15170TIP3    H267002   4.194   3.376   1.241 -0.3306  0.3515  0.1435
15171TIP3   OH267003   0.279   2.329   6.241  0.7171 -0.5912  0.2285
15171TIP3    H167004   0.251   2.340   6.331 -1.1537 -0.8639 -0.3002
15171TIP3    H267005   0.298   2.236   6.232 -1.8415 -1.0965 -0.3858
15172TIP3   OH267006   2.642   6.310  12.524  0.5582  0.1807  0.3910
15172TIP3    H167007   2.577   6.244  12.548  0.1128  0.2100 -0.6926
15172TIP3    H267008   2.714   6.260  12.485  1.1366  0.1588  1.4835
15173TIP3   OH267009   1.120   4.592   3.540 -0.4285  0.3996 -0.2856
15173TIP3    H167010   1.190   4.540   3.580 -1.5867 -1.2459 -0.3208
15173TIP3    H267011   1.152   4.682   3.542  0.8318 -0.0678  1.5325
15174TIP3   OH267012   4.599   0.305  12.097 -0.2737  0.0279 -0.7935
15174TIP3    H167013   4.625   0.390  12.060 -1.3378  0.3613 -0.7959
15174TIP3    H267014   4.595   0.247  12.021  0.7422 -0.1008 -0.7532
15175TIP3   OH267015   1.667   3.369  14.557  0.1055 -0.0308 -0.2289
15175TIP3    H167016   1.748   3.413  14.533  0.5278 -0.3719  0.5785
15175TIP3    H267017   1.633   3.419  14.631  0.6989 -1.1864  0.8348
15176TIP3   OH267018   2.042   3.683  14.966  0.2384 -0.3522 -0.3250
15176TIP3    H167019   2.063   3.592  14.945  0.2760 -0.4107 -0.0333
15176TIP3    H267020   1.978   3.677  15.037  1.4661 -0.1214  0.8183
15177TIP3   OH267021   2.612   4.467   0.013  0.2316  0.4240  0.6211
15177TIP3    H167022   2.606   4.446   0.107  0.0461 -1.2689  0.2377
15177TIP3    H267023   2.527   4.508  -0.007  0.1901  0.5994  1.1390
15178TIP3   OH267024   6.173   2.627  12.817 -0.5720 -0.0677 -0.0740
15178TIP3    H167025   6.140   2.650  12.730  1.1318  1.7972 -0.2747
15178TIP3    H267026   6.222   2.546  12.804 -1.1177 -0.3114 -0.6475
15179TIP3   OH267027   0.441   0.559  13.998 -0.1247 -0.1517 -0.1751
15179TIP3    H167028   0.509   0.604  14.048  1.0512 -1.7217 -0.3035
15179TIP3    H267029   0.373   0.538  14.063  1.5580 -2.5117  0.9217
15180TIP3   OH267030   0.160   6.221  15.933 -0.6639  0.0575  0.4280
15180TIP3    H167031   0.177   6.208  16.026 -0.7919 -0.4525  0.3789
15180TIP3    H267032   0.246   6.232  15.894 -0.6299  0.6314  0.6588
15181TIP3   OH267033   0.679   2.361  16.428  0.4527  0.0275  0.1970
15181TIP3    H167034   0.679   2.453  16.455  0.6723 -0.6580  2.6218
15181TIP3    H267035   0.692   2.312  16.509  0.4129 -2.1534 -1.0776
15182TIP3   OH267036   6.534   2.489   2.237 -0.0740  0.2254 -0.0840
15182TIP3    H167037   6.555   2.435   2.313  0.5311  0.0847 -0.3503
15182TIP3    H267038   6.438   2.483   2.229 -0.0788 -0.2357  0.3057
15183TIP3   OH267039   6.499   2.976  14.627  0.1007  0.1098  0.5137
15183TIP3    H167040   6.490   3.065  14.593  1.1246  0.5813  1.4590
15183TIP3    H267041   6.553   2.930  14.562  0.2066  0.3813  0.4112
15184TIP3   OH267042   2.602   6.704   0.464  0.4233  0.3458 -0.6549
15184TIP3    H167043   2.632   6.750   0.542  0.7841 -0.6622 -0.1869
15184TIP3    H267044   2.615   6.766   0.393 -1.4456  1.8769  0.3017
15185TIP3   OH267045   3.075   5.495   3.264  0.7898  0.2975  0.1002
15185TIP3    H167046   3.108   5.563   3.207 -1.7756  1.4548 -0.0904
15185TIP3    H267047   3.081   5.414   3.213  1.0014  0.8852 -0.7955
15186TIP3   OH267048   4.551   6.517  12.194  0.0119  0.0445  0.5425
15186TIP3    H167049   4.558   6.423  12.208  2.3500  0.3856  2.0242
15186TIP3    H267050   4.457   6.535  12.194 -0.4772 -2.3465 -0.3743
15187TIP3   OH267051   4.516   2.004   1.065  0.0635  0.3089 -0.0471
15187TIP3    H167052   4.602   2.044   1.051  0.6554 -0.5919  0.9357
15187TIP3    H267053   4.454   2.075   1.048  1.0282  1.1821 -0.0048
15188TIP3   OH267054   3.190   1.156  13.099  0.1548  0.2227 -0.2084
15188TIP3    H167055   3.151   1.142  13.185  2.0591 -1.0976  0.4736
15188TIP3    H267056   3.280   1.183  13.117  0.6630 -0.3339 -1.7857
15189TIP3   OH267057   4.880   5.719  11.384  0.0795 -0.0162 -0.1216
15189TIP3    H167058   4.801   5.665  11.375  0.0108 -0.2065  1.5548
15189TIP3    H267059   4.940   5.684  11.317 -0.3079 -1.5643  0.3185
15190TIP3   OH267060   3.723   3.615  11.438 -0.4754  0.2555 -0.1906
15190TIP3    H167061   3.730   3.598  11.344 -1.6225  1.1484 -0.4465
15190TIP3    H267062   3.654   3.557  11.469 -0.2080  0.0759  0.0674
15191TIP3   OH267063   2.020   4.279   0.709 -0.3646  0.2346  0.0962
15191TIP3    H167064   2.066   4.361   0.691 -0.3391  0.1786 -0.0959
15191TIP3    H267065   2.082   4.227   0.760 -0.0298 -0.0362 -0.5822
15192TIP3   OH267066   6.538   2.479   2.900  0.9848  0.1439  0.0318
15192TIP3    H167067   6.559   2.480   2.993 -0.2584 -1.3915  0.3484
15192TIP3    H267068   6.621   2.498   2.857  1.8617 -0.4714  1.4074
15193TIP3   OH267069   2.662   0.837  13.526 -0.0387 -0.4158  0.1319
15193TIP3    H167070   2.670   0.746  13.497 -1.0395 -0.5199  0.1646
15193TIP3    H267071   2.568   0.849  13.542 -0.1156  1.0341 -1.2571
15194TIP3   OH267072   1.232   4.680   2.566 -0.1756 -0.1047  0.4553
15194TIP3    H167073   1.313   4.727   2.582  0.9149 -1.8418  0.1278
15194TIP3    H267074   1.199   4.716   2.483  2.0298 -1.7467 -1.1920
15195TIP3   OH267075   0.614   3.216  12.772 -0.6826  0.1167 -0.8826
15195TIP3    H167076   0.674   3.146  12.797  1.4752  2.0761 -0.4261
15195TIP3    H267077   0.670   3.282  12.729 -2.5625  1.7917 -0.8494
15196TIP3   OH267078   6.150   2.568   3.270  0.1068 -0.4695 -0.3707
15196TIP3    H167079   6.125   2.655   3.298  0.2706 -0.7488  0.6626
15196TIP3    H267080   6.246   2.566   3.281  0.1230 -0.7160 -0.5472
15197TIP3   OH267081   4.126   4.899   3.024  0.3626 -0.4019 -0.1060
15197TIP3    H167082   4.154   4.880   3.113  1.4917 -1.6256 -0.7057
15197TIP3    H267083   4.138   4.817   2.976 -1.0577 -0.0131 -1.1948
15198TIP3   OH267084   0.120   5.886   6.241 -0.1494  0.2383  0.2961
15198TIP3    H167085   0.152   5.886   6.150 -3.1377  0.5541 -0.7964
15198TIP3    H267086   0.128   5.977   6.269  0.7229  0.1512  0.3538
15199TIP3   OH267087   5.229   1.429  15.006 -0.2152 -0.3596  0.8849
15199TIP3    H167088   5.147   1.385  15.027 -1.7134  0.2415 -3.1575
15199TIP3    H267089   5.296   1.361  15.015 -1.8451 -2.2337 -0.5522
15200TIP3   OH267090   4.942   4.118  11.066  0.0100 -0.2200  0.0807
15200TIP3    H167091   5.019   4.158  11.106  0.5928  1.1362 -2.3302
15200TIP3    H267092   4.884   4.192  11.047  0.2176 -0.7069 -2.5594
15201TIP3   OH267093   0.793   6.456   0.208  1.0107 -0.0072  0.8374
15201TIP3    H167094   0.751   6.421   0.287  0.6957  1.4542  1.3440
15201TIP3    H267095   0.778   6.550   0.214 -0.6500 -0.0616 -1.9219
15202TIP3   OH267096   3.262   2.862  11.921  0.5681 -0.3555 -0.3917
15202TIP3    H167097   3.283   2.806  11.995  0.1469  0.4803  0.3708
15202TIP3    H267098   3.345   2.875  11.875  0.7680 -1.1371 -0.2464
15203TIP3   OH267099   5.901   0.650  15.443 -0.0734 -0.1705  0.1057
15203TIP3    H167100   5.954   0.577  15.413  0.2209  0.0914 -0.0132
15203TIP3    H267101   5.830   0.610  15.493  0.7975 -0.4492  1.1118
15204TIP3   OH267102   6.539   2.545  13.129 -0.2968  0.5899 -0.4834
15204TIP3    H167103   6.557   2.626  13.081  0.0818  0.2823 -0.8665
15204TIP3    H267104   6.444   2.539  13.131 -0.3635  1.8772  0.9549
15205TIP3   OH267105   5.962   4.150   2.451 -0.4820 -0.3224 -0.2976
15205TIP3    H167106   5.979   4.067   2.497  0.5221  0.2607  0.4179
15205TIP3    H267107   6.049   4.185   2.434 -0.9192  0.8687 -0.0692
15206TIP3   OH267108   2.471   4.575   0.714 -0.2945  0.3649 -0.3246
15206TIP3    H167109   2.551   4.565   0.663 -0.5504 -2.3723 -0.2486
15206TIP3    H267110   2.465   4.669   0.731  3.1216  0.5827  0.0411
15207TIP3   OH267111   0.987   4.755   5.742 -0.2563  0.2300 -0.1885
15207TIP3    H167112   1.038   4.789   5.815 -0.1991 -0.6891  0.2046
15207TIP3    H267113   1.005   4.661   5.742 -0.5498  0.1708 -1.1539
15208TIP3   OH267114   4.911   3.699  10.844 -0.6716 -0.8839  0.5685
15208TIP3    H167115   4.986   3.693  10.785  0.1272  0.9692  1.3504
15208TIP3    H267116   4.849   3.635  10.810  0.6805 -1.4458 -0.9324
15209TIP3   OH267117   2.947   5.288  16.864  0.0377  0.5762  0.0859
15209TIP3    H167118   2.970   5.374  16.828 -1.5049  0.3603 -1.5000
15209TIP3    H267119   3.004   5.227  16.816  1.4905  0.7395  1.5702
15210TIP3   OH267120   6.180   5.291   3.056 -0.4719  0.8583  0.1821
15210TIP3    H167121   6.267   5.303   3.093 -1.3214  2.1925  1.8611
15210TIP3    H267122   6.186   5.211   3.004  2.2788  2.0308 -1.4113
15211TIP3   OH267123   3.340   4.380  16.676  0.4441 -0.1703  0.2867
15211TIP3    H167124   3.395   4.420  16.608 -0.0705 -0.1347 -0.1164
15211TIP3    H267125   3.316   4.294  16.639 -1.4284  0.6291 -0.4331
15212TIP3   OH267126   1.840   3.006  11.851 -0.1677  0.7495  0.2750
15212TIP3    H167127   1.843   3.063  11.928 -0.7680  0.1965  0.7123
15212TIP3    H267128   1.767   2.946  11.868 -1.7065  1.9869 -1.6744
15213TIP3   OH267129   6.373   5.070  17.235 -0.4740 -0.1660  0.6429
15213TIP3    H167130   6.460   5.100  17.208 -0.6759 -0.9042 -0.9145
15213TIP3    H267131   6.318   5.148  17.230 -0.5779 -0.3381 -1.5072
15214TIP3   OH267132   1.893   6.788   0.250 -0.4112 -0.5029 -0.3343
15214TIP3    H167133   1.798   6.780   0.251 -0.5885  1.3583  0.2076
15214TIP3    H267134   1.909   6.882   0.260  1.4958 -0.8824  0.4599
15215TIP3   OH267135   6.318   2.204  14.659  0.0324  0.5039 -0.4345
15215TIP3    H167136   6.294   2.236  14.572 -2.5804 -1.1176 -0.3794
15215TIP3    H267137   6.349   2.114  14.643  0.0550  0.3894  0.2445
15216TIP3   OH267138   2.951   4.515  11.094 -0.0283  0.0660  0.0987
15216TIP3    H167139   2.935   4.602  11.058  2.2858 -0.3484 -2.0392
15216TIP3    H267140   2.865   4.473  11.094 -1.1363  2.2556  1.0065
15217TIP3   OH267141   2.192   6.814  14.469 -0.2484 -0.0727  0.0846
15217TIP3    H167142   2.176   6.728  14.508 -0.3554 -0.3151 -0.4919
15217TIP3    H267143   2.115   6.831  14.414 -0.8358  0.9593  1.1976
15218TIP3   OH267144   5.349   4.341  13.230 -0.2855 -0.1288  0.3964
15218TIP3    H167145   5.312   4.253  13.241 -1.7450  0.2437 -1.3532
15218TIP3    H267146   5.332   4.385  13.313  1.4470 -1.8153  1.7124
15219TIP3   OH267147   5.970   3.842  16.340  0.4313 -0.5201 -0.1938
15219TIP3    H167148   5.951   3.888  16.421 -0.3210 -0.7959 -0.2157
15219TIP3    H267149   6.032   3.899  16.294  1.2019 -0.5690  0.7632
15220TIP3   OH267150   4.982   0.405   1.427 -0.0516  0.1735  0.2716
15220TIP3    H167151   4.963   0.313   1.443  0.0036  0.0758 -0.2191
15220TIP3    H267152   5.064   0.404   1.377  0.8177  0.5566  1.6608
15221TIP3   OH267153   3.123   3.037  11.612 -0.2814  0.1307 -0.0828
15221TIP3    H167154   3.147   3.052  11.521  2.4452 -0.4363  0.5123
15221TIP3    H267155   3.175   3.100  11.662 -0.5908 -0.6065  1.2028
15222TIP3   OH267156   4.658   4.479   1.395 -0.2296  0.3570 -0.6825
15222TIP3    H167157   4.612   4.419   1.453  0.5974  0.8731  0.5548
15222TIP3    H267158   4.724   4.425   1.351 -0.0689  0.1893 -0.2362
15223TIP3   OH267159   4.515   2.814  13.801  0.0784  0.1542  0.2265
15223TIP3    H167160   4.590   2.767  13.838  0.0082  0.8759  1.3104
15223TIP3    H267161   4.439   2.760  13.826  0.0140  0.7344  1.3250
15224TIP3   OH267162   4.634   0.342   0.938  0.4290  0.0409  0.3984
15224TIP3    H167163   4.607   0.339   1.030 -1.5211  0.0998 -0.1448
15224TIP3    H267164   4.639   0.250   0.913 -3.6991  0.0343 -0.6995
15225TIP3   OH267165   2.340   0.455  10.891 -0.0516 -0.3829  0.1978
15225TIP3    H167166   2.280   0.420  10.825  1.1386  0.0764 -1.1348
15225TIP3    H267167   2.292   0.528  10.931 -0.9950 -1.0293  0.2622
15226TIP3   OH267168   4.446   1.046   5.028  0.1932  0.5251 -0.1160
15226TIP3    H167169   4.528   1.084   5.060  0.3166  0.7720 -0.7209
15226TIP3    H267170   4.406   1.116   4.976  0.4709 -0.2059 -1.3258
15227TIP3   OH267171   4.722   2.200  17.095 -0.4829 -0.1088  0.1933
15227TIP3    H167172   4.660   2.149  17.147  0.5183 -0.5658  0.9511
15227TIP3    H267173   4.783   2.237  17.160 -0.3301  0.8371 -0.4815
15228TIP3   OH267174   3.078   5.394   5.059  0.0670  0.1152  0.0199
15228TIP3    H167175   3.080   5.299   5.070  0.0354  0.0101 -0.8502
15228TIP3    H267176   3.016   5.408   4.987 -0.0881  0.8066  0.2874
15229TIP3   OH267177   4.486   2.794   2.557 -0.0056 -0.0878 -0.0509
15229TIP3    H167178   4.477   2.860   2.626  0.5709  0.2257 -0.2656
15229TIP3    H267179   4.488   2.844   2.476  3.9449 -0.0269 -0.0118
15230TIP3   OH267180   1.994   2.784   1.776  0.3308  0.2763 -0.0084
15230TIP3    H167181   2.026   2.713   1.832  0.2330 -0.1999 -0.5485
15230TIP3    H267182   1.909   2.808   1.813 -1.1633 -2.1227 -1.7425
15231TIP3   OH267183   6.818   4.801  16.630  0.0133  0.6268 -0.2195
15231TIP3    H167184   6.771   4.818  16.712  1.3490  0.3761  0.6088
15231TIP3    H267185   6.770   4.729  16.589 -0.7186  0.8172  0.2909
15232TIP3   OH267186   0.598   3.689   1.062  0.3719  0.1500  0.0343
15232TIP3    H167187   0.581   3.724   0.974 -2.4919  0.4143  0.6422
15232TIP3    H267188   0.613   3.595   1.047 -1.7604 -0.1233 -0.6125
15233TIP3   OH267189   3.213   2.482   5.752 -0.3171  0.0216  0.9590
15233TIP3    H167190   3.272   2.406   5.752 -0.3317  0.0079  0.0702
15233TIP3    H267191   3.268   2.555   5.781 -0.2010 -0.2489  1.4274
15234TIP3   OH267192   1.951   2.975   1.601  0.2190 -0.4768 -0.8217
15234TIP3    H167193   1.910   2.940   1.522  0.5352  0.6715 -1.5065
15234TIP3    H267194   1.974   2.898   1.652 -2.0417 -1.1758 -0.7965
15235TIP3   OH267195   1.530   4.870   7.097 -0.3451 -0.6341 -0.3308
15235TIP3    H167196   1.550   4.797   7.039 -3.0585 -1.0695 -0.8247
15235TIP3    H267197   1.602   4.931   7.087  0.3735 -1.7890 -2.3708
15236TIP3   OH267198   2.425   1.041   2.192 -0.1146 -0.3434 -0.5402
15236TIP3    H167199   2.403   0.948   2.182 -1.4280  0.0759 -1.8663
15236TIP3    H267200   2.351   1.087   2.152  0.0274  1.2973  1.0541
15237TIP3   OH267201   3.046   1.672   4.927  0.2417  0.4360  0.0230
15237TIP3    H167202   3.011   1.643   5.010 -0.8474 -1.1259 -0.9604
15237TIP3    H267203   3.130   1.626   4.918  0.2283  0.3920  0.1297
15238TIP3   OH267204   1.350   0.761  17.043  0.3517 -0.2321  0.0795
15238TIP3    H167205   1.299   0.693  16.999  0.5153  0.3574 -1.0527
15238TIP3    H267206   1.292   0.837  17.043  0.8959  0.1842 -0.4223
15239TIP3   OH267207   1.684   0.117  15.503  0.4842 -0.3911 -0.5886
15239TIP3    H167208   1.678   0.030  15.464  0.6762 -0.8864  0.4548
15239TIP3    H267209   1.602   0.126  15.552  0.2190  0.2408 -1.1514
15240TIP3   OH267210   4.932   4.342  12.128 -0.2972 -0.1979 -0.3600
15240TIP3    H167211   4.971   4.287  12.060  2.2267  0.2917  0.6527
15240TIP3    H267212   4.867   4.284  12.170 -0.3339 -1.1859 -1.7262
15241TIP3   OH267213   4.372   3.549   4.665  0.1082  0.7078  0.2443
15241TIP3    H167214   4.445   3.588   4.714 -0.2226 -0.2968  1.5940
15241TIP3    H267215   4.301   3.545   4.729 -0.6536  0.2914 -0.6314
15242TIP3   OH267216   5.385   0.725   5.198 -0.1710 -0.3806  0.0305
15242TIP3    H167217   5.321   0.758   5.262 -1.5401 -0.1786 -1.4176
15242TIP3    H267218   5.440   0.801   5.178 -1.7582  0.4269 -1.4161
15243TIP3   OH267219   1.730   4.312  12.378  0.5303  0.0613 -0.1401
15243TIP3    H167220   1.703   4.312  12.470  1.8199 -0.7049  0.2658
15243TIP3    H267221   1.824   4.333  12.382  0.3737  1.0101 -1.3582
15244TIP3   OH267222   1.328   5.860  17.197 -0.0671 -0.1971 -0.2504
15244TIP3    H167223   1.385   5.794  17.158 -0.4654 -0.5726 -0.2054
15244TIP3    H267224   1.307   5.919  17.125  2.2231  1.2677  0.2286
15245TIP3   OH267225   0.636   3.303  15.417  0.2058  0.4846 -0.0226
15245TIP3    H167226   0.727   3.287  15.391  0.3015 -1.8400  1.5507
15245TIP3    H267227   0.643   3.359  15.495  0.2952  0.3160  0.0905
15246TIP3   OH267228   3.181   4.139   3.904 -0.3840  0.3535  0.3255
15246TIP3    H167229   3.108   4.175   3.853  0.4801  2.9829  0.8570
15246TIP3    H267230   3.209   4.212   3.960  1.5616 -1.1349  1.3417
15247TIP3   OH267231   0.330   6.778  15.066  0.5298 -0.4438 -0.0177
15247TIP3    H167232   0.408   6.833  15.070  0.2644 -0.1212  0.8144
15247TIP3    H267233   0.314   6.752  15.157  0.3068 -1.4148 -0.3205
15248TIP3   OH267234   3.105   0.983  11.505 -0.2853  0.7267  0.5572
15248TIP3    H167235   3.050   1.011  11.578 -0.2758  0.8215  0.5271
15248TIP3    H267236   3.192   1.018  11.525  0.0455 -0.4419  1.2143
15249TIP3   OH267237   5.354   0.697   4.249  0.2292  0.3701  0.1593
15249TIP3    H167238   5.408   0.769   4.282  0.7648  0.3217 -0.6119
15249TIP3    H267239   5.297   0.738   4.184  0.6323  0.0664 -0.3815
15250TIP3   OH267240   1.254   2.937   2.301 -0.0864  1.1410  0.7773
15250TIP3    H167241   1.302   3.010   2.338  1.6417 -0.0569  0.9455
15250TIP3    H267242   1.259   2.868   2.367 -1.6190  0.8238  0.5934
15251TIP3   OH267243   5.967   5.733   2.159 -0.5203 -0.2091  0.0184
15251TIP3    H167244   6.003   5.724   2.070  0.7590 -0.8240  0.5865
15251TIP3    H267245   5.888   5.785   2.147 -0.0687  0.1869 -1.4248
15252TIP3   OH267246   1.483   6.625  11.541  0.3085 -0.1621 -0.2907
15252TIP3    H167247   1.417   6.556  11.539 -0.2964  0.3571  0.9609
15252TIP3    H267248   1.484   6.661  11.453  0.1063 -1.2817 -0.7577
15253TIP3   OH267249   2.129   5.111  13.344  0.4941  0.1831  0.3634
15253TIP3    H167250   2.119   5.205  13.332 -2.7003 -0.0647  0.6898
15253TIP3    H267251   2.170   5.101  13.429 -0.9225  1.2707  1.1903
15254TIP3   OH267252   0.247   1.534   6.218 -0.4035  0.6419  0.6674
15254TIP3    H167253   0.274   1.612   6.170 -1.4696 -0.0127 -1.0579
15254TIP3    H267254   0.151   1.538   6.217 -0.5063 -1.2066 -0.3700
15255TIP3   OH267255   5.677   1.824   2.154  0.7037  0.2191  0.4732
15255TIP3    H167256   5.719   1.907   2.128 -1.1352  1.9006  2.6645
15255TIP3    H267257   5.735   1.789   2.221  1.0038  0.1783  0.1978
15256TIP3   OH267258   0.621   6.346  12.878 -0.8534  0.4226 -0.3253
15256TIP3    H167259   0.713   6.341  12.905 -1.2746  2.4605  1.6166
15256TIP3    H267260   0.581   6.268  12.917 -0.0733 -0.2540 -0.8325
15257TIP3   OH267261   1.305   3.921  16.732 -0.4463 -0.1463  0.4206
15257TIP3    H167262   1.335   3.932  16.822 -1.1723 -1.4252  0.8218
15257TIP3    H267263   1.384   3.895  16.684  0.1897  1.6478  0.4454
15258TIP3   OH267264   2.241   1.243  15.324  0.0838 -0.1948 -0.6207
15258TIP3    H167265   2.158   1.206  15.295 -0.0559 -1.8268  1.7065
15258TIP3    H267266   2.223   1.336  15.337 -0.9396 -0.2425 -1.6044
15259TIP3   OH267267   0.727   6.277   1.520 -0.4699  0.6398 -0.0975
15259TIP3    H167268   0.793   6.330   1.476 -1.6556  1.2538 -1.1749
15259TIP3    H267269   0.688   6.224   1.451 -1.4329  0.6355  0.4348
15260TIP3   OH267270   4.660   0.064   0.878 -0.0729 -0.4661  0.1577
15260TIP3    H167271   4.593   0.095   0.817 -0.8054 -0.5144  0.9240
15260TIP3    H267272   4.631  -0.024   0.902 -0.2715 -0.1053  1.2646
15261TIP3   OH267273   1.050   1.914  14.728 -0.0680  0.1540 -0.5861
15261TIP3    H167274   1.112   1.914  14.800  0.6162 -0.3398 -1.1561
15261TIP3    H267275   1.039   1.821  14.706 -0.4937  0.2778 -0.9190
15262TIP3   OH267276   1.690   6.435   4.175 -0.5622 -0.4732 -0.3679
15262TIP3    H167277   1.618   6.389   4.133 -2.6045  2.4982 -0.2994
15262TIP3    H267278   1.748   6.461   4.104 -1.2853 -0.0131 -0.7891
15263TIP3   OH267279   3.545   6.506  12.560 -0.3363 -0.2350 -0.4484
15263TIP3    H167280   3.450   6.520  12.556 -0.6766  0.0814  5.1304
15263TIP3    H267281   3.580   6.586  12.599  2.0047 -1.1088 -0.6491
15264TIP3   OH267282   1.060   6.046  14.749 -0.0206 -0.1543  0.1487
15264TIP3    H167283   1.016   6.121  14.791  1.5144  0.6486  0.3437
15264TIP3    H267284   1.132   6.085  14.700 -0.5893 -1.3045 -1.6302
15265TIP3   OH267285   2.705   6.093   1.527  0.5472  0.1864  0.8139
15265TIP3    H167286   2.682   6.007   1.563 -1.1428 -0.4463 -1.6511
15265TIP3    H267287   2.751   6.074   1.445 -1.0604  1.6107 -0.4590
15266TIP3   OH267288   3.000   3.473  13.694 -0.2029  0.7470  0.4068
15266TIP3    H167289   3.016   3.566  13.705 -0.0340  0.7216  0.3853
15266TIP3    H267290   3.040   3.451  13.609  1.6825  0.2217  1.4043
15267TIP3   OH267291   1.704   0.044   3.356 -0.1208 -0.0448 -0.1810
15267TIP3    H167292   1.784   0.002   3.324 -0.3711 -0.2752 -0.5126
15267TIP3    H267293   1.733   0.128   3.392  0.6451 -1.2795  2.1679
15268TIP3   OH267294   2.923   1.716  12.207  0.4895 -0.6690 -0.7804
15268TIP3    H167295   2.893   1.650  12.145 -2.9989  0.0147  0.0997
15268TIP3    H267296   2.854   1.782  12.208  1.1406  0.0617  2.7500
15269TIP3   OH267297   0.402   1.386   5.506  0.2611 -0.2605  0.0211
15269TIP3    H167298   0.469   1.349   5.564  0.0544 -0.2289  0.2852
15269TIP3    H267299   0.438   1.471   5.479  0.6317 -0.5549 -0.3971
15270TIP3   OH267300   4.381   0.789  12.435 -0.2331  0.7612 -0.0768
15270TIP3    H167301   4.374   0.789  12.339  2.9484  1.5736 -0.3639
15270TIP3    H267302   4.433   0.867  12.455  0.6926 -0.3960  2.1839
15271TIP3   OH267303   6.462   0.744   2.927 -0.3194  0.0662  0.3010
15271TIP3    H167304   6.387   0.701   2.968 -0.2477  0.8435  1.2805
15271TIP3    H267305   6.427   0.826   2.893  0.2606  0.8434  1.5476
15272TIP3   OH267306   5.332   3.684   6.624 -0.3666 -0.4842  0.6609
15272TIP3    H167307   5.358   3.742   6.552  0.7119  0.7180  1.9777
15272TIP3    H267308   5.256   3.728   6.663 -1.5281 -1.6047 -0.2799
15273TIP3   OH267309   3.649   2.144   2.928 -0.0149 -0.1202 -0.3246
15273TIP3    H167310   3.723   2.085   2.913 -0.2131 -0.7567  1.1484
15273TIP3    H267311   3.579   2.088   2.961 -0.4570  0.8060  0.3305
15274TIP3   OH267312   0.418   2.444   2.307  0.0321  0.1261 -0.2667
15274TIP3    H167313   0.496   2.478   2.264 -0.3317  1.2974 -0.0119
15274TIP3    H267314   0.441   2.443   2.401  0.0723 -0.4219 -0.2798
15275TIP3   OH267315   3.833   0.790   0.923 -0.0234  0.4581  0.3783
15275TIP3    H167316   3.848   0.859   0.988 -2.9508  0.0998  1.5124
15275TIP3    H267317   3.754   0.817   0.876 -0.0314 -1.0975 -0.5452
15276TIP3   OH267318   3.280   4.677   1.720 -0.0685  0.4840 -0.3498
15276TIP3    H167319   3.259   4.595   1.677  0.7340  0.8871 -1.5232
15276TIP3    H267320   3.368   4.698   1.691  0.5006  0.7704  1.4975
15277TIP3   OH267321   1.001   4.241  17.025 -0.0601  0.2703  0.2321
15277TIP3    H167322   1.037   4.275  17.107  0.5835  0.9488 -0.3305
15277TIP3    H267323   0.922   4.193  17.052  0.1476  0.4873  1.2460
15278TIP3   OH267324   5.989   2.655  14.028 -0.0767  0.1717 -0.1925
15278TIP3    H167325   5.954   2.678  13.943 -0.4978 -0.2546 -0.1316
15278TIP3    H267326   5.956   2.567  14.046 -0.4696  0.4794  0.6625
15279TIP3   OH267327   3.969   2.051   5.235  0.0963  0.0521 -0.9194
15279TIP3    H167328   4.018   2.027   5.157 -0.1081  2.5870 -1.8565
15279TIP3    H267329   3.878   2.058   5.205  0.3063  3.1471 -1.0019
15280TIP3   OH267330   3.422   5.996  16.904 -0.2026  0.7366 -0.0595
15280TIP3    H167331   3.380   6.025  16.985 -0.8650  1.4340 -0.6403
15280TIP3    H267332   3.392   5.906  16.892 -0.3486  0.7365  0.3067
15281TIP3   OH267333   3.778   6.158  14.139  0.1016  0.3779  0.2250
15281TIP3    H167334   3.802   6.080  14.189  0.3448  1.0256  1.1369
15281TIP3    H267335   3.684   6.167  14.153  0.2136  0.7104  0.8057
15282TIP3   OH267336   5.367   0.568   2.644 -0.2287  0.3330  0.0146
15282TIP3    H167337   5.451   0.601   2.676  0.9380  0.2730 -2.8243
15282TIP3    H267338   5.343   0.628   2.574 -2.2580 -0.0239  0.3930
15283TIP3   OH267339   0.684   4.422   3.704  0.6569  0.1164 -0.0539
15283TIP3    H167340   0.643   4.476   3.772 -1.6935 -2.3572  0.5856
15283TIP3    H267341   0.643   4.451   3.623  1.9086  1.6018 -0.1834
15284TIP3   OH267342   6.489   3.846  15.512  0.1798  0.3501  0.1970
15284TIP3    H167343   6.408   3.891  15.537 -0.9572 -1.4306 -0.1963
15284TIP3    H267344   6.543   3.915  15.473 -2.3403  1.0445 -2.2564
15285TIP3   OH267345   3.365   6.384  13.956 -0.1009  0.2230 -0.1441
15285TIP3    H167346   3.439   6.384  13.894  1.2135  0.9479  1.3881
15285TIP3    H267347   3.297   6.435  13.912  0.8299  0.7719 -0.9793
15286TIP3   OH267348   0.573   2.200  10.416  0.1726  0.5073 -0.1785
15286TIP3    H167349   0.548   2.127  10.359 -3.0456  1.1661  0.3252
15286TIP3    H267350   0.615   2.263  10.357 -0.8487  0.0896 -1.3685
15287TIP3   OH267351   2.645   0.542  11.329 -0.0429  0.3708  0.3299
15287TIP3    H167352   2.717   0.505  11.277  0.5396  0.8144  0.8140
15287TIP3    H267353   2.572   0.548  11.267 -0.2170 -1.7958  0.3100
15288TIP3   OH267354   0.273   4.216   1.584 -0.2028 -0.6880 -0.0114
15288TIP3    H167355   0.332   4.291   1.586 -0.9007 -0.1503  0.1117
15288TIP3    H267356   0.294   4.167   1.664 -0.5683 -0.0093  0.4967
15289TIP3   OH267357   3.006   5.845  17.126  0.4104 -0.0094 -0.4277
15289TIP3    H167358   2.961   5.878  17.204 -0.1799  0.4672 -0.9620
15289TIP3    H267359   2.979   5.754  17.119  2.2115 -0.6992  1.1831
15290TIP3   OH267360   2.626   2.387   5.817 -0.4414  0.0655 -0.1375
15290TIP3    H167361   2.648   2.310   5.868  0.0884 -0.5298 -1.2410
15290TIP3    H267362   2.711   2.425   5.792 -0.6904  0.4033 -0.4856
15291TIP3   OH267363   5.941   5.880  12.657 -0.0909 -0.5071  0.0222
15291TIP3    H167364   5.942   5.831  12.739 -0.6405  0.2453  0.4843
15291TIP3    H267365   5.858   5.856  12.615 -1.1724  1.2692  1.0352
15292TIP3   OH267366   0.542   2.297  11.424 -0.1640  0.3602 -0.7955
15292TIP3    H167367   0.458   2.332  11.452 -1.4931 -2.8756 -0.5415
15292TIP3    H267368   0.528   2.268  11.334  0.7230 -0.0727 -0.8086
15293TIP3   OH267369   1.719   4.851  16.903  0.0276 -0.0159 -0.1975
15293TIP3    H167370   1.626   4.841  16.882 -0.4588  0.9564  1.3971
15293TIP3    H267371   1.726   4.825  16.995  1.1106  1.0195  0.0379
15294TIP3   OH267372   2.281   2.172   3.237  0.5877 -0.5956  0.6466
15294TIP3    H167373   2.238   2.160   3.322 -1.7338 -1.4415 -0.5885
15294TIP3    H267374   2.306   2.083   3.211  0.8369 -0.4013  0.2355
15295TIP3   OH267375   1.303   0.948   4.674  0.2592 -0.7212  0.0859
15295TIP3    H167376   1.370   0.916   4.614 -0.4772 -0.3504 -0.9579
15295TIP3    H267377   1.351   0.991   4.745  1.0869  0.8255 -1.3807
15296TIP3   OH267378   3.936   1.813   3.306 -0.2973  0.1791  0.0047
15296TIP3    H167379   3.933   1.827   3.400 -0.9957  0.7545 -0.0946
15296TIP3    H267380   3.897   1.892   3.269 -0.8469 -0.4212 -0.7296
15297TIP3   OH267381   3.327   5.615  11.554 -0.2012  0.0511  0.2815
15297TIP3    H167382   3.329   5.690  11.613 -0.8884  0.9760 -0.8413
15297TIP3    H267383   3.400   5.630  11.494 -0.3318 -0.1872  0.0627
15298TIP3   OH267384   3.151   6.384   1.936 -0.9306  0.3430 -0.1671
15298TIP3    H167385   3.208   6.359   1.864 -2.2415  0.1818 -1.1657
15298TIP3    H267386   3.111   6.302   1.965 -0.5299  0.4302  0.6273
15299TIP3   OH267387   3.042   4.509  12.513 -0.0427 -0.4775 -0.2722
15299TIP3    H167388   3.116   4.460  12.551  0.3747 -0.9917 -1.7046
15299TIP3    H267389   3.056   4.599  12.542 -0.7559 -1.1700  2.3068
15300TIP3   OH267390   1.361   0.898  16.679 -0.6773  0.0255  0.2760
15300TIP3    H167391   1.419   0.863  16.747 -1.5158 -2.2281 -0.1347
15300TIP3    H267392   1.406   0.877  16.597  0.1651  2.4381  0.0770
15301TIP3   OH267393   0.448   2.573   5.085  0.2509  0.5320  0.1751
15301TIP3    H167394   0.402   2.490   5.076 -0.4852  1.0232 -0.6678
15301TIP3    H267395   0.406   2.631   5.022  1.9462  1.0216 -0.5550
15302TIP3   OH267396   2.774   3.970  11.866  0.0535 -0.3783  0.0635
15302TIP3    H167397   2.788   4.035  11.797 -2.0964 -0.2665 -0.2919
15302TIP3    H267398   2.855   3.920  11.868  0.6172  0.4307 -1.6932
15303TIP3   OH267399   3.044   1.619  15.448  0.3651  0.4773  0.0141
15303TIP3    H167400   3.097   1.579  15.517 -1.3877  0.7749  1.5883
15303TIP3    H267401   3.002   1.545  15.405  2.7773  0.1706 -1.8921
15304TIP3   OH267402   3.066   2.947  12.905  1.0115 -0.4085 -0.1839
15304TIP3    H167403   3.137   2.962  12.843  1.4345 -0.2492  0.3416
15304TIP3    H267404   3.107   2.905  12.980  0.4993 -0.5993 -0.0066
15305TIP3   OH267405   0.275   2.339  17.180 -0.6530 -0.0454 -0.0557
15305TIP3    H167406   0.361   2.314  17.147  0.0840  1.3727  0.7255
15305TIP3    H267407   0.219   2.264  17.161  0.7097 -0.9136 -0.7330
15306TIP3   OH267408   2.380   6.096   2.037  0.3121  0.0309 -0.3042
15306TIP3    H167409   2.352   6.139   2.118  0.4162 -1.2390  0.4145
15306TIP3    H267410   2.475   6.093   2.043  0.4121  1.2236 -1.1474
15307TIP3   OH267411   4.525   5.447  13.858 -0.1091  0.9105  0.0427
15307TIP3    H167412   4.450   5.495  13.893  0.8710  0.5329  2.8335
15307TIP3    H267413   4.495   5.357  13.850 -0.0604  0.8221  0.8383
15308TIP3   OH267414   3.478   2.376  13.104 -0.4309  0.4760 -0.6600
15308TIP3    H167415   3.447   2.311  13.167  0.0081 -1.5827 -2.5249
15308TIP3    H267416   3.571   2.355  13.092 -0.5314  0.7745 -2.0521
15309TIP3   OH267417   5.588   4.571   0.099 -0.3512 -0.0507 -0.1282
15309TIP3    H167418   5.551   4.546   0.015 -1.0301  0.2056  0.0847
15309TIP3    H267419   5.527   4.534   0.164  0.2490 -0.3811  0.2496
15310TIP3   OH267420   6.804   0.897  16.100 -0.6011 -0.8872  0.1918
15310TIP3    H167421   6.786   0.803  16.107 -0.2471 -0.9225  0.6331
15310TIP3    H267422   6.826   0.911  16.008 -0.3303 -1.2968  0.1924
15311TIP3   OH267423   4.022   4.280  16.563 -0.1436 -0.0395 -0.2822
15311TIP3    H167424   3.979   4.251  16.644 -0.7130  0.3681 -0.4303
15311TIP3    H267425   3.971   4.357  16.536  1.3573  1.1236  0.1242
15312TIP3   OH267426   2.490   1.321  12.957 -0.5178  0.1780 -0.3451
15312TIP3    H167427   2.454   1.232  12.962 -0.9821  0.4247  0.9479
15312TIP3    H267428   2.503   1.336  12.863 -0.6139 -1.1786 -0.5939
15313TIP3   OH267429   1.064   4.944  13.632  0.4894  0.3898 -0.5835
15313TIP3    H167430   1.030   4.855  13.634 -0.9821  0.9573  1.3457
15313TIP3    H267431   1.054   4.972  13.541 -1.2321 -0.5880 -0.7024
15314TIP3   OH267432   5.841   2.221   3.468  0.2421  0.2562  0.1911
15314TIP3    H167433   5.872   2.311   3.466 -1.7226  0.9526  0.0994
15314TIP3    H267434   5.862   2.186   3.381 -1.1423  1.3875 -0.6141
15315TIP3   OH267435   1.529   6.311  15.568 -0.2511 -0.3603  0.1382
15315TIP3    H167436   1.482   6.229  15.569  0.1480 -0.6393 -1.7691
15315TIP3    H267437   1.474   6.371  15.518  0.0563  0.1569  0.4048
15316TIP3   OH267438   4.097   2.570   0.369  0.8399  0.3098 -0.3971
15316TIP3    H167439   4.181   2.615   0.362  0.0892  1.6536 -0.9688
15316TIP3    H267440   4.052   2.590   0.287  0.2300 -0.9640 -0.3920
15317TIP3   OH267441   4.892   1.504   2.676 -0.4908  0.5137 -0.4958
15317TIP3    H167442   4.933   1.551   2.748  3.3420 -3.5144  0.1770
15317TIP3    H267443   4.956   1.510   2.605 -1.8890 -0.0026 -1.8129
15318TIP3   OH267444   2.435   6.646   4.116  0.3365 -0.4568  0.1936
15318TIP3    H167445   2.475   6.562   4.092  0.1689 -0.2663 -0.7638
15318TIP3    H267446   2.343   6.636   4.094  0.6504  0.6328 -1.7069
15319TIP3   OH267447   6.531   0.018  15.175  0.2455 -0.1569  0.0766
15319TIP3    H167448   6.516  -0.029  15.093  0.0087 -2.7951  1.5465
15319TIP3    H267449   6.584   0.093  15.151 -1.4374  0.1843 -2.7610
15320TIP3   OH267450   0.547   0.899   2.530 -0.5036  0.6156  0.1580
15320TIP3    H167451   0.598   0.915   2.451 -0.0876 -2.5306 -0.2782
15320TIP3    H267452   0.605   0.925   2.602  0.4619  0.1848 -0.4544
15321TIP3   OH267453   1.892   0.142   3.865 -0.0741  0.2367  0.6234
15321TIP3    H167454   1.818   0.191   3.828  0.2085  0.0579 -0.1892
15321TIP3    H267455   1.893   0.167   3.957 -2.2044 -1.0773  1.0412
15322TIP3   OH267456   0.015   3.967   4.427  0.2724 -0.1523  0.3121
15322TIP3    H167457  -0.061   4.018   4.457 -0.7105 -2.3847  1.7989
15322TIP3    H267458  -0.010   3.876   4.442  2.7631 -0.9996 -0.4037
15323TIP3   OH267459   3.781   1.379   5.685 -0.8612  0.2894  0.6865
15323TIP3    H167460   3.692   1.390   5.718 -0.6814 -0.2759  1.3771
15323TIP3    H267461   3.814   1.301   5.730 -0.5073 -0.3202 -0.6040
15324TIP3   OH267462   1.425   4.363  14.323 -0.1103  0.2997  0.3014
15324TIP3    H167463   1.350   4.306  14.340 -0.7125  0.7273 -0.8765
15324TIP3    H267464   1.473   4.365  14.406  0.7202 -3.0349  0.0024
15325TIP3   OH267465   0.044   2.658  12.656  0.2517 -1.0161 -0.0480
15325TIP3    H167466   0.134   2.680  12.633  1.0277 -0.5876  3.1549
15325TIP3    H267467   0.045   2.563  12.667  0.0317 -1.1466 -1.1431
15326TIP3   OH267468   0.411   0.035  10.352 -0.3713  0.4912  1.1076
15326TIP3    H167469   0.351   0.095  10.307 -1.7641 -1.3731  0.4482
15326TIP3    H267470   0.360  -0.044  10.368  1.0270 -0.0440  3.2144
15327TIP3   OH267471   2.175   1.635   6.641  0.2213  0.0934  0.0903
15327TIP3    H167472   2.159   1.541   6.636 -1.1658  0.3639 -1.0057
15327TIP3    H267473   2.266   1.646   6.615  0.3993 -0.9496  0.2607
15328TIP3   OH267474   5.225   5.307  12.644  0.1791  0.2558  0.5003
15328TIP3    H167475   5.212   5.303  12.549  1.5106  1.0160  0.2717
15328TIP3    H267476   5.320   5.311  12.655  0.1177 -1.4168  1.9407
15329TIP3   OH267477   0.477   5.083  13.062  0.7944 -0.1893 -0.0327
15329TIP3    H167478   0.471   5.100  12.968 -0.6504  2.0999  0.4330
15329TIP3    H267479   0.494   4.989  13.068 -0.0130 -0.5471 -2.5574
15330TIP3   OH267480   1.091   5.525  12.533  0.1804  0.0184  0.1315
15330TIP3    H167481   1.026   5.468  12.492  0.3806 -0.7606  0.8912
15330TIP3    H267482   1.173   5.477  12.525  0.5052  0.5849  0.0165
15331TIP3   OH267483   0.176   0.620   3.160  0.0341  0.2198 -0.4359
15331TIP3    H167484   0.216   0.587   3.241  0.2828 -1.3074 -1.1564
15331TIP3    H267485   0.155   0.711   3.179  0.1158 -0.1120  1.3433
15332TIP3   OH267486   1.994   1.703  13.920 -0.0186 -0.3803  0.5480
15332TIP3    H167487   2.007   1.713  14.015  0.9095  1.5643  0.2182
15332TIP3    H267488   2.081   1.713  13.882 -0.5591 -0.0064 -0.6210
15333TIP3   OH267489   4.547   1.937   5.594  0.8047  0.3390  0.0422
15333TIP3    H167490   4.482   2.003   5.566  1.6387  0.2218 -2.3174
15333TIP3    H267491   4.557   1.951   5.688 -1.8956  1.0320  0.2637
15334TIP3   OH267492   0.387   5.140   0.977  0.5288 -0.1674 -0.3210
15334TIP3    H167493   0.417   5.228   1.000 -0.1803  0.7996 -2.8558
15334TIP3    H267494   0.451   5.109   0.913  1.0641 -1.7166  0.9574
15335TIP3   OH267495   0.587   2.834  12.884  0.3760  0.2566  0.0948
15335TIP3    H167496   0.646   2.887  12.830 -1.5742  0.5377 -1.7960
15335TIP3    H267497   0.543   2.898  12.941 -0.8248  0.4989 -1.0924
15336TIP3   OH267498   3.572   2.968   0.854 -0.2483  0.3852  0.5129
15336TIP3    H167499   3.612   2.899   0.801  0.8090  0.8103  0.7566
15336TIP3    H267500   3.646   3.018   0.889 -1.0205  2.0451 -0.1895
15337TIP3   OH267501   1.654   4.491   2.779  0.0740  0.6794 -0.4247
15337TIP3    H167502   1.576   4.436   2.767  0.6930 -0.2710 -0.1408
15337TIP3    H267503   1.651   4.552   2.705 -0.9096  0.6217 -0.4487
15338TIP3   OH267504   4.086   2.345  15.539  0.4784 -0.2720 -0.3244
15338TIP3    H167505   4.158   2.362  15.601 -0.6647  1.1135  0.6543
15338TIP3    H267506   4.125   2.363  15.453  1.1992  0.9191  0.2263
15339TIP3   OH267507   3.140   5.287  15.482 -0.2676  0.4092  0.4923
15339TIP3    H167508   3.235   5.278  15.476 -0.3124 -1.4690  2.1910
15339TIP3    H267509   3.119   5.269  15.574 -2.2778  0.7865  0.1438
15340TIP3   OH267510   0.358   0.070  10.625 -0.2042  0.7732  0.4049
15340TIP3    H167511   0.300  -0.000  10.655 -1.1449  1.9379  1.3890
15340TIP3    H267512   0.361   0.060  10.530  0.3010 -1.0598  0.6019
15341TIP3   OH267513   3.737   4.119  16.243  0.1520  0.8490  0.1533
15341TIP3    H167514   3.739   4.117  16.338 -2.4659 -0.1274  0.2239
15341TIP3    H267515   3.749   4.028  16.217 -0.2353  0.9508 -0.4017
15342TIP3   OH267516   4.689   0.668  11.723 -0.3462 -0.2136  0.3081
15342TIP3    H167517   4.638   0.691  11.647  0.4063  0.5326  0.0232
15342TIP3    H267518   4.749   0.741  11.736 -0.8720 -0.0486  1.9786
15343TIP3   OH267519   5.189   5.551  13.287 -0.0179  0.1491  0.2704
15343TIP3    H167520   5.208   5.564  13.380  0.1655  0.3792  0.2029
15343TIP3    H267521   5.104   5.507  13.285 -0.7585  1.5145  0.5174
15344TIP3   OH267522   3.289   6.183  15.950 -0.3805 -0.7783 -0.0915
15344TIP3    H167523   3.205   6.222  15.928 -0.7856 -1.3443  0.4356
15344TIP3    H267524   3.327   6.243  16.014 -1.1056 -1.3458  0.8938
15345TIP3   OH267525   1.954   2.253   0.653 -0.4030 -0.4468 -0.2895
15345TIP3    H167526   2.019   2.278   0.719 -0.1295  1.3402 -1.1960
15345TIP3    H267527   2.004   2.210   0.584 -0.2916  0.2102 -0.6197
15346TIP3   OH267528   2.005   3.976  14.811 -0.0173  0.5930  0.3972
15346TIP3    H167529   1.989   3.897  14.758  1.7635  1.0631 -0.8949
15346TIP3    H267530   2.100   3.982  14.817 -0.1488  2.2368  1.1048
15347TIP3   OH267531   5.957   6.466   4.881  0.2024  0.7282 -0.0717
15347TIP3    H167532   5.891   6.526   4.916 -0.9487  0.3255 -1.5460
15347TIP3    H267533   5.940   6.383   4.925 -0.2233  0.6450 -0.3942
15348TIP3   OH267534   3.970   5.154   3.740  0.7132 -0.1212  0.6603
15348TIP3    H167535   4.000   5.241   3.716 -0.1756  0.1216  0.4130
15348TIP3    H267536   3.927   5.121   3.662 -0.7235  0.0181  1.3727
15349TIP3   OH267537   0.407   2.635  13.214 -0.2414  0.1648  0.5684
15349TIP3    H167538   0.367   2.641  13.301 -0.6202  0.0399  0.4053
15349TIP3    H267539   0.360   2.700  13.162  0.4253  0.6895  0.6246
15350TIP3   OH267540   5.147   2.957   0.228  0.8250  0.3301 -0.1929
15350TIP3    H167541   5.239   2.950   0.251  1.0688 -2.2567 -1.8337
15350TIP3    H267542   5.102   2.899   0.290  0.2685  1.6327  0.6482
15351TIP3   OH267543   4.660   1.218  10.521  0.0363 -0.2030  0.2662
15351TIP3    H167544   4.741   1.196  10.567  0.2634 -0.3437 -0.2039
15351TIP3    H267545   4.617   1.283  10.578 -0.6414 -1.8392  1.6545
15352TIP3   OH267546   1.317   4.638   2.852  0.2841 -0.9872  0.4097
15352TIP3    H167547   1.242   4.690   2.879  0.1828 -1.4288  0.9814
15352TIP3    H267548   1.302   4.621   2.759 -0.4413 -1.2799  0.5782
15353TIP3   OH267549   1.506   4.696  13.246 -0.3648 -0.1037 -0.0574
15353TIP3    H167550   1.567   4.758  13.285 -1.9895  0.4075  1.7328
15353TIP3    H267551   1.500   4.625  13.309 -0.9295 -0.5909 -0.6502
15354TIP3   OH267552   3.556   6.380  10.720 -0.0872  0.1009  0.1971
15354TIP3    H167553   3.549   6.420  10.634 -0.1553  1.5209  0.8370
15354TIP3    H267554   3.466   6.375  10.751  0.0617  1.1112  0.8349
15355TIP3   OH267555   0.069   4.476   0.805  0.2506 -0.0873 -0.0915
15355TIP3    H167556   0.164   4.487   0.800  0.3372 -0.3648  0.8342
15355TIP3    H267557   0.056   4.381   0.807  0.1243 -0.0486  2.4505
15356TIP3   OH267558   2.698   2.696  14.083  0.6068 -0.2480  0.2704
15356TIP3    H167559   2.652   2.677  14.165  1.4821  0.2313  0.8869
15356TIP3    H267560   2.745   2.615  14.062  1.7713  0.1669  1.1849
15357TIP3   OH267561   3.494   2.549  15.701  0.2420 -0.7319 -0.3416
15357TIP3    H167562   3.503   2.473  15.644 -1.4534 -1.0081 -0.2764
15357TIP3    H267563   3.417   2.595  15.667  1.3736  1.0726 -0.5020
15358TIP3   OH267564   5.361   2.130   2.139 -0.7935  0.3239 -0.1041
15358TIP3    H167565   5.348   2.066   2.209  0.8635  0.7893  0.6384
15358TIP3    H267566   5.355   2.079   2.059  0.0499 -0.6823  0.4688
15359TIP3   OH267567   0.783   2.930  12.162  0.4883  0.0039 -0.5303
15359TIP3    H167568   0.711   2.877  12.194  0.6999 -0.5049 -0.8881
15359TIP3    H267569   0.752   3.020  12.169  0.5647 -0.0926  1.1644
15360TIP3   OH267570   3.261   5.271  13.983 -0.4250  0.3021  1.0174
15360TIP3    H167571   3.231   5.339  13.924 -1.4961 -0.2026  0.9622
15360TIP3    H267572   3.294   5.318  14.060 -0.9647  0.8848  0.8887
15361TIP3   OH267573   1.353   4.765   1.157 -0.6946  0.6507  0.2048
15361TIP3    H167574   1.362   4.856   1.129  2.0536  0.3181 -0.0585
15361TIP3    H267575   1.442   4.735   1.173 -1.3782 -2.6998 -1.8300
15362TIP3   OH267576   4.153   1.776  14.959  0.0971  0.0797  0.1791
15362TIP3    H167577   4.191   1.831  14.890 -0.8063 -2.4083 -2.4048
15362TIP3    H267578   4.211   1.701  14.965 -0.7507 -0.5259  0.9171
15363TIP3   OH267579   6.514   5.827   1.120  0.0433 -0.5160  0.3473
15363TIP3    H167580   6.429   5.801   1.083 -0.4818  1.0941  0.4022
15363TIP3    H267581   6.575   5.761   1.087 -1.1393 -1.4005 -0.1068
15364TIP3   OH267582   3.954   0.051   4.976 -0.5442 -0.0291  0.4607
15364TIP3    H167583   3.934  -0.022   4.918  0.7951 -0.9736  1.1773
15364TIP3    H267584   4.007   0.013   5.046 -0.1807  1.5389  1.0567
15365TIP3   OH267585   3.069   5.059   1.241  0.1851 -0.0353 -0.8332
15365TIP3    H167586   3.057   4.995   1.171  0.8165  0.1194 -1.0863
15365TIP3    H267587   3.147   5.109   1.215  1.2994 -0.9362  0.7211
15366TIP3   OH267588   1.815   6.229  15.609  0.2975 -0.1216 -0.4177
15366TIP3    H167589   1.798   6.151  15.661  0.7898  0.5725  0.8106
15366TIP3    H267590   1.730   6.251  15.570  0.0275 -0.9152 -0.2781
15367TIP3   OH267591   6.723   6.100  14.490 -0.6050 -0.1782  0.8930
15367TIP3    H167592   6.667   6.023  14.496 -1.3951  0.1266 -1.5957
15367TIP3    H267593   6.799   6.071  14.439 -0.0906  0.2498  1.4084
15368TIP3   OH267594   3.831   4.697  13.886  0.4581  0.0193 -0.2579
15368TIP3    H167595   3.757   4.746  13.849  1.3363  2.3595  0.9938
15368TIP3    H267596   3.838   4.729  13.976  2.5957 -0.6539 -0.1601
15369TIP3   OH267597   3.344   3.694  14.342 -0.2256  0.0908  0.6523
15369TIP3    H167598   3.352   3.620  14.282 -2.6314 -0.8448  1.4195
15369TIP3    H267599   3.367   3.657  14.428 -1.2221  0.2791  1.0052
15370TIP3   OH267600   1.841   3.768  15.754 -0.3190 -0.0060  1.1167
15370TIP3    H167601   1.896   3.711  15.808  0.2411 -0.5467 -0.0218
15370TIP3    H267602   1.901   3.835  15.721  0.0438 -1.5636 -1.5069
15371TIP3   OH267603   4.716   4.212   1.228  0.3949 -0.0684  0.1324
15371TIP3    H167604   4.624   4.201   1.204  1.3458 -0.4674 -3.7274
15371TIP3    H267605   4.744   4.126   1.257 -0.1637 -0.2167  0.2358
15372TIP3   OH267606   4.604   4.522  14.384 -0.0385  0.0608  0.2268
15372TIP3    H167607   4.539   4.585  14.415  0.6512  0.2194  1.3865
15372TIP3    H267608   4.620   4.465  14.460  3.8389  2.2436  1.1803
15373TIP3   OH267609   4.086   1.394  16.664  0.1828 -0.1959 -0.1222
15373TIP3    H167610   4.062   1.310  16.704  1.5258 -0.8663 -0.7025
15373TIP3    H267611   4.172   1.378  16.626  0.3194  1.3795 -0.4727
15374TIP3   OH267612   5.228   5.208   1.740 -0.3032 -0.3365 -0.8775
15374TIP3    H167613   5.301   5.247   1.788 -1.5893  0.9619  0.0323
15374TIP3    H267614   5.227   5.254   1.656 -0.5618  0.1802 -0.5897
15375TIP3   OH267615   4.018   4.399  14.828 -0.0726  0.2296  0.3715
15375TIP3    H167616   3.945   4.392  14.766 -0.3600  2.2847  0.4697
15375TIP3    H267617   4.096   4.388  14.774 -0.2671  3.2277 -0.5937
15376TIP3   OH267618   3.876   6.802  12.264 -0.5714 -0.2466 -0.4808
15376TIP3    H167619   3.893   6.803  12.358 -2.4064 -1.4722 -0.1183
15376TIP3    H267620   3.943   6.860  12.227  0.5736 -0.2666  1.4968
15377TIP3   OH267621   3.560   1.172   0.637  0.0972 -0.4234  0.1726
15377TIP3    H167622   3.624   1.241   0.655  0.1064 -0.3664 -0.0768
15377TIP3    H267623   3.486   1.218   0.598  0.4799 -0.6745 -0.8691
15378TIP3   OH267624   2.814   6.017   3.971  0.2942  0.3145  0.1167
15378TIP3    H167625   2.906   6.020   3.999  0.5960 -0.0305 -0.8130
15378TIP3    H267626   2.797   6.103   3.934  0.2879  0.3391  0.1778
15379TIP3   OH267627   0.047   2.829  12.151 -0.3427  0.6296  0.2950
15379TIP3    H167628   0.072   2.875  12.070  1.0136 -0.0746  0.3001
15379TIP3    H267629   0.095   2.875  12.220 -1.0922  0.8957  0.6476
15380TIP3   OH267630   3.820   4.127   1.385  0.1069 -0.1512 -0.2620
15380TIP3    H167631   3.795   4.071   1.458 -1.5125 -0.0771 -0.7343
15380TIP3    H267632   3.901   4.090   1.352  1.1150  0.1159  1.8793
15381TIP3   OH267633   1.575   1.960  16.124 -0.8052 -0.1662 -0.0466
15381TIP3    H167634   1.646   2.021  16.145 -2.0431  1.4032 -0.3037
15381TIP3    H267635   1.574   1.956  16.028 -1.1197 -0.1115 -0.0473
15382TIP3   OH267636   5.866   4.349   5.255 -0.3875  0.0012 -0.3941
15382TIP3    H167637   5.773   4.349   5.280 -0.5698 -0.8285 -1.0410
15382TIP3    H267638   5.865   4.327   5.162  0.4768 -0.2589 -0.3442
15383TIP3   OH267639   4.692   6.245   1.224 -0.1267  0.4318  0.6487
15383TIP3    H167640   4.654   6.208   1.145 -0.4033  1.2289  0.4024
15383TIP3    H267641   4.630   6.313   1.252  0.4059  0.7699  1.0428
15384TIP3   OH267642   0.916   0.866  13.012  0.2324  0.0461  0.2523
15384TIP3    H167643   0.882   0.792  12.961  0.1335  0.6702 -0.6037
15384TIP3    H267644   0.838   0.911  13.045  0.2264  1.0508 -1.0957
15385TIP3   OH267645   0.777   6.632   1.210 -0.1128  0.0918 -0.1258
15385TIP3    H167646   0.803   6.641   1.119 -0.9551 -1.0575 -0.4933
15385TIP3    H267647   0.746   6.719   1.236  2.1831  0.9831 -0.2615
15386TIP3   OH267648   1.432   2.136   5.795 -0.1745 -0.1763  0.4871
15386TIP3    H167649   1.464   2.215   5.752  0.0470  0.1575  1.2504
15386TIP3    H267650   1.476   2.136   5.880  0.3311 -1.4730  0.2274
15387TIP3   OH267651   3.726   0.579  16.282  0.3834  0.4308 -0.0688
15387TIP3    H167652   3.736   0.504  16.224 -0.4631  0.8436 -0.7706
15387TIP3    H267653   3.737   0.655  16.224 -0.4334  0.8471  0.3062
15388TIP3   OH267654   0.979   1.789  13.541 -0.2915  0.0349 -0.1324
15388TIP3    H167655   1.021   1.735  13.474 -1.6085 -0.6268 -0.4509
15388TIP3    H267656   0.972   1.876  13.501 -1.4937 -0.4686 -1.0486
15389TIP3   OH267657   5.652   5.061  14.777 -0.0975  0.3838  0.5469
15389TIP3    H167658   5.634   5.143  14.731  1.3571 -0.3121 -1.3280
15389TIP3    H267659   5.741   5.038  14.750  1.1875  0.4033  4.4617
15390TIP3   OH267660   4.388   4.188   1.769  0.5555 -0.4978 -0.4686
15390TIP3    H167661   4.374   4.279   1.743  3.8328  0.2290  0.1347
15390TIP3    H267662   4.421   4.145   1.690 -1.3914 -1.3176 -0.8751
15391TIP3   OH267663   1.985   0.570  15.511 -0.7609 -0.6144 -0.4595
15391TIP3    H167664   1.932   0.492  15.530 -0.0149 -0.9199  0.3743
15391TIP3    H267665   2.033   0.547  15.431 -0.2350 -1.1733  0.0084
15392TIP3   OH267666   3.939   4.831  14.779  0.0579 -0.3360 -0.0289
15392TIP3    H167667   3.924   4.785  14.862  2.3033 -2.3604 -0.6766
15392TIP3    H267668   3.950   4.761  14.715  0.6974  1.1850 -1.6076
15393TIP3   OH267669   2.527   5.835   0.080 -0.2338  0.2474  0.0038
15393TIP3    H167670   2.488   5.808   0.163  1.4596  1.5759  1.2832
15393TIP3    H267671   2.453   5.850   0.022 -1.4745  0.0090  1.5032
15394TIP3   OH267672   6.557   6.778   1.031 -0.3601  0.3964  0.6315
15394TIP3    H167673   6.549   6.684   1.015  0.7287  0.2096  1.1622
15394TIP3    H267674   6.467   6.811   1.027 -0.4913 -0.1622 -2.6015
15395TIP3   OH267675   2.925   6.727   5.412  0.3793 -0.1595 -0.1231
15395TIP3    H167676   2.998   6.789   5.403 -0.0413  0.4506  0.5897
15395TIP3    H267677   2.967   6.641   5.413  1.1108  0.1964  0.4216
15396TIP3   OH267678   0.484   4.534  16.166 -0.3122  0.0927 -0.2121
15396TIP3    H167679   0.464   4.463  16.227  0.2820 -0.5946 -0.8091
15396TIP3    H267680   0.560   4.503  16.117 -2.0768 -0.3514 -2.8262
15397TIP3   OH267681   2.847   6.780   4.870  0.3865  0.0119 -0.3495
15397TIP3    H167682   2.941   6.760   4.868  0.8806  1.5748  2.9581
15397TIP3    H267683   2.826   6.787   4.964 -2.2596  3.1280 -1.0620
15398TIP3   OH267684   3.223   3.021  17.218  0.4799 -0.1308 -0.5198
15398TIP3    H167685   3.283   3.079  17.264 -0.9911  2.5880 -1.9093
15398TIP3    H267686   3.264   3.007  17.132  0.9966 -1.4535 -0.0650
15399TIP3   OH267687   1.343   6.210  12.781 -0.1326 -0.9549  0.0607
15399TIP3    H167688   1.383   6.243  12.700 -0.7434 -0.1395  0.0788
15399TIP3    H267689   1.302   6.128  12.756  1.5919 -1.8389  0.0540
15400TIP3   OH267690   4.000   6.431  11.422  0.1687 -0.1151 -0.4878
15400TIP3    H167691   3.964   6.510  11.383  1.4772  0.2926 -0.8894
15400TIP3    H267692   4.016   6.453  11.513 -2.0334 -0.7821  0.0742
15401TIP3   OH267693   6.242   0.177   0.833 -0.0724  0.1483  0.3222
15401TIP3    H167694   6.271   0.268   0.841  0.5511  0.0356 -0.5607
15401TIP3    H267695   6.283   0.146   0.752 -0.4006 -0.8756  0.5437
15402TIP3   OH267696   4.108   2.972   1.528  0.2114 -0.2955 -0.1070
15402TIP3    H167697   4.191   2.961   1.481 -1.0134 -2.2384 -1.8946
15402TIP3    H267698   4.058   3.034   1.474 -0.0225 -0.1679  0.2525
15403TIP3   OH267699   0.898   0.231   5.288  0.0578 -0.2275  0.0826
15403TIP3    H167700   0.981   0.259   5.326 -1.3626  0.7649  2.5834
15403TIP3    H267701   0.860   0.311   5.251 -0.0484 -0.5733 -0.5683
15404TIP3   OH267702   3.229   2.666   3.662 -0.5362 -0.6373 -0.3478
15404TIP3    H167703   3.199   2.669   3.571 -0.7938  0.1409 -0.2428
15404TIP3    H267704   3.154   2.698   3.713 -0.0163 -0.0054  0.0372
15405TIP3   OH267705   5.531   1.839  14.404 -0.3366 -0.2117  0.1350
15405TIP3    H167706   5.538   1.915  14.346 -1.7962 -0.0943  0.1125
15405TIP3    H267707   5.622   1.820  14.427  0.1658  0.6225 -1.0400
15406TIP3   OH267708   3.854   0.529  12.154 -0.1366  0.2590 -0.4814
15406TIP3    H167709   3.867   0.503  12.063  1.1171  0.0999 -0.2705
15406TIP3    H267710   3.769   0.571  12.155 -0.6785 -0.7811 -1.5010
15407TIP3   OH267711   6.457   1.617   1.386 -0.0619  0.5862  0.0062
15407TIP3    H167712   6.375   1.574   1.410  0.2408  0.3204  0.5733
15407TIP3    H267713   6.516   1.545   1.362  0.3381  0.7070  0.6288
15408TIP3   OH267714   4.582   0.149  11.213  0.1890  0.9131 -0.0308
15408TIP3    H167715   4.560   0.100  11.133 -1.6111 -1.0809  1.6448
15408TIP3    H267716   4.656   0.103  11.250 -0.3269  0.5772  0.5771
15409TIP3   OH267717   5.714   2.561   3.869  0.2645 -0.8612 -0.0650
15409TIP3    H167718   5.728   2.558   3.963  0.9014  1.0021 -0.0863
15409TIP3    H267719   5.775   2.495   3.834  0.7206 -0.8658  0.7414
15410TIP3   OH267720   0.912   3.673   2.817 -0.4349 -0.1508  0.1738
15410TIP3    H167721   0.895   3.689   2.724  1.9240  2.9117  0.1634
15410TIP3    H267722   1.007   3.657   2.821 -0.3605  0.6923  2.1333
15411TIP3   OH267723   5.026   3.748  17.171 -0.1899  0.6982  0.1238
15411TIP3    H167724   5.062   3.804  17.240 -1.9699  0.6141  1.1303
15411TIP3    H267725   4.949   3.796  17.140  0.0389  0.2611 -1.1411
15412TIP3   OH267726   4.649   2.969   2.961  0.3968 -0.2354  0.0282
15412TIP3    H167727   4.692   2.893   2.921  1.1279 -0.3246  0.9729
15412TIP3    H267728   4.714   3.039   2.955 -0.9936  0.9013 -2.6456
15413TIP3   OH267729   5.678   1.467  16.375 -0.1012  0.0520 -0.6964
15413TIP3    H167730   5.692   1.381  16.335  0.9971  1.1237 -2.7078
15413TIP3    H267731   5.585   1.484  16.365 -0.3015 -0.8633 -0.3854
15414TIP3   OH267732   1.806   2.635  17.284  0.4737 -0.3734  0.4165
15414TIP3    H167733   1.832   2.629  17.377 -0.3076  1.9336  0.8097
15414TIP3    H267734   1.721   2.592  17.280  0.2216  0.0764  0.8991
15415TIP3   OH267735   3.557   0.336  13.309 -0.4911  0.0540 -0.2543
15415TIP3    H167736   3.630   0.274  13.315 -0.9978 -0.4477  0.8060
15415TIP3    H267737   3.566   0.391  13.387 -0.7983  0.4940 -0.5272
15416TIP3   OH267738   5.083   6.202   2.072  0.0394  0.8836  0.2521
15416TIP3    H167739   5.045   6.176   1.989  1.5363  2.6156 -1.0280
15416TIP3    H267740   5.049   6.290   2.088  0.5775  0.9742  0.9319
15417TIP3   OH267741   0.600   5.042  11.182 -0.0140 -0.2945 -0.3728
15417TIP3    H167742   0.610   4.954  11.218  0.6261  0.2171  0.7441
15417TIP3    H267743   0.665   5.094  11.229 -1.1147  1.0000 -0.2593
15418TIP3   OH267744   6.748   5.714  11.032 -0.3983 -0.4844  0.4287
15418TIP3    H167745   6.777   5.677  11.116 -0.1027  0.6562  0.8348
15418TIP3    H267746   6.806   5.673  10.967  1.1788  0.6779  1.0780
15419TIP3   OH267747   3.713   5.622  16.084 -0.7072  0.1445 -0.1536
15419TIP3    H167748   3.664   5.617  16.166 -0.4409 -1.9400 -0.1148
15419TIP3    H267749   3.699   5.712  16.054 -1.8155  0.5601  1.5420
15420TIP3   OH267750   3.186   1.101   5.345  0.3085 -0.0656 -0.0366
15420TIP3    H167751   3.261   1.044   5.327 -0.7749 -1.5608  0.1436
15420TIP3    H267752   3.144   1.064   5.422 -0.6158  0.7703 -0.1183
15421TIP3   OH267753   4.876   3.871  11.813  0.9066 -0.0726  0.5941
15421TIP3    H167754   4.853   3.863  11.720 -1.1623  0.9642  0.9972
15421TIP3    H267755   4.803   3.832  11.860  0.6358  1.9122  1.8754
15422TIP3   OH267756   6.536   0.486   3.383  0.5440  0.1252  0.1795
15422TIP3    H167757   6.481   0.413   3.411 -0.2104  1.0905  1.2975
15422TIP3    H267758   6.494   0.563   3.421  2.8378  0.8609  1.3442
15423TIP3   OH267759   0.599   6.441  12.191 -0.1967  0.7167 -0.1465
15423TIP3    H167760   0.566   6.479  12.109  3.2777  1.8135 -1.1365
15423TIP3    H267761   0.568   6.501  12.259 -0.9932  1.2037 -0.9232
15424TIP3   OH267762   0.624   5.890  17.017 -0.5797  0.6838 -0.2722
15424TIP3    H167763   0.661   5.975  17.044  0.2921  0.0717  0.4847
15424TIP3    H267764   0.687   5.856  16.953  0.2013 -0.3803  1.0507
15425TIP3   OH267765   5.692   1.574  12.778  0.1046 -0.1094 -0.0729
15425TIP3    H167766   5.687   1.670  12.775 -1.7010 -0.1044  1.9741
15425TIP3    H267767   5.616   1.545  12.727  0.8751 -0.4769 -1.0273
15426TIP3   OH267768   5.062   4.605  16.673  0.1733  0.1005  0.5509
15426TIP3    H167769   4.996   4.656  16.722 -1.2277  0.0603 -1.2263
15426TIP3    H267770   5.110   4.671  16.624 -0.9523 -0.1734 -0.9448
15427TIP3   OH267771   6.801   1.703  14.157 -0.1852  0.0445  0.2512
15427TIP3    H167772   6.717   1.737  14.126 -0.3042 -0.7564 -0.3351
15427TIP3    H267773   6.815   1.746  14.241 -1.6925 -0.6191  0.8611
15428TIP3   OH267774   4.758   0.155  10.686  0.3365  0.5564 -0.0983
15428TIP3    H167775   4.733   0.193  10.770  1.4886 -0.8052  0.8930
15428TIP3    H267776   4.772   0.230  10.628 -0.0829  1.5240  1.0391
15429TIP3   OH267777   4.299   5.162   3.800 -0.0397  0.4373  0.3713
15429TIP3    H167778   4.218   5.206   3.827  0.0405 -1.1905  3.4030
15429TIP3    H267779   4.269   5.083   3.754 -0.1504  1.0058 -0.5543
15430TIP3   OH267780   1.470   0.448  13.699  0.5062 -0.5323  0.7270
15430TIP3    H167781   1.465   0.484  13.788 -2.2526 -1.4833  1.0165
15430TIP3    H267782   1.525   0.370  13.708  2.4721  0.8640  1.0462
15431TIP3   OH267783   3.921   6.712  15.346 -0.2347  0.1423 -0.4141
15431TIP3    H167784   3.869   6.656  15.403 -0.8872  1.6101  0.4604
15431TIP3    H267785   3.896   6.801  15.370  3.7029  0.9704  1.0933
15432TIP3   OH267786   4.228   1.019   1.614  0.2540  0.1529  0.3359
15432TIP3    H167787   4.268   1.100   1.582  2.2573 -0.6558  0.6929
15432TIP3    H267788   4.267   0.950   1.561 -1.5962 -0.5816 -0.1113
15433TIP3   OH267789   6.686   5.864  12.924  0.4200 -0.2776 -0.5602
15433TIP3    H167790   6.752   5.910  12.976 -0.0377  0.8816 -0.9835
15433TIP3    H267791   6.689   5.907  12.839  0.0919 -1.1493 -1.0213
15434TIP3   OH267792   5.470   5.032   3.525 -0.4034  0.6917 -0.7837
15434TIP3    H167793   5.481   4.984   3.443 -0.8178  0.2407 -0.5770
15434TIP3    H267794   5.383   5.008   3.556  0.0352  0.2561  0.1633
15435TIP3   OH267795   4.790   2.475  13.083  0.1661 -0.1026  0.1507
15435TIP3    H167796   4.828   2.520  13.158  0.9828 -1.1169  0.3648
15435TIP3    H267797   4.719   2.532  13.054  0.2670  0.6175  1.2822
15436TIP3   OH267798   3.799   2.372   6.047  0.2968  0.3475  0.2230
15436TIP3    H167799   3.730   2.328   6.098 -0.9817 -0.3285 -2.0278
15436TIP3    H267800   3.795   2.463   6.075 -2.3086  0.5473 -0.6973
15437TIP3   OH267801   1.760   1.504  16.806 -0.2526 -0.1849  0.3324
15437TIP3    H167802   1.814   1.426  16.812 -0.0471  0.0215  1.2898
15437TIP3    H267803   1.743   1.515  16.712  1.0665 -0.4409  0.0604
15438TIP3   OH267804   2.250   3.335   2.767 -0.1016 -0.2627  0.0757
15438TIP3    H167805   2.292   3.356   2.850 -0.3135  0.5441 -0.0235
15438TIP3    H267806   2.301   3.381   2.701  0.4970 -1.4733 -0.3228
15439TIP3   OH267807   3.862   3.349  12.071 -0.3044 -0.1540  0.3574
15439TIP3    H167808   3.942   3.388  12.106  0.6406  0.1541 -2.0290
15439TIP3    H267809   3.834   3.409  12.002 -0.0487 -2.5104 -1.8889
15440TIP3   OH267810   5.214   5.022  16.891 -0.7639  0.2490  0.3162
15440TIP3    H167811   5.253   5.109  16.896  0.6251 -0.4318  1.6825
15440TIP3    H267812   5.282   4.967  16.855 -1.2172 -0.5095  0.6047
15441TIP3   OH267813   0.815   5.412   6.099  0.3719 -0.0030  0.3695
15441TIP3    H167814   0.741   5.403   6.161 -1.0228  1.9059 -0.9677
15441TIP3    H267815   0.891   5.423   6.156 -0.7606  0.8239  1.7990
15442TIP3   OH267816   5.023   0.666  12.361 -0.6377 -0.1568  0.1138
15442TIP3    H167817   5.098   0.626  12.405 -1.4575 -1.7797  0.0783
15442TIP3    H267818   5.049   0.671  12.269  0.8759  2.7597  0.6510
15443TIP3   OH267819   0.226   2.815  15.048  0.1628  0.0587  0.3195
15443TIP3    H167820   0.254   2.870  15.122  3.0203 -0.9794  0.0605
15443TIP3    H267821   0.293   2.747  15.042 -0.2737 -0.1619 -2.9364
15444TIP3   OH267822   5.852   4.791  17.030 -0.0921  0.3707  0.4234
15444TIP3    H167823   5.846   4.780  17.125  3.3272  1.9743  0.9187
15444TIP3    H267824   5.870   4.702  16.997  0.4960  0.0833  1.4898
15445TIP3   OH267825   5.091   5.026  14.032 -0.5955  0.0856 -0.0616
15445TIP3    H167826   5.032   5.090  13.992 -1.7046 -0.9984 -0.2087
15445TIP3    H267827   5.075   4.945  13.983  0.2080 -0.5021  0.6314
15446TIP3   OH267828   3.420   3.297  11.266  0.3177  0.2686  0.4068
15446TIP3    H167829   3.404   3.383  11.226  1.3673 -0.4718 -1.6504
15446TIP3    H267830   3.334   3.256  11.269  0.0100  0.8934  0.1929
15447TIP3   OH267831   2.281   4.701   4.354 -0.1320  0.3182  0.1261
15447TIP3    H167832   2.270   4.764   4.426 -1.1780 -0.3180  0.5240
15447TIP3    H267833   2.376   4.700   4.339 -0.1602  2.6302 -0.4799
15448TIP3   OH267834   3.476   6.165  13.744 -0.2684  0.0972  0.1861
15448TIP3    H167835   3.551   6.224  13.734 -1.0015  1.3572  1.9152
15448TIP3    H267836   3.490   6.124  13.829 -0.5646 -1.0901 -0.3385
15449TIP3   OH267837   2.145   3.404  14.862  0.2632 -0.2005 -0.1374
15449TIP3    H167838   2.108   3.342  14.798  2.7221 -2.1414  0.1966
15449TIP3    H267839   2.233   3.369  14.879  0.6072  1.7702  2.3318
15450TIP3   OH267840   1.645   2.651  15.353  0.3166  0.1512  0.0510
15450TIP3    H167841   1.688   2.566  15.343  0.4863  0.0344  1.6033
15450TIP3    H267842   1.561   2.641  15.310  0.6089 -0.5967 -0.3573
15451TIP3   OH267843   2.743   4.069   3.872 -0.0626 -0.2272 -0.3390
15451TIP3    H167844   2.825   4.103   3.835 -0.0172  0.7952  0.6746
15451TIP3    H267845   2.706   4.143   3.919 -0.8686 -1.1007  0.4138
15452TIP3   OH267846   6.412   4.211  13.957  0.1931 -0.3492 -0.1164
15452TIP3    H167847   6.388   4.241  14.045 -1.0205 -0.1808 -0.4972
15452TIP3    H267848   6.471   4.279  13.924  0.2441 -0.1507  0.3797
15453TIP3   OH267849   2.130   6.256  13.326  0.4746 -0.3151  0.1871
15453TIP3    H167850   2.071   6.310  13.273  1.8927  1.1290  0.0246
15453TIP3    H267851   2.157   6.186  13.266  1.8535  1.1526 -0.9521
15454TIP3   OH267852   6.058   1.270   1.003  0.4461  0.0943  0.3133
15454TIP3    H167853   6.064   1.356   0.961  0.5084 -0.7934 -1.5581
15454TIP3    H267854   6.111   1.213   0.947 -2.9325 -2.0545 -0.8167
15455TIP3   OH267855   3.123   2.499  11.605  0.0038 -0.2032  0.3214
15455TIP3    H167856   3.110   2.573  11.664  0.3751  1.3345 -1.4814
15455TIP3    H267857   3.049   2.440  11.624 -1.3216  1.4787  0.4887
15456TIP3   OH267858   0.378   0.819  11.783 -0.5016  0.2703 -0.5771
15456TIP3    H167859   0.297   0.781  11.817 -0.3877 -0.1291 -0.7602
15456TIP3    H267860   0.402   0.765  11.708  0.8779 -0.6879  0.5335
15457TIP3   OH267861   2.245   4.912   6.280 -0.1792 -0.1774  0.1262
15457TIP3    H167862   2.188   4.936   6.352 -0.0711 -1.2529  0.5734
15457TIP3    H267863   2.334   4.929   6.313 -0.2300  1.7919 -0.6790
15458TIP3   OH267864   5.674   5.789   0.384  0.7592 -0.0632 -0.3436
15458TIP3    H167865   5.655   5.823   0.296  0.4575 -0.4005 -0.4090
15458TIP3    H267866   5.629   5.705   0.387 -0.6250  0.7026  0.7360
15459TIP3   OH267867   5.008   3.011  16.327 -0.5091  0.0893  0.2834
15459TIP3    H167868   4.916   2.987  16.326 -0.3853 -0.6052  2.4870
15459TIP3    H267869   5.032   3.017  16.235 -2.5812 -0.3815 -0.3150
15460TIP3   OH267870   3.263   3.883   3.422  0.0429 -0.1398 -0.7099
15460TIP3    H167871   3.214   3.803   3.439 -0.4952 -0.0058 -1.5631
15460TIP3    H267872   3.345   3.853   3.383 -0.7112 -0.2301 -2.2666
15461TIP3   OH267873   3.112   6.009   2.988  0.8425  0.5849 -0.1988
15461TIP3    H167874   3.031   6.059   2.999  1.1540  0.7432  1.4392
15461TIP3    H267875   3.175   6.073   2.952  0.6649  0.8405 -0.0522
15462TIP3   OH267876   1.577   6.737   5.323  0.2477 -0.2191 -0.3695
15462TIP3    H167877   1.623   6.657   5.347  1.9184  0.8463  0.1271
15462TIP3    H267878   1.555   6.778   5.407 -1.3134 -0.5599 -0.6152
15463TIP3   OH267879   1.887   4.700   1.917 -0.8102 -0.4340 -0.0195
15463TIP3    H167880   1.917   4.787   1.942  0.6955 -0.4535 -1.6684
15463TIP3    H267881   1.843   4.714   1.833 -0.3071 -1.3015 -0.4302
15464TIP3   OH267882   2.462   5.508  15.437  0.4817 -0.4253  0.1481
15464TIP3    H167883   2.407   5.432  15.455 -0.4224  0.1889  0.0288
15464TIP3    H267884   2.400   5.579  15.421  1.3086  0.4458  0.7162
15465TIP3   OH267885   1.327   6.446  11.974  0.2855  0.0109 -0.6766
15465TIP3    H167886   1.261   6.484  12.031  1.0105 -0.1273  0.2725
15465TIP3    H267887   1.370   6.522  11.933 -1.0785  0.0726 -2.0203
15466TIP3   OH267888   0.147   3.156   5.420 -0.0815  0.3236  0.4332
15466TIP3    H167889   0.152   3.219   5.491  1.3253  0.4518  0.2351
15466TIP3    H267890   0.067   3.107   5.436  0.5151 -0.0196  2.4249
15467TIP3   OH267891   4.950   3.003   1.536  0.1327 -0.1640 -0.1001
15467TIP3    H167892   5.042   3.028   1.525 -0.0593  0.9887  0.7662
15467TIP3    H267893   4.949   2.908   1.524  1.1592  0.0324 -1.8056
15468TIP3   OH267894   2.611   3.107   0.198  0.0821 -0.0595 -0.8566
15468TIP3    H167895   2.572   3.129   0.114 -0.8673  0.1853 -0.3600
15468TIP3    H267896   2.653   3.187   0.228 -1.6344  0.5556  0.0038
15469TIP3   OH267897   1.440   5.416  16.271  0.3441  0.2065  0.8086
15469TIP3    H167898   1.445   5.320  16.270  0.1627  0.1890 -2.2473
15469TIP3    H267899   1.527   5.444  16.297  0.6948 -0.7869  0.7277
15470TIP3   OH267900   6.641   3.027   1.814 -0.1750 -0.7612  0.6952
15470TIP3    H167901   6.572   3.018   1.880 -1.6288  0.5965 -0.5865
15470TIP3    H267902   6.600   3.001   1.732  0.9921 -0.4400 -0.0109
15471TIP3   OH267903   1.468   4.416  16.299 -0.0939  0.1513 -0.4539
15471TIP3    H167904   1.508   4.496  16.335  1.9706 -0.7810 -0.6201
15471TIP3    H267905   1.537   4.377  16.245 -1.4147 -1.2411 -1.1668
15472TIP3   OH267906   3.574   5.692  11.030 -0.1994 -0.3962  0.1608
15472TIP3    H167907   3.489   5.682  11.072 -1.0474 -0.4096 -1.5245
15472TIP3    H267908   3.554   5.701  10.936  1.6028  0.2564 -0.1814
15473TIP3   OH267909   6.516   4.072   2.952 -0.6742 -0.4810  0.4069
15473TIP3    H167910   6.498   4.078   2.858 -1.1531  0.0785  0.5313
15473TIP3    H267911   6.602   4.114   2.962  0.1465 -2.0321 -0.0084
15474TIP3   OH267912   5.951   5.582  14.054 -0.0507  0.6038 -0.5251
15474TIP3    H167913   6.023   5.628  14.011 -0.9711  1.9709 -0.6452
15474TIP3    H267914   5.874   5.636  14.034 -0.8117  0.1243  1.0947
15475TIP3   OH267915   5.528   1.309  12.346 -0.2553  0.1409 -0.7724
15475TIP3    H167916   5.506   1.400  12.363  1.1078  0.1668  1.0762
15475TIP3    H267917   5.555   1.275  12.432 -1.5550 -2.2315 -1.2703
15476TIP3   OH267918   2.441   0.953  16.494  0.5944 -0.3737  0.2128
15476TIP3    H167919   2.455   0.858  16.486  0.8856 -0.2594 -0.7197
15476TIP3    H267920   2.520   0.992  16.458  0.4748  0.2240  0.6038
15477TIP3   OH267921   3.319   6.278  14.543 -0.0064 -0.2868  0.0362
15477TIP3    H167922   3.274   6.357  14.514 -1.0626 -0.7709  0.2942
15477TIP3    H267923   3.401   6.308  14.581 -0.0417  0.6114 -0.6140
15478TIP3   OH267924   3.735   4.605  15.892 -0.5925  0.2157  0.1139
15478TIP3    H167925   3.715   4.519  15.855 -0.9531 -0.0562  0.9473
15478TIP3    H267926   3.658   4.628  15.944  1.4367 -1.1694  3.9452
15479TIP3   OH267927   5.907   3.894  14.476 -0.1422 -0.1953  0.4760
15479TIP3    H167928   5.967   3.933  14.412 -0.3185 -1.8911 -0.7392
15479TIP3    H267929   5.838   3.855  14.424 -1.3683  0.1464  1.8034
15480TIP3   OH267930   1.872   1.221  12.610  0.4065 -0.4164  0.2494
15480TIP3    H167931   1.784   1.199  12.641  0.9432  0.0471  2.1335
15480TIP3    H267932   1.917   1.255  12.687  2.5130 -1.4134 -0.4971
15481TIP3   OH267933   2.031   6.579  14.209  0.8073  0.0471 -0.4206
15481TIP3    H167934   2.114   6.607  14.171 -0.1497  0.5404 -2.2020
15481TIP3    H267935   2.036   6.483  14.212  1.8090  0.1210  0.3611
15482TIP3   OH267936   4.501   1.204   3.585 -0.1858 -0.1429  0.3231
15482TIP3    H167937   4.476   1.293   3.562 -0.0522  0.1677  1.3979
15482TIP3    H267938   4.505   1.158   3.500 -3.1005  0.1098  0.0073
15483TIP3   OH267939   4.417   2.908  13.116  0.0605 -0.2008  0.1133
15483TIP3    H167940   4.340   2.883  13.066  0.3456  0.2888 -0.5688
15483TIP3    H267941   4.409   2.858  13.198 -1.6196  0.7876  0.5855
15484TIP3   OH267942   2.629   1.084  11.772  0.1180  0.7136 -0.2748
15484TIP3    H167943   2.662   0.997  11.791 -1.1755  0.4853  1.0301
15484TIP3    H267944   2.671   1.108  11.689  1.7531 -0.4616  0.1774
15485TIP3   OH267945   1.459   2.715  12.622  0.2977 -0.5409  0.0302
15485TIP3    H167946   1.540   2.706  12.571  0.3592 -2.7252  0.4301
15485TIP3    H267947   1.488   2.750  12.707  0.3877  1.7057 -0.9207
15486TIP3   OH267948   5.830   5.841  10.575  0.1136  0.3097 -0.1597
15486TIP3    H167949   5.762   5.778  10.595  0.2866  0.5218  1.1895
15486TIP3    H267950   5.785   5.913  10.532 -0.8323  1.2292  2.2894
15487TIP3   OH267951   3.653   1.859   4.791 -0.5490  0.0971 -0.6690
15487TIP3    H167952   3.658   1.794   4.861 -1.3459  1.9713  1.1992
15487TIP3    H267953   3.687   1.814   4.714 -0.6727 -2.3771  0.6583
15488TIP3   OH267954   1.860   2.218  15.668 -0.8644  0.1563 -0.3183
15488TIP3    H167955   1.933   2.234  15.728 -1.5682 -0.0169  0.6002
15488TIP3    H267956   1.835   2.127  15.685 -1.1933  0.1715 -0.7218
15489TIP3   OH267957   5.827   1.103  14.418 -0.5340  0.3542  0.7680
15489TIP3    H167958   5.804   1.176  14.475 -2.6130 -0.1198  0.6041
15489TIP3    H267959   5.765   1.110  14.345  1.5403  0.4649 -1.0265
15490TIP3   OH267960   2.671   0.531   5.308  0.5505  0.6153  0.0272
15490TIP3    H167961   2.604   0.589   5.344  0.6609  1.9288 -1.7588
15490TIP3    H267962   2.754   0.578   5.322  0.5542  1.3505 -2.2174
15491TIP3   OH267963   1.915   6.060   5.888 -0.7649 -0.3608 -0.1610
15491TIP3    H167964   1.838   6.081   5.942 -1.2004  1.0086 -1.2833
15491TIP3    H267965   1.976   6.018   5.949 -1.0986  1.4822  1.4972
15492TIP3   OH267966   4.696   4.863  16.755 -0.2110 -0.6158 -0.2725
15492TIP3    H167967   4.648   4.848  16.837  0.9918  1.7751  0.9148
15492TIP3    H267968   4.638   4.919  16.703  1.3664  2.5664  1.3059
15493TIP3   OH267969   5.120   4.556  13.868  0.4796  0.3175 -0.0716
15493TIP3    H167970   5.193   4.495  13.876 -1.7044 -2.3121  0.8953
15493TIP3    H267971   5.125   4.609  13.947  0.2703 -1.1456  0.9578
15494TIP3   OH267972   6.164   3.281   1.050  0.4951 -0.1423  0.5456
15494TIP3    H167973   6.076   3.289   1.085 -0.0887  0.2544 -0.9586
15494TIP3    H267974   6.163   3.200   1.000  0.6214  0.4604 -0.4487
15495TIP3   OH267975   2.853   3.278   1.420 -0.7116 -0.3688  0.4470
15495TIP3    H167976   2.827   3.247   1.333  1.0388  0.3354 -0.3457
15495TIP3    H267977   2.824   3.370   1.421 -0.6115 -0.3395  0.5640
15496TIP3   OH267978   2.346   6.359   0.006  0.2409 -0.0255 -0.0817
15496TIP3    H167979   2.396   6.440   0.019  0.1543 -0.0563  0.4341
15496TIP3    H267980   2.404   6.304  -0.048  0.3803  0.3029 -0.2679
15497TIP3   OH267981   0.970   0.866  11.440  0.2387 -0.1057  0.1721
15497TIP3    H167982   0.967   0.797  11.375  0.4908  0.1505 -0.1140
15497TIP3    H267983   1.044   0.921  11.414  0.6861 -0.3037  0.9800
15498TIP3   OH267984   5.189   4.488  16.873 -0.0848  0.0632  0.4870
15498TIP3    H167985   5.244   4.418  16.838  0.3918  0.9033 -0.4451
15498TIP3    H267986   5.120   4.500  16.808 -0.0475  0.6133  0.5510
15499TIP3   OH267987   6.762   5.536   3.840  0.0379 -0.4327  0.2343
15499TIP3    H167988   6.691   5.545   3.902  0.3586 -0.2520  0.5801
15499TIP3    H267989   6.724   5.490   3.765 -0.8657  1.1267 -0.2818
15500TIP3   OH267990   2.675   5.483   3.719 -0.3133  0.3974  0.2242
15500TIP3    H167991   2.613   5.458   3.787 -0.8706  0.6958 -0.1691
15500TIP3    H267992   2.748   5.422   3.730 -1.6162 -1.3963 -0.6809
15501TIP3   OH267993   5.230   5.418   2.072  0.3394 -0.5496 -0.4506
15501TIP3    H167994   5.251   5.484   2.006  1.5951 -0.6957 -0.2025
15501TIP3    H267995   5.303   5.357   2.069  1.4460  0.5576  2.5076
15502TIP3   OH267996   5.582   1.457   2.266  0.2997  0.5588 -0.1580
15502TIP3    H167997   5.513   1.400   2.301 -0.5407  0.8962 -1.1918
15502TIP3    H267998   5.539   1.542   2.256  0.9119  0.8105 -0.6795
15503TIP3   OH267999   5.419   4.224  12.027 -0.6735  0.5094  0.3858
15503TIP3    H168000   5.383   4.310  12.005 -1.8276 -0.3041 -1.0456
15503TIP3    H268001   5.345   4.175  12.061 -0.1380 -0.0792  0.7049
15504TIP3   OH268002   0.383   6.141  14.775 -0.2197  0.0780  0.1633
15504TIP3    H168003   0.293   6.143  14.741 -0.7238 -0.9388  1.4004
15504TIP3    H268004   0.389   6.219  14.831  0.1556  0.9634 -1.0879
15505TIP3   OH268005   5.800   4.909  10.444  0.7818  0.2640  0.0862
15505TIP3    H168006   5.755   4.897  10.361 -0.6398  1.1858  0.7147
15505TIP3    H268007   5.856   4.985  10.430  2.0258 -0.7425 -0.6142
15506TIP3   OH268008   4.432   4.082  12.595  0.2563 -0.1276  0.0327
15506TIP3    H168009   4.375   4.159  12.594  1.0818  0.4915 -0.2607
15506TIP3    H268010   4.374   4.009  12.575 -0.0679  0.7368 -2.3908
15507TIP3   OH268011   2.536   4.091  12.034  0.9142 -0.6464  0.6659
15507TIP3    H168012   2.523   4.159  11.967  1.7682  1.0387  2.1681
15507TIP3    H268013   2.591   4.025  11.990  0.8251  0.0554 -0.5401
15508TIP3   OH268014   3.816   2.801   0.375 -0.4660 -0.0788 -0.4372
15508TIP3    H168015   3.878   2.872   0.358 -0.5984 -0.3722 -2.3519
15508TIP3    H268016   3.795   2.808   0.468  2.2468  0.1671  0.1810
15509TIP3   OH268017   1.265   5.179   0.770  0.5590  0.1288  0.2024
15509TIP3    H168018   1.211   5.144   0.700 -0.9906  0.1367  1.3730
15509TIP3    H268019   1.234   5.134   0.849  4.4355 -2.3000  0.4760
15510TIP3   OH268020   0.715   2.168  12.846  0.0981  0.2643 -0.6493
15510TIP3    H168021   0.627   2.191  12.876  0.6134  0.8377  0.4858
15510TIP3    H268022   0.760   2.252  12.838  1.0543 -0.1179  0.4609
15511TIP3   OH268023   5.776   0.226  12.851 -0.0323  0.1249 -0.1403
15511TIP3    H168024   5.725   0.216  12.932  0.8810  0.4646  0.4808
15511TIP3    H268025   5.784   0.137  12.817  0.6091 -0.1861  0.7926
15512TIP3   OH268026   5.995   2.046  17.262  0.3955 -0.3429  0.2404
15512TIP3    H168027   5.907   2.011  17.280 -0.3485  0.7181 -1.1646
15512TIP3    H268028   6.023   1.998  17.183 -0.8376  2.4812 -1.9945
15513TIP3   OH268029   5.895   3.997   1.314 -0.3603 -0.2346 -0.1341
15513TIP3    H168030   5.922   3.935   1.246 -0.4689 -0.2096 -0.2005
15513TIP3    H268031   5.829   3.951   1.364  0.3429 -0.5702  0.4959
15514TIP3   OH268032   2.603   2.944  10.253  0.0385  0.2177  0.2301
15514TIP3    H168033   2.587   3.029  10.295 -3.1682  0.0613 -0.5888
15514TIP3    H268034   2.599   2.963  10.160 -0.0642 -0.7285  0.0424
15515TIP3   OH268035   2.337   4.735  15.673 -0.2615 -0.0719 -0.1395
15515TIP3    H168036   2.369   4.662  15.620  2.1881 -0.2671  1.5394
15515TIP3    H268037   2.401   4.804  15.660 -1.3499  0.9860  0.0964
15516TIP3   OH268038   5.676   1.289  15.678 -0.1984  0.2354 -0.1298
15516TIP3    H168039   5.746   1.351  15.697  0.1927  0.0135 -0.8545
15516TIP3    H268040   5.600   1.325  15.724  0.2610  0.7465  0.2394
15517TIP3   OH268041   4.677   5.318   3.043 -0.0889  0.0933  0.1049
15517TIP3    H168042   4.750   5.268   3.078  0.9714  1.9630  0.6563
15517TIP3    H268043   4.676   5.295   2.950  0.6814 -0.5877  0.2537
15518TIP3   OH268044   2.844   1.365  13.129 -0.1453 -0.1563  0.1367
15518TIP3    H168045   2.863   1.422  13.055  0.9789 -1.0368 -0.2656
15518TIP3    H268046   2.814   1.283  13.089  0.3231 -0.5829  0.6542
15519TIP3   OH268047   0.403   0.543  15.028  0.1076  0.1803  0.3658
15519TIP3    H168048   0.360   0.475  14.976 -1.7101  0.4627  1.4595
15519TIP3    H268049   0.393   0.513  15.118  3.4392 -0.4249  0.5991
15520TIP3   OH268050   4.843   5.566  14.633  0.6913 -0.3741  0.1622
15520TIP3    H168051   4.750   5.585  14.619  0.3345 -2.2576 -0.2643
15520TIP3    H268052   4.872   5.629  14.699 -0.5006  1.2303 -0.8175
15521TIP3   OH268053   5.057   1.057  14.006  0.0532  0.0878 -0.4272
15521TIP3    H168054   5.057   0.963  13.989 -0.2610 -0.1138  0.6651
15521TIP3    H268055   5.149   1.080  14.014  0.0760 -0.4614  1.0567
15522TIP3   OH268056   0.142   2.233  10.977 -0.5325 -0.0500  0.0154
15522TIP3    H168057   0.153   2.328  10.972  1.2425 -0.2556 -0.4803
15522TIP3    H268058   0.054   2.221  11.013 -0.2073  1.8036  1.5443
15523TIP3   OH268059   2.893   4.855   4.127 -0.0617 -0.2523  0.1787
15523TIP3    H168060   2.929   4.868   4.215  0.7296 -0.2319 -0.1448
15523TIP3    H268061   2.942   4.781   4.092 -1.0658 -0.9026  0.1199
15524TIP3   OH268062   0.258   1.795  16.893  0.1311 -0.6244  0.3352
15524TIP3    H168063   0.286   1.887  16.898  0.9030 -0.9005  1.1274
15524TIP3    H268064   0.338   1.747  16.871 -0.2133 -1.1462  0.2123
15525TIP3   OH268065   3.022   3.169   3.665 -0.3259  1.0967 -0.3788
15525TIP3    H168066   3.115   3.174   3.687  0.1084  0.5907 -1.9929
15525TIP3    H268067   3.002   3.076   3.666 -1.0361  1.2565  0.8004
15526TIP3   OH268068   3.636   6.788   4.827 -0.3400  0.5987 -0.0870
15526TIP3    H168069   3.593   6.795   4.913  3.0315  1.2827  1.6428
15526TIP3    H268070   3.585   6.845   4.770 -2.5528  0.2752  1.4914
15527TIP3   OH268071   3.534   2.341   5.009  0.3816 -0.0844  0.5000
15527TIP3    H168072   3.628   2.343   4.996  0.7428 -1.9701  2.4622
15527TIP3    H268073   3.498   2.323   4.922  1.6353  2.9390 -0.7017
15528TIP3   OH268074   1.197   1.740  12.196  0.3345 -0.2384  0.2290
15528TIP3    H168075   1.229   1.693  12.274  0.3056 -0.3213  0.1909
15528TIP3    H268076   1.197   1.832  12.222  0.1130 -0.2881  0.4016
15529TIP3   OH268077   1.949   5.134   3.943  0.0207  0.4037 -0.3506
15529TIP3    H168078   1.864   5.091   3.928  0.2456  0.4755 -1.8916
15529TIP3    H268079   1.926   5.225   3.962 -0.2587  0.3901 -0.6185
15530TIP3   OH268080   0.784   2.620   2.707  0.1276 -0.0387 -0.4874
15530TIP3    H168081   0.867   2.631   2.754 -0.2252  1.7992 -0.2538
15530TIP3    H268082   0.752   2.534   2.735  0.7856  0.2772  1.2784
15531TIP3   OH268083   4.916   0.780  12.570 -0.0036  0.5884 -0.3780
15531TIP3    H168084   4.947   0.733  12.493 -1.0795  0.1426 -0.5497
15531TIP3    H268085   4.936   0.722  12.643  1.6175  1.3052 -0.2526
15532TIP3   OH268086   6.627   5.932   6.349 -0.2802  0.1088  0.4538
15532TIP3    H168087   6.626   5.864   6.281  2.4906 -0.7790  1.2378
15532TIP3    H268088   6.620   6.014   6.301  1.2425 -0.5287 -0.9176
15533TIP3   OH268089   3.340   3.595  14.088 -0.0564  0.3363  0.0332
15533TIP3    H168090   3.349   3.558  14.000  1.2164 -1.4572  0.8839
15533TIP3    H268091   3.385   3.679  14.083 -0.7067  0.6154 -1.2437
15534TIP3   OH268092   0.376   2.368  15.793  0.1703  0.2754  0.0260
15534TIP3    H168093   0.457   2.371  15.742 -0.7801 -0.2209 -1.5555
15534TIP3    H268094   0.313   2.416  15.740 -0.3839  1.3877  1.6380
15535TIP3   OH268095   4.538   6.248  16.905  0.4957 -0.7148  0.2595
15535TIP3    H168096   4.519   6.291  16.988 -2.0644 -0.1527 -0.5440
15535TIP3    H268097   4.582   6.315  16.853  0.0391 -0.3169  0.3768
15536TIP3   OH268098   4.054   4.801   2.661  0.1355 -0.6413 -0.4835
15536TIP3    H168099   4.131   4.818   2.715  0.6967 -0.7226 -1.2377
15536TIP3    H268100   4.083   4.820   2.571 -0.6916 -0.7674 -0.7849
15537TIP3   OH268101   1.989   0.596   5.509 -0.5921  0.6146  0.2990
15537TIP3    H168102   2.029   0.511   5.528  0.0218  0.8509  0.0637
15537TIP3    H268103   2.051   0.639   5.450 -0.2146  1.7813  1.5075
15538TIP3   OH268104   6.316   3.952  11.621 -0.2132 -0.8126 -0.4359
15538TIP3    H168105   6.269   3.869  11.614  0.6869 -1.5577  1.8409
15538TIP3    H268106   6.266   4.003  11.685 -0.1596 -0.0132 -1.0193
15539TIP3   OH268107   4.315   3.130  14.265 -0.8767 -0.1921 -0.3507
15539TIP3    H168108   4.406   3.158  14.267 -0.7009 -0.7630  1.9134
15539TIP3    H268109   4.271   3.188  14.328 -2.2495  0.6384 -2.0463
15540TIP3   OH268110   1.153   2.426  10.882 -0.0254  0.5317  0.4290
15540TIP3    H168111   1.235   2.428  10.833 -1.1300 -2.3051 -1.6826
15540TIP3    H268112   1.091   2.472  10.826 -0.0353  2.1780  1.7662
15541TIP3   OH268113   1.109   3.100   1.861  0.1604 -0.2302 -0.0002
15541TIP3    H168114   1.123   3.029   1.924 -0.4108  0.6208  1.1134
15541TIP3    H268115   1.028   3.141   1.890  0.0309  0.3399 -1.1599
15542TIP3   OH268116   2.430   6.170  11.234 -0.2508  0.8502  0.1544
15542TIP3    H168117   2.418   6.104  11.303 -1.4609  2.1598  1.2297
15542TIP3    H268118   2.342   6.184  11.199  0.4619 -0.2943 -2.1484
15543TIP3   OH268119   5.324   5.211   2.436 -0.3326 -0.9826  0.2840
15543TIP3    H168120   5.393   5.146   2.420  0.5518  0.0638 -0.1818
15543TIP3    H268121   5.290   5.232   2.349  0.7245  0.6303  0.2453
15544TIP3   OH268122   1.660   5.596  14.213  0.6624  0.2267 -0.0369
15544TIP3    H168123   1.749   5.619  14.240  1.0697  0.2919 -1.3725
15544TIP3    H268124   1.609   5.676  14.227  0.9310  0.3499  0.2405
15545TIP3   OH268125   2.702   5.550   4.040 -0.1570  0.0834 -0.3532
15545TIP3    H168126   2.769   5.483   4.054 -1.3310 -1.2001 -0.7341
15545TIP3    H268127   2.672   5.573   4.127  1.0728  0.9852 -0.1529
15546TIP3   OH268128   4.980   3.925  11.277 -0.2749 -0.1878 -0.5209
15546TIP3    H168129   5.071   3.924  11.307 -0.4415  0.8407  0.0529
15546TIP3    H268130   4.984   3.969  11.192  0.1172 -2.5779 -1.7765
15547TIP3   OH268131   1.000   6.272   2.314  0.6413 -0.3856 -0.7734
15547TIP3    H168132   0.953   6.233   2.388 -0.9562  1.9451 -0.5085
15547TIP3    H268133   1.087   6.291   2.349 -0.0463  0.5505  0.5051
15548TIP3   OH268134   4.122   3.056  16.958 -0.2395 -0.0202  0.2893
15548TIP3    H168135   4.158   3.137  16.923  0.8571 -0.4280  0.4584
15548TIP3    H268136   4.182   2.988  16.929 -1.4725 -0.8605 -0.3556
15549TIP3   OH268137   2.242   0.619   4.886 -0.1252  0.2323  0.4130
15549TIP3    H168138   2.193   0.571   4.819  0.6920 -0.4996  0.3333
15549TIP3    H268139   2.227   0.570   4.967  1.4205 -0.6845  0.1680
15550TIP3   OH268140   3.254   0.600   4.237 -0.0949 -0.2661 -0.5680
15550TIP3    H168141   3.219   0.634   4.320  0.5214  1.9874 -1.2062
15550TIP3    H268142   3.183   0.546   4.202 -0.8720 -0.1391  0.7789
15551TIP3   OH268143   2.479   4.386  13.027 -0.1025  0.0734 -0.0286
15551TIP3    H168144   2.449   4.445  12.958 -0.0741  0.1072 -0.0124
15551TIP3    H268145   2.561   4.425  13.058 -1.2854  1.3066  1.5920
15552TIP3   OH268146   2.685   6.548  13.964  0.0252  0.1902  0.1593
15552TIP3    H168147   2.679   6.643  13.971 -1.4707  0.1621 -0.5204
15552TIP3    H268148   2.615   6.515  14.020 -0.3829 -0.4621 -0.7186
15553TIP3   OH268149   4.908   0.122   5.003 -0.7563 -0.0731  0.3194
15553TIP3    H168150   4.825   0.153   5.039 -0.9895 -2.3263  1.8603
15553TIP3    H268151   4.974   0.165   5.057 -1.0504 -1.3317  1.7298
15554TIP3   OH268152   2.114   5.276   6.250 -0.2936  0.5244 -0.1408
15554TIP3    H168153   2.063   5.350   6.283  1.4140  1.5754  0.2032
15554TIP3    H268154   2.186   5.268   6.312  0.4523 -0.3663 -1.1163
15555TIP3   OH268155   3.946   1.786   2.584  0.3839  0.3908 -0.5970
15555TIP3    H168156   3.992   1.833   2.654 -0.6159 -0.5833  0.7495
15555TIP3    H268157   3.854   1.813   2.594  0.4887  1.6469 -2.6993
15556TIP3   OH268158   2.441   1.056  12.956 -0.6944  0.0569 -0.1152
15556TIP3    H168159   2.495   1.052  12.877 -0.5804 -0.7717  0.0008
15556TIP3    H268160   2.351   1.043  12.924 -0.6830  0.0686 -0.1516
15557TIP3   OH268161   5.011   3.899  13.254  0.2914 -0.4473 -0.5956
15557TIP3    H168162   5.028   3.971  13.193  0.2689 -0.7263 -0.9362
15557TIP3    H268163   5.069   3.829  13.224  2.2560  0.3181  1.3479
15558TIP3   OH268164   3.107   1.231   0.710 -0.4035  0.1744 -0.0099
15558TIP3    H168165   3.200   1.210   0.723  0.1440  2.2614 -0.3006
15558TIP3    H268166   3.072   1.239   0.799 -0.6562 -1.9948  0.1060
15559TIP3   OH268167   3.321   4.555   3.771  0.2934 -0.2863 -0.0767
15559TIP3    H168168   3.336   4.633   3.824 -1.5346  0.4146 -0.5422
15559TIP3    H268169   3.402   4.505   3.777  2.3013  2.6635 -1.5299
15560TIP3   OH268170   4.076   4.315   4.804  0.8810  0.1242  0.4913
15560TIP3    H168171   3.985   4.286   4.809  1.1197 -0.7088 -0.0351
15560TIP3    H268172   4.128   4.235   4.809  1.5293  0.4362 -0.9353
15561TIP3   OH268173   2.590   4.309   1.692  0.3190 -0.6308 -0.4331
15561TIP3    H168174   2.616   4.345   1.607  0.0214 -0.7481 -0.5753
15561TIP3    H268175   2.529   4.239   1.670 -0.9736  0.3647 -0.0537
15562TIP3   OH268176   4.440   4.516   2.028  0.1496  0.4526  0.4525
15562TIP3    H168177   4.516   4.571   2.050 -0.1166  1.0623 -0.1334
15562TIP3    H268178   4.467   4.428   2.051  1.1346  0.6348  0.0249
15563TIP3   OH268179   5.917   3.630   3.682 -0.5292 -0.2793 -0.1440
15563TIP3    H168180   5.913   3.538   3.657 -1.5202  0.5621 -3.2616
15563TIP3    H268181   5.998   3.662   3.644  0.4543 -0.1138  2.0031
15564TIP3   OH268182   1.181   5.825   4.079  0.5012 -0.5238 -0.9975
15564TIP3    H168183   1.254   5.864   4.030  2.4362 -1.9754  0.6358
15564TIP3    H268184   1.139   5.766   4.018  0.9634 -0.0085 -1.8236
15565TIP3   OH268185   5.633   0.876  15.220  0.2435  0.3287  0.0456
15565TIP3    H168186   5.686   0.951  15.249 -0.1127  0.2208  0.9958
15565TIP3    H268187   5.697   0.813  15.188  0.7712 -0.0505  1.7571
15566TIP3   OH268188   0.923   4.827  16.231 -0.6230 -0.1094 -0.4587
15566TIP3    H168189   0.836   4.844  16.194 -0.8238  0.0980  0.1043
15566TIP3    H268190   0.909   4.827  16.325  0.2361  1.2766 -0.3301
15567TIP3   OH268191   0.093   1.040  14.611  0.1521  0.4956 -0.3618
15567TIP3    H168192   0.058   0.981  14.678  2.5072  0.7972  1.1857
15567TIP3    H268193   0.166   0.992  14.573  0.7241  1.5392 -0.5897
15568TIP3   OH268194   4.754   0.080   6.158 -0.2730 -0.9014  0.2842
15568TIP3    H168195   4.786  -0.004   6.125  1.9065  0.7398 -1.9995
15568TIP3    H268196   4.828   0.117   6.206 -0.7890  0.2902  0.1836
15569TIP3   OH268197   6.366   0.725  14.554  0.3756 -0.0260 -0.4052
15569TIP3    H168198   6.285   0.699  14.599 -0.1257 -0.1591 -1.3625
15569TIP3    H268199   6.339   0.738  14.463  1.3894  0.1817 -0.6798
15570TIP3   OH268200   0.783   3.917  14.194  0.6999 -0.3258  0.1269
15570TIP3    H168201   0.718   3.883  14.256  0.8805  0.2397  0.6300
15570TIP3    H268202   0.867   3.903  14.237  0.7179  1.6551  0.7865
15571TIP3   OH268203   2.240   3.205   0.443 -0.1972  0.3941  0.2588
15571TIP3    H168204   2.309   3.221   0.508  1.4013 -2.9771 -0.4923
15571TIP3    H268205   2.172   3.159   0.492  0.1282 -0.3464  0.0323
15572TIP3   OH268206   0.455   2.553  13.701  0.3289  0.0839 -0.5298
15572TIP3    H168207   0.409   2.533  13.783  0.9445 -0.8568 -0.4096
15572TIP3    H268208   0.546   2.531  13.719  0.5318  0.2634 -1.3418
15573TIP3   OH268209   3.859   0.222   0.741  0.7358 -0.1699 -0.6430
15573TIP3    H168210   3.935   0.269   0.776  1.1410 -2.1274  1.2335
15573TIP3    H268211   3.892   0.175   0.665  0.8751  0.7312 -1.1401
15574TIP3   OH268212   5.368   1.309  16.541 -0.4097  0.2990  0.7247
15574TIP3    H168213   5.322   1.260  16.610 -1.8451  0.4680 -0.0887
15574TIP3    H268214   5.399   1.241  16.481  1.4830  0.0989  1.8945
15575TIP3   OH268215   6.656   3.411   0.993 -0.4547  0.1330 -0.1130
15575TIP3    H168216   6.674   3.318   0.982  1.1968  0.3166  0.8018
15575TIP3    H268217   6.561   3.418   0.992 -0.6013 -1.6385  0.3384
15576TIP3   OH268218   6.165   6.106  11.054  0.5005 -0.4378 -0.1322
15576TIP3    H168219   6.133   6.190  11.021  1.4551 -0.1904 -0.4450
15576TIP3    H268220   6.133   6.102  11.144 -1.0600 -0.5559 -0.6824
15577TIP3   OH268221   6.055   0.316   3.741  0.3340 -0.6937 -0.8598
15577TIP3    H168222   6.130   0.365   3.708  0.9671 -1.7226 -0.9617
15577TIP3    H268223   6.085   0.225   3.746 -0.9239 -1.1374 -0.9968
15578TIP3   OH268224   2.890   1.074  12.688 -0.1133 -0.1800 -0.3061
15578TIP3    H168225   2.935   0.992  12.710 -0.9337 -0.7431 -0.6941
15578TIP3    H268226   2.957   1.141  12.697  0.1922 -0.6900  1.5463
15579TIP3   OH268227   4.339   4.356  14.814 -0.9966 -0.0791 -0.3964
15579TIP3    H168228   4.313   4.323  14.728  0.0266  0.3595 -0.8892
15579TIP3    H268229   4.412   4.299  14.840 -1.3773 -0.2790  0.2259
15580TIP3   OH268230   6.134   3.902   3.750  0.6709 -0.2718 -0.4369
15580TIP3    H168231   6.093   3.970   3.803  0.7333  0.4643 -1.3137
15580TIP3    H268232   6.149   3.830   3.811  0.1608  0.3130  0.3976
15581TIP3   OH268233   4.490   1.315   4.469  0.0367 -0.0566  0.5207
15581TIP3    H168234   4.530   1.311   4.556  0.6058 -1.3470  0.2143
15581TIP3    H268235   4.445   1.231   4.459 -1.0374  0.5714  0.0442
15582TIP3   OH268236   5.289   6.717  16.006 -0.8197 -0.3092  0.1733
15582TIP3    H168237   5.206   6.694  16.048 -0.8533  0.8715  0.7700
15582TIP3    H268238   5.352   6.724  16.078 -0.4730 -0.0271 -0.1546
15583TIP3   OH268239   3.528   1.704   3.111  0.0482  0.3011  0.4428
15583TIP3    H168240   3.438   1.670   3.112 -0.4086  1.5067  0.5277
15583TIP3    H268241   3.519   1.798   3.124  1.2363  0.6418 -1.0475
15584TIP3   OH268242   2.915   5.727   0.957 -0.3196  0.1639 -0.1510
15584TIP3    H168243   2.950   5.771   1.034 -0.5156  1.5050 -0.8136
15584TIP3    H268244   2.828   5.699   0.983 -0.6726  1.2800 -0.1271
15585TIP3   OH268245   4.232   2.513   3.733  1.0061 -0.2263  0.5139
15585TIP3    H168246   4.143   2.548   3.733  0.5832 -1.2431 -1.6175
15585TIP3    H268247   4.264   2.528   3.822 -1.3855 -0.0786  1.3669
15586TIP3   OH268248   5.236   1.829   3.899 -0.4119  0.4443 -0.2734
15586TIP3    H168249   5.142   1.811   3.907 -0.3126  0.3725  0.7659
15586TIP3    H268250   5.266   1.767   3.832 -0.7142 -1.0048  0.8917
15587TIP3   OH268251   5.448   4.477   2.597  0.2426  0.1910  0.6052
15587TIP3    H168252   5.471   4.403   2.542 -0.1094  0.6781 -0.2135
15587TIP3    H268253   5.436   4.440   2.684  1.0754 -0.5421  0.4088
15588TIP3   OH268254   2.601   2.074  16.122  0.2125 -0.6538 -0.2246
15588TIP3    H168255   2.690   2.040  16.123  0.0686 -1.0769 -0.9975
15588TIP3    H268256   2.557   2.029  16.194  0.3337 -1.2465 -0.5195
15589TIP3   OH268257   0.383   5.154  14.946 -0.3118  0.4920 -0.4610
15589TIP3    H168258   0.341   5.138  15.030 -0.5845  0.9394 -0.5128
15589TIP3    H268259   0.319   5.204  14.896 -0.2093  0.1035 -0.9888
15590TIP3   OH268260   1.531   6.100  13.476 -0.2592 -0.3951 -0.1202
15590TIP3    H168261   1.551   6.063  13.561 -2.4207  1.5416  1.2972
15590TIP3    H268262   1.615   6.106  13.431  1.2502  0.7849  2.7793
15591TIP3   OH268263   3.428   5.637  13.896 -0.0865 -0.1548  0.1254
15591TIP3    H168264   3.503   5.579  13.890 -0.0030  0.1305 -1.7890
15591TIP3    H268265   3.446   5.707  13.833 -1.3581  0.6116  0.5842
15592TIP3   OH268266   5.662   1.755  13.908  0.2321 -0.7031  0.3977
15592TIP3    H168267   5.654   1.783  13.817 -0.5765  0.5544  0.8343
15592TIP3    H268268   5.642   1.834  13.959  2.0486 -1.0351  1.6707
15593TIP3   OH268269   2.230   0.114  14.135  0.3082  0.4510  0.3758
15593TIP3    H168270   2.191   0.150  14.215  1.9060  1.6387  0.6333
15593TIP3    H268271   2.323   0.135  14.142  0.5214  0.2481 -1.6412
15594TIP3   OH268272   2.594   3.747   1.008 -0.0089  0.1279  0.1599
15594TIP3    H168273   2.623   3.774   0.921  0.3065 -2.0099 -0.4302
15594TIP3    H268274   2.661   3.782   1.067 -0.2762  1.6721 -0.4169
15595TIP3   OH268275   1.245   4.255   0.665  0.8286  0.3417  0.0606
15595TIP3    H168276   1.209   4.227   0.581 -1.1145  1.4087  0.5132
15595TIP3    H268277   1.211   4.192   0.728  0.2395  1.0045  0.4062
15596TIP3   OH268278   2.583   3.093   2.002 -0.2242  0.5699  0.1466
15596TIP3    H168279   2.559   3.150   2.075 -0.0466 -1.5928  1.9783
15596TIP3    H268280   2.667   3.055   2.028  0.3274  0.5433 -1.6497
15597TIP3   OH268281   4.659   4.122  11.409  0.3505 -0.0945  0.7260
15597TIP3    H168282   4.615   4.088  11.487  1.1006  0.0761  1.2284
15597TIP3    H268283   4.635   4.214  11.406 -0.3126 -0.2770  0.3130
15598TIP3   OH268284   1.047   1.691   4.440  0.4473  0.0747 -0.8969
15598TIP3    H168285   1.037   1.612   4.388  3.4392 -1.2331  0.4175
15598TIP3    H268286   1.018   1.666   4.528  0.6927  0.6584 -0.6467
15599TIP3   OH268287   4.461   0.671  14.484  0.0160  0.2302 -0.0657
15599TIP3    H168288   4.509   0.754  14.481  2.3030 -1.0769 -1.0908
15599TIP3    H268289   4.485   0.633  14.568  0.3054 -0.1510 -0.3207
15600TIP3   OH268290   2.010   5.916   2.603  1.1112 -0.1114 -0.5117
15600TIP3    H168291   2.021   5.828   2.639 -0.9661  0.4913  1.7611
15600TIP3    H268292   2.066   5.918   2.526  1.2357 -3.4146 -0.5799
15601TIP3   OH268293   4.670   0.486  16.040  0.5559 -0.1454 -0.0123
15601TIP3    H168294   4.594   0.520  15.994  0.2819  0.9178  1.1640
15601TIP3    H268295   4.648   0.395  16.061  0.3812 -0.3995 -1.2990
15602TIP3   OH268296   4.233   2.660   4.600 -0.4993 -0.0117 -0.1531
15602TIP3    H168297   4.249   2.754   4.610  0.3485  0.0561 -1.9064
15602TIP3    H268298   4.139   2.650   4.619 -0.6225  1.2038 -0.0614
15603TIP3   OH268299   2.300   1.455   2.006 -0.0411 -0.0914  0.2293
15603TIP3    H168300   2.232   1.509   2.046 -1.2777 -2.3945  1.3818
15603TIP3    H268301   2.382   1.497   2.029 -0.9511  1.1038  1.3538
15604TIP3   OH268302   0.274   0.781   4.992  0.3379  0.0808 -0.5746
15604TIP3    H168303   0.349   0.789   5.051  1.9314 -2.0843 -2.2012
15604TIP3    H268304   0.199   0.809   5.044  2.4440  3.6963  0.6399
15605TIP3   OH268305   2.538   2.853   1.590 -0.1873 -0.4878 -0.0526
15605TIP3    H168306   2.494   2.930   1.553 -0.9197 -0.5515  0.6849
15605TIP3    H268307   2.542   2.871   1.684 -1.1094 -1.7366  0.2339
15606TIP3   OH268308   2.858   3.726   4.881 -0.1713 -0.4037 -0.5232
15606TIP3    H168309   2.940   3.732   4.832 -0.4631  0.7121 -0.9026
15606TIP3    H268310   2.810   3.805   4.855 -0.0378  0.5797  2.1355
15607TIP3   OH268311   6.139   5.534  15.348  0.2358 -0.7036  0.3675
15607TIP3    H168312   6.172   5.473  15.414  0.9958  0.1059  0.7413
15607TIP3    H268313   6.104   5.608  15.398 -1.4832 -1.2001 -0.0475
15608TIP3   OH268314   4.618   6.616  17.230 -0.1073 -0.0635  0.2992
15608TIP3    H168315   4.556   6.674  17.275 -0.1964 -1.4653  2.0182
15608TIP3    H268316   4.684   6.595  17.296  1.2502 -0.0020 -1.0134
15609TIP3   OH268317   5.456   1.633   5.067 -0.2530  0.4091  0.1281
15609TIP3    H168318   5.537   1.611   5.021 -0.2293  1.0404 -0.1464
15609TIP3    H268319   5.394   1.564   5.042  0.4427 -0.5450  1.0155
15610TIP3   OH268320   0.986   2.486   0.668 -0.1553  0.1471 -0.2801
15610TIP3    H168321   0.948   2.496   0.581  1.5001  3.3102 -0.7001
15610TIP3    H268322   1.003   2.575   0.698  1.1063 -0.9624  2.4802
15611TIP3   OH268323   3.667   4.844  12.433 -0.2584 -0.3407  0.0964
15611TIP3    H168324   3.677   4.885  12.518  0.0974 -1.4721  0.6133
15611TIP3    H268325   3.750   4.800  12.417  0.2415  1.1840 -1.5590
15612TIP3   OH268326   0.916   2.619  16.263  0.1189 -0.5296  0.8020
15612TIP3    H168327   0.991   2.603  16.320 -1.0037 -0.1098  2.4373
15612TIP3    H268328   0.950   2.677  16.194  1.1068  0.2317  1.9134
15613TIP3   OH268329   5.446   3.033   3.814  0.3245  0.8423  0.3005
15613TIP3    H168330   5.481   2.953   3.852 -1.2714  0.5791  1.2874
15613TIP3    H268331   5.366   3.006   3.770 -0.6507  1.9882  1.3147
15614TIP3   OH268332   3.844   1.771  11.236  0.3220  0.3109 -0.6312
15614TIP3    H168333   3.765   1.719  11.230  0.7244 -0.5084  0.9739
15614TIP3    H268334   3.916   1.707  11.236  0.8164  0.8297  1.3279
15615TIP3   OH268335   5.705   6.714   4.641  0.2587 -0.2572  0.6467
15615TIP3    H168336   5.797   6.696   4.624  0.3096 -0.8552  1.5228
15615TIP3    H268337   5.658   6.656   4.581  0.4506  1.9172 -1.6558
15616TIP3   OH268338   6.273   0.110  14.064 -0.0474 -0.2799 -0.3697
15616TIP3    H168339   6.364   0.083  14.053  0.1201  0.5261 -1.0450
15616TIP3    H268340   6.264   0.188  14.008 -1.1091 -0.2685 -0.1995
15617TIP3   OH268341   2.649   0.159  15.684  0.1265 -0.1673  0.6756
15617TIP3    H168342   2.678   0.227  15.746  1.0079 -0.6732  0.8291
15617TIP3    H268343   2.724   0.148  15.625  0.1780 -1.3732  0.9643
15618TIP3   OH268344   2.608   0.695   6.347  0.4941  0.0170 -0.1972
15618TIP3    H168345   2.631   0.616   6.396  1.0691 -0.2158 -0.8324
15618TIP3    H268346   2.569   0.662   6.266 -0.9432  0.4018  0.3351
15619TIP3   OH268347   5.635   2.339   2.949  0.2370  0.0119  0.3949
15619TIP3    H168348   5.630   2.286   2.870  1.8706 -0.9423  0.9279
15619TIP3    H268349   5.549   2.381   2.955 -1.3845 -3.1909  0.3949
15620TIP3   OH268350   1.141   1.260  14.260  0.1415  0.1655 -0.1265
15620TIP3    H168351   1.054   1.233  14.232  0.2600  1.3390 -1.7062
15620TIP3    H268352   1.188   1.178  14.275 -1.5395 -0.4736  1.7818
15621TIP3   OH268353   2.554   5.215   1.720 -0.1945  0.8460  0.0955
15621TIP3    H168354   2.466   5.232   1.685 -0.7408 -0.6926  0.6942
15621TIP3    H268355   2.613   5.256   1.657 -1.3714  2.5836  0.1065
15622TIP3   OH268356   0.264   3.527  15.497  0.3796 -0.8943 -0.3537
15622TIP3    H168357   0.173   3.542  15.522  0.6270  0.4711 -0.2302
15622TIP3    H268358   0.309   3.505  15.579  0.6750  1.0426  0.0282
15623TIP3   OH268359   1.621   2.124   3.577  0.2895 -0.1380 -0.2463
15623TIP3    H168360   1.635   2.153   3.667  1.6923 -1.5806  0.0191
15623TIP3    H268361   1.705   2.089   3.549 -0.1147  0.2948 -2.1475
15624TIP3   OH268362   0.724   1.182   4.783  0.7083 -0.6131  0.1541
15624TIP3    H168363   0.669   1.107   4.764 -0.8361  0.5110  0.1103
15624TIP3    H268364   0.808   1.161   4.743  0.4766 -2.5537  0.6399
15625TIP3   OH268365   0.118   3.925  15.556  0.6756  0.1538  0.9947
15625TIP3    H168366   0.161   3.981  15.492  1.4966  0.1107  1.5050
15625TIP3    H268367   0.104   3.982  15.632  1.3296 -0.2786  1.4396
15626TIP3   OH268368   1.913   6.747   5.994 -0.4196 -0.3954  0.2352
15626TIP3    H168369   1.845   6.795   5.947 -1.0139  0.2913  1.7525
15626TIP3    H268370   1.882   6.744   6.085  1.4377 -0.2752  0.9081
15627TIP3   OH268371   1.442   3.654  15.899  0.3905  0.4679  0.5480
15627TIP3    H168372   1.438   3.713  15.974  2.9548  1.0528  0.2650
15627TIP3    H268373   1.464   3.710  15.825  2.3696 -0.7416  0.1810
15628TIP3   OH268374   3.322   5.782  17.047  0.1605 -0.0113  0.1995
15628TIP3    H168375   3.274   5.847  17.097 -0.1777 -0.5001  0.5061
15628TIP3    H268376   3.277   5.700  17.064 -0.5060 -0.0444 -1.6170
15629TIP3   OH268377   4.346   1.990   4.016 -0.0862  0.5632 -0.0788
15629TIP3    H168378   4.356   2.001   3.922  1.1819  1.6252  0.1644
15629TIP3    H268379   4.434   2.005   4.052 -0.7260  1.0672  1.3456
15630TIP3   OH268380   6.716   6.780  10.840  0.9027 -0.3613  0.4839
15630TIP3    H168381   6.772   6.704  10.828 -1.6399 -2.7263  2.7807
15630TIP3    H268382   6.639   6.762  10.786  0.8577  1.2396 -0.0127
15631TIP3   OH268383   0.243   6.007   1.708 -0.5519 -0.0568 -0.7964
15631TIP3    H168384   0.303   5.957   1.763 -0.7285 -0.8225 -1.2901
15631TIP3    H268385   0.291   6.087   1.686  0.5266 -0.9480 -1.6995
15632TIP3   OH268386   4.562   3.763   3.586 -0.4004 -0.6467 -0.2338
15632TIP3    H168387   4.496   3.766   3.656 -0.6444  0.9640 -0.5082
15632TIP3    H268388   4.545   3.681   3.541 -0.0951 -1.8241  1.7381
15633TIP3   OH268389   2.223   5.878   1.481 -0.2565 -0.3209 -0.1772
15633TIP3    H168390   2.161   5.942   1.515 -1.7726 -1.1159 -1.3596
15633TIP3    H268391   2.230   5.812   1.550 -0.4589 -0.0614  0.0937
15634TIP3   OH268392   1.025   0.286   0.079 -0.0857  0.1321 -0.6317
15634TIP3    H168393   0.990   0.279   0.168 -1.1128 -1.8440 -1.1533
15634TIP3    H268394   1.120   0.293   0.091 -0.2976  0.9202  0.6500
15635TIP3   OH268395   1.130   4.874   5.053  0.2270  0.3187 -0.2574
15635TIP3    H168396   1.129   4.783   5.082 -0.3580  0.2727 -0.4067
15635TIP3    H268397   1.040   4.890   5.022  0.8482  0.3465 -2.0827
15636TIP3   OH268398   0.519   0.949  16.533 -0.4779 -0.1431 -0.0199
15636TIP3    H168399   0.482   1.016  16.475 -0.2019 -0.7315 -0.8912
15636TIP3    H268400   0.553   0.998  16.608 -2.5447  0.4432  0.5584
15637TIP3   OH268401   2.105   6.497  15.814 -0.1866  0.2435 -0.5412
15637TIP3    H168402   2.062   6.545  15.742 -1.3543  0.0742  0.0324
15637TIP3    H268403   2.120   6.564  15.881  0.7248  0.3627 -0.8667
15638TIP3   OH268404   5.687   4.508   4.868  0.4843 -0.0774  0.5556
15638TIP3    H168405   5.687   4.553   4.952  0.4775  0.0018  0.5130
15638TIP3    H268406   5.595   4.509   4.840  0.4535 -0.2868  0.6452
15639TIP3   OH268407   3.082   4.206   2.348  0.5663 -0.0250 -0.4736
15639TIP3    H168408   2.989   4.196   2.371  0.3372  2.8354  0.0766
15639TIP3    H268409   3.088   4.175   2.258 -0.9773 -0.0646 -0.5802
15640TIP3   OH268410   5.786   1.143  11.455 -0.3855 -0.7429  0.3649
15640TIP3    H168411   5.700   1.142  11.498 -0.4501  1.0253  0.2822
15640TIP3    H268412   5.822   1.056  11.472 -1.6147 -1.0307  1.5647
15641TIP3   OH268413   3.487   3.448  13.140 -0.2164  0.1239  0.5184
15641TIP3    H168414   3.506   3.510  13.210 -1.8796  1.1059  0.1144
15641TIP3    H268415   3.466   3.503  13.065 -3.3692 -0.9056  0.5979
15642TIP3   OH268416   0.393   4.813   3.777 -0.7912  0.4558  0.0724
15642TIP3    H168417   0.419   4.899   3.745  0.1495  0.5028  0.9564
15642TIP3    H268418   0.460   4.789   3.840 -1.4086 -0.6362  0.3289
15643TIP3   OH268419   2.310   4.904  13.299  0.6962  0.2611  0.4645
15643TIP3    H168420   2.259   4.985  13.294  0.8732  0.4354  1.3908
15643TIP3    H268421   2.341   4.901  13.390  1.5254 -0.3349  0.1631
15644TIP3   OH268422   4.907   1.205   1.159  0.1277  0.0713 -0.3550
15644TIP3    H168423   4.957   1.273   1.205  1.8423 -0.7716 -0.9278
15644TIP3    H268424   4.972   1.139   1.135 -1.3792 -1.3987 -0.5321
15645TIP3   OH268425   2.011   1.169  10.914 -0.6212 -0.4821  0.4617
15645TIP3    H168426   2.094   1.218  10.907  0.0462 -1.4481  1.5097
15645TIP3    H268427   1.943   1.237  10.911  0.2396  0.4024  0.5619
15646TIP3   OH268428   1.074   1.656   1.816  0.1933 -0.5698  0.2596
15646TIP3    H168429   0.983   1.650   1.846 -0.0231 -1.4314 -0.5320
15646TIP3    H268430   1.068   1.696   1.730  0.6500  0.2078  0.5894
15647TIP3   OH268431   0.917   5.764   1.092  0.8121 -0.4188  0.5174
15647TIP3    H168432   1.008   5.771   1.061  1.4841 -2.7482  1.8890
15647TIP3    H268433   0.919   5.802   1.180  0.1768  0.6207  0.0951
15648TIP3   OH268434   6.540   0.329  16.244  0.0858 -0.2664  0.0319
15648TIP3    H168435   6.610   0.263  16.250 -0.6589 -1.1733 -0.9767
15648TIP3    H268436   6.586   0.413  16.244  1.1584 -0.8443 -0.3137
15649TIP3   OH268437   5.852   2.940  15.114  0.0568  0.4626 -0.2638
15649TIP3    H168438   5.768   2.968  15.151  0.7111  0.1791  1.4912
15649TIP3    H268439   5.893   3.020  15.083 -0.2574  0.7925  0.1720
15650TIP3   OH268440   2.108   1.935  13.621  0.5359  0.1269 -0.4595
15650TIP3    H168441   2.138   1.882  13.547  0.9788  0.3107 -0.4140
15650TIP3    H268442   2.175   2.002  13.631 -0.1891  0.9088 -0.7341
15651TIP3   OH268443   6.130   4.040   4.164  0.4169  0.0272 -0.0949
15651TIP3    H168444   6.053   3.983   4.156 -1.7571  2.2779  3.4559
15651TIP3    H268445   6.099   4.125   4.134  1.1313  1.2127  2.4119
15652TIP3   OH268446   1.823   3.135   0.192  0.1590  0.2647  0.4609
15652TIP3    H168447   1.815   3.228   0.212  1.4688  0.4090  0.3709
15652TIP3    H268448   1.881   3.132   0.116 -0.4887 -0.5848 -0.0025
15653TIP3   OH268449   2.712   4.354   2.339  0.4040  0.9359  0.3758
15653TIP3    H168450   2.751   4.296   2.273 -0.8205  0.6135 -0.0632
15653TIP3    H268451   2.625   4.319   2.355  1.2310  0.0748  3.3442
15654TIP3   OH268452   1.929   4.319   3.909  0.5403  0.2022 -0.3168
15654TIP3    H168453   1.846   4.281   3.879  1.3700  0.0707 -2.4751
15654TIP3    H268454   1.975   4.343   3.829  2.2665  1.0134  0.8938
15655TIP3   OH268455   3.187   4.136  13.191  0.3589  0.5640 -0.1125
15655TIP3    H168456   3.196   4.096  13.104  0.9687 -1.3199  0.7955
15655TIP3    H268457   3.140   4.218  13.175 -2.3420 -1.2634 -1.8473
15656TIP3   OH268458   1.169   1.074   0.818 -0.7583  0.4789  0.1629
15656TIP3    H168459   1.107   1.123   0.764  0.0435  0.8801 -0.4146
15656TIP3    H268460   1.197   1.002   0.762  0.1672  0.9640 -0.0103
15657TIP3   OH268461   0.449   5.404  12.169  0.2577 -0.0207 -0.2784
15657TIP3    H168462   0.487   5.412  12.256  0.2097 -0.9745 -0.1671
15657TIP3    H268463   0.356   5.387  12.184  0.5552 -1.9422 -0.4698
15658TIP3   OH268464   2.595   3.798  15.678  0.2853 -0.7027 -0.0149
15658TIP3    H168465   2.573   3.803  15.585 -0.9891 -0.0680  0.3126
15658TIP3    H268466   2.580   3.706  15.700 -0.7966 -0.5616 -0.1118
15659TIP3   OH268467   5.684   1.754  16.068  0.5646  0.1244  0.4804
15659TIP3    H168468   5.667   1.716  15.982  0.9565  1.6966 -0.3219
15659TIP3    H268469   5.622   1.827  16.074 -0.0682 -0.5051  1.9183
15660TIP3   OH268470   4.890   2.798  12.889 -0.3093 -0.1742 -0.3586
15660TIP3    H168471   4.930   2.718  12.856 -1.0212 -0.9721  0.7082
15660TIP3    H268472   4.888   2.787  12.984 -0.8837  0.8792 -0.2406
15661TIP3   OH268473   1.210   3.071  12.142  0.3525 -0.1229 -0.2380
15661TIP3    H168474   1.212   3.034  12.054 -0.3313  0.7475 -0.6396
15661TIP3    H268475   1.152   3.013  12.191 -0.0581 -0.0508 -0.6353
15662TIP3   OH268476   0.298   2.158   1.685 -0.4440 -0.1093  0.0856
15662TIP3    H168477   0.263   2.239   1.647 -0.0766  0.6721  1.3634
15662TIP3    H268478   0.370   2.187   1.741  0.3942 -1.4330 -0.2946
15663TIP3   OH268479   6.345   5.438  16.620 -0.1443  0.3727 -0.6185
15663TIP3    H168480   6.262   5.431  16.572 -0.7227 -0.4532  0.4880
15663TIP3    H268481   6.329   5.392  16.702  0.9875  1.3883  0.1812
15664TIP3   OH268482   6.814   4.717   0.118  0.1305  0.0279  0.5627
15664TIP3    H168483   6.788   4.778   0.188  0.8738 -0.5783  1.3815
15664TIP3    H268484   6.768   4.636   0.138  1.5189 -0.6107  1.2128
15665TIP3   OH268485   5.894   1.595  13.698  0.0933 -0.2375 -0.1223
15665TIP3    H168486   5.920   1.666  13.756 -0.2894  0.3510 -0.6627
15665TIP3    H268487   5.968   1.534  13.699  0.2984  0.0185  0.5742
15666TIP3   OH268488   4.521   2.671  14.777  0.2065 -0.1493 -0.2712
15666TIP3    H168489   4.530   2.741  14.712  1.4048  0.4891  0.5609
15666TIP3    H268490   4.604   2.624  14.773  0.7740  0.6348  1.6371
15667TIP3   OH268491   2.890   3.757  14.783 -0.1891 -0.0591  0.1656
15667TIP3    H168492   2.940   3.680  14.809 -2.4287 -1.2827  0.9533
15667TIP3    H268493   2.836   3.728  14.710 -1.4020  0.6105  0.7775
15668TIP3   OH268494   3.524   4.852   4.322  0.2775 -0.1723 -0.4744
15668TIP3    H168495   3.502   4.919   4.257 -1.5463  1.0722  1.3613
15668TIP3    H268496   3.619   4.857   4.330  0.1259  2.6194  0.0236
15669TIP3   OH268497   3.265   5.177  13.682  0.3384  0.0963 -0.1297
15669TIP3    H168498   3.297   5.118  13.750 -1.9332 -0.1462  0.7834
15669TIP3    H268499   3.274   5.264  13.720 -0.7618 -0.0262  0.4379
15670TIP3   OH268500   0.483   0.813   1.038 -0.9001 -0.2219 -0.2090
15670TIP3    H168501   0.519   0.793   1.125 -0.1765 -0.7176 -0.6125
15670TIP3    H268502   0.545   0.773   0.977 -1.1811  0.4850 -0.9681
15671TIP3   OH268503   3.009   1.771  12.616  0.0104  0.5009  0.5604
15671TIP3    H168504   2.961   1.724  12.548 -0.2210  2.6267 -0.8097
15671TIP3    H268505   2.977   1.734  12.698 -0.8772 -1.0186 -0.4465
15672TIP3   OH268506   3.719   3.769  12.538 -0.0307 -0.4329  0.1629
15672TIP3    H168507   3.752   3.782  12.627 -0.9528  1.6101  0.2152
15672TIP3    H268508   3.652   3.701  12.546 -0.6220  0.2650  1.1452
15673TIP3   OH268509   0.660   5.887  13.608  0.1859  0.1916  0.3891
15673TIP3    H168510   0.618   5.953  13.553  1.1894  1.1076  0.6884
15673TIP3    H268511   0.615   5.893  13.692 -0.1088  0.0934  0.2373
15674TIP3   OH268512   5.944   1.972  10.956  0.4035  0.0824 -0.2800
15674TIP3    H168513   5.997   1.960  11.036 -0.9328 -0.9087  0.4806
15674TIP3    H268514   5.937   2.067  10.945  1.4783  0.2213  0.1863
15675TIP3   OH268515   4.247   4.072   1.957  0.0710  0.6595  0.0978
15675TIP3    H168516   4.307   4.103   1.889  0.7927  0.4854  0.6517
15675TIP3    H268517   4.166   4.121   1.941 -0.1008 -0.1077 -1.4891
15676TIP3   OH268518   4.417   5.225   6.159 -0.0473  0.1558  0.3994
15676TIP3    H168519   4.395   5.271   6.079  0.4653  1.4187  0.9705
15676TIP3    H268520   4.513   5.224   6.161 -0.0467 -0.9508  0.3938
15677TIP3   OH268521   0.214   3.981  14.842 -0.6496  0.1496  0.7619
15677TIP3    H168522   0.212   3.895  14.801 -0.4972  1.1310 -1.3386
15677TIP3    H268523   0.122   3.999  14.864 -0.5799 -0.8934  2.0305
15678TIP3   OH268524   3.791   2.067  15.413 -0.7123 -0.2812 -0.7098
15678TIP3    H168525   3.862   2.065  15.349 -0.3771 -0.0979 -0.3458
15678TIP3    H268526   3.792   1.981  15.454 -1.7971 -0.8719 -1.8902
15679TIP3   OH268527   6.154   1.598  11.900  0.2417  0.6425  0.1646
15679TIP3    H168528   6.184   1.575  11.812  0.3375 -0.4795  0.4824
15679TIP3    H268529   6.093   1.670  11.886 -1.2463 -0.7917 -1.0107
15680TIP3   OH268530   0.176   1.381   2.979  0.4712  0.4527  0.4936
15680TIP3    H168531   0.081   1.382   2.962  0.8112  0.4428 -1.4993
15680TIP3    H268532   0.187   1.315   3.047 -1.0084  0.7702  1.0651
15681TIP3   OH268533   4.034   3.329   2.077  0.5450  0.4574  0.5850
15681TIP3    H168534   4.045   3.284   1.993  2.8626  0.1889  0.9953
15681TIP3    H268535   4.059   3.419   2.059 -0.7237  0.8208  0.5848
15682TIP3   OH268536   5.647   6.814  12.551  0.2486  0.2986  0.1154
15682TIP3    H168537   5.707   6.881  12.519 -0.4928  0.1094 -1.7411
15682TIP3    H268538   5.660   6.813  12.646  2.8217  0.5785 -0.2036
15683TIP3   OH268539   3.765   1.671   4.581 -0.5432 -0.1718 -0.2480
15683TIP3    H168540   3.816   1.700   4.505 -0.3391  1.3849  0.4681
15683TIP3    H268541   3.677   1.658   4.546 -0.4179  0.3890 -0.7995
15684TIP3   OH268542   6.544   2.754   1.289 -0.0996 -0.1324  0.1414
15684TIP3    H168543   6.456   2.784   1.314 -0.5491 -1.2344 -0.0930
15684TIP3    H268544   6.590   2.834   1.264 -1.3281  0.3544 -0.6188
15685TIP3   OH268545   0.657   2.540  14.358 -0.4043  0.1723  0.1318
15685TIP3    H168546   0.654   2.446  14.378  0.7911  0.3334  1.1291
15685TIP3    H268547   0.704   2.545  14.274  0.6389 -0.0549  0.6854
15686TIP3   OH268548   6.497   1.953  12.972  0.3772 -0.2600  0.1324
15686TIP3    H168549   6.475   1.951  12.879  1.5396 -0.4691 -0.1439
15686TIP3    H268550   6.442   2.022  13.009 -2.0511 -1.9500 -0.2013
15687TIP3   OH268551   6.614   2.193   0.523 -0.2214 -0.6798  0.0503
15687TIP3    H168552   6.577   2.193   0.611 -1.8453  0.7931 -0.6103
15687TIP3    H268553   6.539   2.206   0.465  0.9997 -0.2188 -1.4662
15688TIP3   OH268554   0.193   3.836   0.569 -0.2576 -0.0191  0.5380
15688TIP3    H168555   0.132   3.869   0.503 -0.9715  0.8246  1.6008
15688TIP3    H268556   0.153   3.754   0.598  0.0055 -0.3399  0.0123
15689TIP3   OH268557   3.270   3.848   1.985  0.1080  0.0665  0.4814
15689TIP3    H168558   3.321   3.909   1.932  1.4592 -0.8886  0.6510
15689TIP3    H268559   3.193   3.827   1.931 -0.3141  1.8235  0.3931
15690TIP3   OH268560   6.803   2.824  16.596 -0.5922 -0.3393  0.5905
15690TIP3    H168561   6.839   2.755  16.652 -0.7013 -0.6465  0.2900
15690TIP3    H268562   6.850   2.814  16.513 -1.9500 -1.3212 -0.1095
15691TIP3   OH268563   2.346   1.236  12.704 -0.1485 -0.6255  0.0312
15691TIP3    H168564   2.387   1.180  12.638  1.7559 -0.8019  1.3261
15691TIP3    H268565   2.311   1.310  12.654  2.7418  0.1031 -1.0099
15692TIP3   OH268566   6.468   1.465   2.720  0.1316  0.3854 -0.4212
15692TIP3    H168567   6.559   1.439   2.734 -0.9633 -3.0915  0.6186
15692TIP3    H268568   6.443   1.511   2.800  0.6093  0.3141 -0.2303
15693TIP3   OH268569   6.358   3.743  12.592  0.1841 -0.1483  0.1853
15693TIP3    H168570   6.289   3.782  12.645 -1.2064 -1.1058 -0.8721
15693TIP3    H268571   6.361   3.798  12.513 -1.1141 -1.5246 -0.8730
15694TIP3   OH268572   6.260   2.212   1.758  0.1298  0.0426  0.2217
15694TIP3    H168573   6.290   2.287   1.809  0.1137 -0.4436  0.9427
15694TIP3    H268574   6.329   2.199   1.692 -1.3395  2.6037 -1.8900
15695TIP3   OH268575   5.014   4.971  11.535 -0.0360  0.1836 -0.5780
15695TIP3    H168576   4.921   4.988  11.553  0.0387  1.7689 -1.5513
15695TIP3    H268577   5.019   4.877  11.522 -0.9793 -0.3661  2.4957
15696TIP3   OH268578   1.549   0.421  11.628 -0.1616 -0.0093  0.0858
15696TIP3    H168579   1.518   0.420  11.718  0.3998 -0.5892  0.2812
15696TIP3    H268580   1.549   0.513  11.603 -0.5780  0.1267  0.5863
15697TIP3   OH268581   6.307   6.562  11.259 -0.1464 -0.5894 -0.0632
15697TIP3    H168582   6.392   6.527  11.288  0.1497  0.4003  0.2912
15697TIP3    H268583   6.292   6.637  11.316 -1.5331 -1.0858  0.2260
15698TIP3   OH268584   1.142   6.406  13.527  0.5330  0.4542  0.6595
15698TIP3    H168585   1.225   6.388  13.483  0.1116  1.0446 -0.4037
15698TIP3    H268586   1.158   6.485  13.579  0.9247 -0.0295  1.2787
15699TIP3   OH268587   2.441   0.028   5.516 -0.4276 -0.0345 -0.6138
15699TIP3    H168588   2.535   0.012   5.517  0.4688  4.5025  0.0111
15699TIP3    H268589   2.408  -0.014   5.595  1.3614 -0.1616  0.0725
15700TIP3   OH268590   5.163   1.973   2.944  0.5548 -0.3244  0.8507
15700TIP3    H168591   5.235   2.035   2.957  1.7290 -0.9307 -2.3130
15700TIP3    H268592   5.197   1.890   2.978  1.8127 -0.8559 -1.6179
15701TIP3   OH268593   0.135   4.388  12.432 -0.8885 -0.2804 -0.0380
15701TIP3    H168594   0.180   4.469  12.407 -1.4052  0.0219 -0.0068
15701TIP3    H268595   0.201   4.337  12.478 -0.5312  0.0872 -0.1413
15702TIP3   OH268596   4.828   1.947  10.222  0.1182 -0.4233  0.3615
15702TIP3    H168597   4.847   1.901  10.141  1.1910  0.0336  0.3343
15702TIP3    H268598   4.830   1.879  10.290 -0.5559 -0.7682  0.0375
15703TIP3   OH268599   3.205   6.674  15.472 -0.2910 -0.0394  0.0270
15703TIP3    H168600   3.259   6.674  15.551 -0.1401 -0.8319 -0.0731
15703TIP3    H268601   3.240   6.746  15.419 -0.1418  0.2446  0.5066
15704TIP3   OH268602   5.880   2.578  15.522  0.2790  0.5114  0.4291
15704TIP3    H168603   5.923   2.662  15.531 -0.5913  1.0287 -0.1975
15704TIP3    H268604   5.789   2.594  15.547  0.3345 -0.4645  1.3060
15705TIP3   OH268605   5.470   3.520   0.262  0.0751 -0.2355 -0.3207
15705TIP3    H168606   5.422   3.558   0.188  0.8817  1.0176 -0.2225
15705TIP3    H268607   5.558   3.558   0.256  0.0325  0.1985  1.5059
15706TIP3   OH268608   5.344   2.992   5.783 -0.0020 -0.3915 -0.1209
15706TIP3    H168609   5.383   2.925   5.839  0.1826  1.8487  2.5911
15706TIP3    H268610   5.368   2.967   5.694 -0.6884 -4.3539  0.7359
15707TIP3   OH268611   2.804   3.566   5.996  0.3044 -0.0177 -0.2105
15707TIP3    H168612   2.867   3.637   5.991  0.3463 -0.1250 -1.4283
15707TIP3    H268613   2.727   3.599   5.948  0.0150 -0.4724 -0.0634
15708TIP3   OH268614   4.102   1.331  11.272 -0.1768  0.0907 -0.4860
15708TIP3    H168615   4.052   1.333  11.190  0.1582 -1.4887 -0.7354
15708TIP3    H268616   4.184   1.375  11.250 -0.0171 -0.4857 -1.0405
15709TIP3   OH268617   5.762   4.975  11.278  0.1194  0.6497  0.0573
15709TIP3    H168618   5.725   4.928  11.204  0.5691  1.1789 -0.5099
15709TIP3    H268619   5.837   5.022  11.241 -0.2644  1.7315  0.6343
15710TIP3   OH268620   6.303   2.795  11.837 -0.3504  0.3279  0.1357
15710TIP3    H168621   6.311   2.723  11.774 -0.4198 -0.3950  0.9395
15710TIP3    H268622   6.231   2.848  11.803  0.7258  0.8978 -1.3076
15711TIP3   OH268623   2.482   4.723  17.146 -0.1155 -0.4253 -0.2118
15711TIP3    H168624   2.504   4.806  17.187 -0.4601  0.7784 -2.3936
15711TIP3    H268625   2.556   4.704  17.088  0.3406 -2.0786  0.8470
15712TIP3   OH268626   3.348   0.084   5.325  0.1984 -0.2328  0.3116
15712TIP3    H168627   3.261   0.115   5.349  0.0737  1.6433 -2.3474
15712TIP3    H268628   3.332  -0.001   5.283 -0.0359 -1.1949  2.2778
15713TIP3   OH268629   3.783   1.615   0.480  0.6152  0.0372  0.4521
15713TIP3    H168630   3.722   1.545   0.500 -1.0697  0.9006 -1.4782
15713TIP3    H268631   3.764   1.683   0.545 -1.7979  1.0601 -1.2772
15714TIP3   OH268632   2.925   4.417   5.405  0.3795 -0.5180  0.1757
15714TIP3    H168633   2.841   4.463   5.398  0.0628 -0.9081  1.2366
15714TIP3    H268634   2.959   4.414   5.316  0.3866  1.7491  0.0654
15715TIP3   OH268635   0.460   2.238  14.122  0.5711 -0.0215 -0.3964
15715TIP3    H168636   0.514   2.159  14.120  1.1008  0.3143  0.5070
15715TIP3    H268637   0.515   2.306  14.082  1.5667  0.7638  2.1960
15716TIP3   OH268638   3.434   1.786   3.791  0.2247  0.3447  0.7620
15716TIP3    H168639   3.387   1.836   3.857 -1.2879 -0.4799  0.3168
15716TIP3    H268640   3.366   1.744   3.738  1.4138  0.6432 -1.0662
15717TIP3   OH268641   0.580   5.632   6.087  0.2601 -0.6070  0.5432
15717TIP3    H168642   0.544   5.720   6.092 -1.4389 -1.1306 -1.5459
15717TIP3    H268643   0.580   5.601   6.177 -0.9191  0.8445  1.0667
15718TIP3   OH268644   0.374   0.495   4.756 -0.0399  0.3921  0.1719
15718TIP3    H168645   0.362   0.513   4.663  0.8645 -0.9378 -0.2088
15718TIP3    H268646   0.300   0.439   4.779 -0.5140  1.0867  0.3764
15719TIP3   OH268647   0.140   6.549   6.191  0.3765 -0.2021 -0.7064
15719TIP3    H168648   0.063   6.602   6.214  0.3958 -0.4333 -0.1062
15719TIP3    H268649   0.129   6.468   6.241  0.7617 -0.4364 -1.0019
15720TIP3   OH268650   1.419   1.855   6.057  0.6356  0.3901  0.2927
15720TIP3    H168651   1.422   1.811   5.972  0.2234 -0.6852  0.8268
15720TIP3    H268652   1.468   1.798   6.115  1.6371  1.5368  0.6074
15721TIP3   OH268653   5.723   4.373  16.449  0.5094  0.3290  0.5037
15721TIP3    H168654   5.688   4.434  16.515  0.2370 -0.3946  1.0381
15721TIP3    H268655   5.654   4.307  16.439  1.8626 -1.3313  1.8462
15722TIP3   OH268656   2.786   2.280  14.922  0.1578  0.6843 -0.3616
15722TIP3    H168657   2.784   2.201  14.867  0.6334  0.6726 -0.3652
15722TIP3    H268658   2.770   2.247  15.010  2.1001  0.3509 -0.1123
15723TIP3   OH268659   6.579   3.641  16.176 -0.0520 -0.8168  0.4036
15723TIP3    H168660   6.490   3.611  16.190  0.2664 -1.4856  1.0555
15723TIP3    H268661   6.634   3.568  16.207  0.7331  0.4037  1.9216
15724TIP3   OH268662   1.704   1.145   2.471  0.8324 -0.0038  0.2136
15724TIP3    H168663   1.630   1.088   2.495  2.5374 -2.0191  0.8410
15724TIP3    H268664   1.686   1.228   2.515 -0.6028 -0.7683  1.1074
15725TIP3   OH268665   1.855   2.074   5.350 -0.5614 -0.1325 -0.4049
15725TIP3    H168666   1.901   2.155   5.327 -0.9225  0.2019  0.0403
15725TIP3    H268667   1.818   2.091   5.437  0.0000 -1.0471  0.0198
15726TIP3   OH268668   0.483   4.036   1.448  0.3184  0.0784  0.0799
15726TIP3    H168669   0.396   4.077   1.445  0.5763  0.6026 -0.2735
15726TIP3    H268670   0.493   4.009   1.540 -1.0361 -1.7864 -0.3014
15727TIP3   OH268671   4.974   4.044   3.035  0.3109 -0.8319  0.4437
15727TIP3    H168672   4.879   4.031   3.023  0.0358  1.1502  0.3629
15727TIP3    H268673   5.003   3.964   3.079 -0.8010 -2.9788 -2.5358
15728TIP3   OH268674   4.075   0.963  12.979  0.2125  0.7347  0.4512
15728TIP3    H168675   4.169   0.982  12.976  0.9091 -2.6561 -1.2427
15728TIP3    H268676   4.040   1.001  12.898  0.0079  2.3530  1.2747
15729TIP3   OH268677   2.698   4.237  11.681  0.2895 -0.1493  0.1995
15729TIP3    H168678   2.620   4.251  11.734  0.8946 -1.1892  1.4136
15729TIP3    H268679   2.750   4.317  11.692  0.1938 -0.1690  0.8311
15730TIP3   OH268680   6.404   6.057   4.447  0.0781 -0.0886  0.2871
15730TIP3    H168681   6.492   6.039   4.480  0.4081 -0.0593 -0.5623
15730TIP3    H268682   6.388   5.990   4.381 -1.5293 -1.6085  2.1629
15731TIP3   OH268683   5.373   4.968   4.156  1.3581 -0.4706  0.0365
15731TIP3    H168684   5.465   4.947   4.164  0.7950 -2.4537  1.4746
15731TIP3    H268685   5.350   4.943   4.066  1.9732 -0.9148  0.0037
15732TIP3   OH268686   6.639   6.615   4.552 -0.1039 -0.2853 -0.3034
15732TIP3    H168687   6.588   6.614   4.471 -1.0057 -0.1644  0.2477
15732TIP3    H268688   6.701   6.543   4.543 -1.3063 -1.3126 -0.4075
15733TIP3   OH268689   0.001   4.594   2.081  0.2006 -0.0739  0.5233
15733TIP3    H168690  -0.007   4.635   1.995  1.3231 -1.3164 -0.2007
15733TIP3    H268691  -0.060   4.520   2.078 -1.6171  1.3351  1.7213
15734TIP3   OH268692   2.161   5.430   0.628 -0.0723  0.4228  0.4317
15734TIP3    H168693   2.133   5.446   0.538  1.4890 -1.4531 -0.4340
15734TIP3    H268694   2.257   5.432   0.624  0.0279 -0.7103  1.8291
15735TIP3   OH268695   5.584   1.675  11.196 -0.2379  0.6280 -0.3011
15735TIP3    H168696   5.623   1.740  11.138  3.1478 -1.8662 -1.0267
15735TIP3    H268697   5.608   1.704  11.284  0.7598  0.6906 -0.5854
15736TIP3   OH268698   3.686   4.423   4.938  0.3948  0.5264  0.2166
15736TIP3    H168699   3.708   4.420   4.845 -1.9520  0.8303 -0.3841
15736TIP3    H268700   3.711   4.510   4.966  0.8629  0.5274 -0.1943
15737TIP3   OH268701   0.489   0.204  13.754  0.0358 -0.0939 -0.4227
15737TIP3    H168702   0.538   0.127  13.782  0.4254  0.6272  0.9440
15737TIP3    H268703   0.556   0.272  13.744 -0.4571  0.4040 -0.3601
15738TIP3   OH268704   1.047   1.420   5.134  0.7267  0.4781 -0.4800
15738TIP3    H168705   1.138   1.390   5.140  0.2195 -1.2442 -1.2079
15738TIP3    H268706   1.017   1.421   5.225  1.2329  0.2779 -0.3075
15739TIP3   OH268707   3.072   3.375   4.918  0.6801 -0.4392 -0.3381
15739TIP3    H168708   3.072   3.298   4.975  0.9865 -0.8884 -0.9493
15739TIP3    H268709   3.080   3.340   4.830  1.7863  0.3418 -0.5565
15740TIP3   OH268710   3.342   4.475   5.857  0.0605  0.2198  0.9057
15740TIP3    H168711   3.272   4.416   5.829  2.5703 -2.4161 -0.1164
15740TIP3    H268712   3.362   4.446   5.946 -0.4449  1.2897  1.3767
15741TIP3   OH268713   6.758   0.503   1.253 -0.0518  0.2197  0.7646
15741TIP3    H168714   6.735   0.429   1.197  0.0812  0.2581  0.6592
15741TIP3    H268715   6.734   0.475   1.341  2.2787 -0.9177  1.0740
15742TIP3   OH268716   0.331   6.639  15.320  0.4121 -0.2705 -0.1128
15742TIP3    H168717   0.326   6.725  15.363  2.2232 -0.3998  0.3941
15742TIP3    H268718   0.246   6.599  15.338  1.1024 -0.3018  3.3597
15743TIP3   OH268719   4.864   6.805  14.769 -0.7747  0.0947 -0.2251
15743TIP3    H168720   4.880   6.824  14.677 -2.3129  0.1925 -0.4742
15743TIP3    H268721   4.824   6.884  14.804 -0.9197 -0.2285  0.3472
15744TIP3   OH268722   0.856   2.573  14.088  0.2066  0.5330 -0.0026
15744TIP3    H168723   0.881   2.662  14.111  1.4418  0.5082 -1.1498
15744TIP3    H268724   0.938   2.532  14.059 -0.6829 -0.3814 -1.3047
15745TIP3   OH268725   5.076   5.315  17.157 -0.1272 -0.5537  0.3001
15745TIP3    H168726   5.070   5.407  17.131  0.8759 -1.0253 -1.6912
15745TIP3    H268727   5.167   5.303  17.181  0.0654 -1.3450 -0.7795
15746TIP3   OH268728   3.036   4.491   2.900 -0.1163 -0.0333  0.2043
15746TIP3    H168729   2.973   4.425   2.871 -1.4821  1.2415  0.2233
15746TIP3    H268730   3.090   4.508   2.822 -0.2504 -0.6022 -0.0196
15747TIP3   OH268731   4.935   4.656   0.293 -0.0729 -0.1328 -0.5251
15747TIP3    H168732   4.842   4.660   0.312 -0.1581  1.3460 -1.1766
15747TIP3    H268733   4.941   4.609   0.209 -0.3122  0.6904 -1.0048
15748TIP3   OH268734   2.575   4.869  15.570  0.2391 -0.4048  0.0074
15748TIP3    H168735   2.643   4.804  15.588  1.3210  0.9363  0.8820
15748TIP3    H268736   2.584   4.933  15.641 -1.5511  0.1033 -0.2076
15749TIP3   OH268737   6.322   5.568   2.562 -0.4560  0.1873 -0.3394
15749TIP3    H168738   6.254   5.605   2.505  0.1495 -0.7937 -1.7072
15749TIP3    H268739   6.404   5.593   2.521  0.0281  1.2313  1.2357
15750TIP3   OH268740   1.727   4.219  14.186 -0.0572 -0.1723 -0.1591
15750TIP3    H168741   1.803   4.273  14.160 -0.2807  0.7877  1.1378
15750TIP3    H268742   1.710   4.244  14.276 -0.7124 -1.8275  0.1916
15751TIP3   OH268743   3.782   0.537   4.671 -0.1366 -0.1207  0.6576
15751TIP3    H168744   3.705   0.483   4.690 -0.4048  0.4039  1.0693
15751TIP3    H268745   3.807   0.575   4.755  0.5890 -0.3003  0.5326
15752TIP3   OH268746   3.066   3.916  14.110 -0.7924  0.1757  0.1780
15752TIP3    H168747   3.043   3.982  14.175  1.3943  0.4135  0.7559
15752TIP3    H268748   3.023   3.836  14.140 -2.6585  1.1064 -0.0081
15753TIP3   OH268749   5.872   4.943  11.515  0.1104  0.0891  0.0218
15753TIP3    H168750   5.838   4.960  11.427  0.0143  1.4880  0.3042
15753TIP3    H268751   5.949   4.889  11.501 -1.4107 -1.9589 -0.7256
15754TIP3   OH268752   2.121   2.630   0.350 -0.4032 -0.3043 -0.0285
15754TIP3    H168753   2.139   2.577   0.272  0.4163  0.7884 -0.5885
15754TIP3    H268754   2.102   2.565   0.418  0.2259 -1.3180 -0.7935
15755TIP3   OH268755   5.716   3.759   6.556  0.2834 -0.1580  0.0721
15755TIP3    H168756   5.794   3.777   6.503  0.4561 -0.0629  0.3591
15755TIP3    H268757   5.666   3.841   6.555  1.3552  0.5515  1.8645
15756TIP3   OH268758   2.000   6.741   2.071 -0.0577  0.0788 -0.1865
15756TIP3    H168759   1.986   6.824   2.116 -0.3243  0.2104 -0.5050
15756TIP3    H268760   1.919   6.691   2.087 -0.7970  0.7312 -1.8054
15757TIP3   OH268761   5.251   0.036  11.654 -0.3717 -0.3261 -0.4987
15757TIP3    H168762   5.245  -0.003  11.567  1.4994 -1.1786 -0.2538
15757TIP3    H268763   5.323   0.098  11.648  1.4717 -2.2573  1.1335
15758TIP3   OH268764   3.979   1.817  15.172  0.3377  0.3464 -0.3998
15758TIP3    H168765   3.978   1.913  15.178  1.0820  0.3624 -0.4877
15758TIP3    H268766   4.029   1.798  15.093  1.0984 -0.1361  0.1893
15759TIP3   OH268767   0.485   2.242   3.300  0.3403 -0.2778  0.0898
15759TIP3    H168768   0.405   2.244   3.352  1.2173  0.0413  1.4547
15759TIP3    H268769   0.475   2.315   3.238  0.1686  0.6289  1.1657
15760TIP3   OH268770   5.025   2.784   4.807 -0.2496  0.0212 -0.0494
15760TIP3    H168771   4.998   2.747   4.891  0.9851 -1.1428 -0.1601
15760TIP3    H268772   4.993   2.721   4.742  0.3130  0.0378 -0.3434
15761TIP3   OH268773   0.835   3.813  11.827  0.3886  0.5328  0.1952
15761TIP3    H168774   0.753   3.849  11.861 -1.7571 -2.1437 -1.8260
15761TIP3    H268775   0.882   3.782  11.905 -1.8627 -0.4627  1.2156
15762TIP3   OH268776   4.764   6.382   5.153 -0.3354 -0.5912  0.6970
15762TIP3    H168777   4.741   6.412   5.241  0.3751  0.3222  0.5762
15762TIP3    H268778   4.766   6.462   5.100  1.0969 -0.8903  0.2658
15763TIP3   OH268779   5.114   6.519  16.771 -0.2684  0.3600  0.4587
15763TIP3    H168780   5.060   6.455  16.816  0.8629 -1.2199 -0.3805
15763TIP3    H268781   5.181   6.467  16.726  0.3845  2.0880 -0.6309
15764TIP3   OH268782   5.093   3.765   4.575 -0.3736 -0.3260 -0.5018
15764TIP3    H168783   5.176   3.811   4.564 -0.0890 -0.6243  0.3310
15764TIP3    H268784   5.084   3.712   4.496  1.2269 -1.8316  0.2819
15765TIP3   OH268785   2.910   6.276  13.769  0.2840 -0.6689  0.2835
15765TIP3    H168786   2.969   6.236  13.704 -0.9641 -0.1492 -1.1988
15765TIP3    H268787   2.822   6.248  13.742 -0.2984 -0.0044  1.4455
15766TIP3   OH268788   4.821   3.550  15.646  0.8167 -0.1371  0.0865
15766TIP3    H168789   4.833   3.642  15.623  1.6396 -0.0861  0.6690
15766TIP3    H268790   4.770   3.552  15.727 -0.9084 -0.2718 -0.9679
15767TIP3   OH268791   5.780   5.407  11.434 -0.5625 -0.1756  0.2444
15767TIP3    H168792   5.750   5.459  11.359  1.0741 -0.0086 -0.3243
15767TIP3    H268793   5.718   5.334  11.439 -0.4258 -0.4606 -1.6027
15768TIP3   OH268794   4.721   2.145   0.410  0.2242 -0.4204 -0.4750
15768TIP3    H168795   4.746   2.053   0.425 -0.2548 -0.4069  0.4513
15768TIP3    H268796   4.655   2.141   0.342 -1.3805 -0.9681  1.0823
15769TIP3   OH268797   0.597   6.688  13.472 -0.8687  0.5158 -0.5160
15769TIP3    H168798   0.627   6.684  13.563 -1.4928  0.2381 -0.3183
15769TIP3    H268799   0.666   6.736  13.426 -0.0937 -0.1621 -0.0800
15770TIP3   OH268800   6.061   2.452   4.074  0.2384  0.3169  0.2351
15770TIP3    H168801   5.997   2.512   4.112 -2.0375 -0.6906 -1.8762
15770TIP3    H268802   6.069   2.382   4.139 -0.6818  0.5187  0.5704
15771TIP3   OH268803   0.476   2.270   0.261 -0.3850  0.5812 -0.7547
15771TIP3    H168804   0.394   2.313   0.283 -0.7139 -0.2913 -0.2332
15771TIP3    H268805   0.453   2.178   0.250  0.6978  0.1332  0.4959
15772TIP3   OH268806   0.185   1.836   3.092 -0.1262  0.1699 -0.2267
15772TIP3    H168807   0.209   1.929   3.089  2.2573 -0.3670  1.0946
15772TIP3    H268808   0.265   1.790   3.069 -0.9749 -1.6132  0.3261
15773TIP3   OH268809   4.441   3.645  11.848  0.3091 -0.4686 -0.6056
15773TIP3    H168810   4.431   3.553  11.826 -1.1803  0.0455 -2.2039
15773TIP3    H268811   4.406   3.692  11.772  2.9590  1.4443 -0.7431
15774TIP3   OH268812   3.751   0.824   4.504 -0.0432 -0.1089 -0.2088
15774TIP3    H168813   3.805   0.763   4.553 -0.6604 -2.2306 -2.0925
15774TIP3    H268814   3.807   0.854   4.432  0.1586  1.3544  0.5326
15775TIP3   OH268815   4.261   0.809   1.409 -0.3022 -0.0714 -0.4270
15775TIP3    H168816   4.260   0.777   1.318  1.2804 -0.2214 -0.4149
15775TIP3    H268817   4.350   0.791   1.439 -0.8672 -0.1856  1.2238
15776TIP3   OH268818   3.432   5.149  12.122  0.2855 -0.4928  0.0352
15776TIP3    H168819   3.495   5.147  12.195  1.8417 -1.5021 -1.2864
15776TIP3    H268820   3.467   5.215  12.062  0.4396 -1.4888 -0.9948
15777TIP3   OH268821   3.490   1.683   1.760  0.8049  0.7328 -0.2834
15777TIP3    H168822   3.523   1.624   1.692  0.4281  1.1475 -0.8273
15777TIP3    H268823   3.556   1.752   1.767 -0.1560  1.8299 -1.7186
15778TIP3   OH268824   3.403   2.391  11.733 -0.2147  0.0678  0.1194
15778TIP3    H168825   3.471   2.382  11.666 -1.4763 -0.1780 -1.1553
15778TIP3    H268826   3.350   2.465  11.702 -0.6274  0.1444  1.0138
15779TIP3   OH268827   3.893   5.900   1.709 -0.4516 -0.8838 -0.1483
15779TIP3    H168828   3.804   5.934   1.707 -0.3940 -0.6597  0.7372
15779TIP3    H268829   3.889   5.827   1.772  0.1667 -0.3414  0.5228
15780TIP3   OH268830   3.295   4.585  11.970 -0.3444  1.0703 -0.4067
15780TIP3    H168831   3.209   4.563  11.935  0.4587 -1.2472 -1.0604
15780TIP3    H268832   3.291   4.558  12.062 -0.9879  2.9423  0.1282
15781TIP3   OH268833   0.069   0.970  12.789 -0.1505  0.1140  0.6252
15781TIP3    H168834   0.094   0.883  12.759  0.3595  0.6164 -0.4310
15781TIP3    H268835   0.150   1.010  12.819 -0.0867  0.8290 -0.4641
15782TIP3   OH268836   2.275   4.569   0.937 -0.1065  0.0386  0.5090
15782TIP3    H168837   2.306   4.657   0.961  0.3959 -0.0148  0.0605
15782TIP3    H268838   2.317   4.551   0.853 -1.1290 -0.1580  0.0292
15783TIP3   OH268839   4.087   2.958  12.876 -0.1241 -0.3101  0.3007
15783TIP3    H168840   3.994   2.966  12.898 -0.9890  1.4179 -3.6416
15783TIP3    H268841   4.123   3.045  12.893  0.3438 -0.4400 -0.0155
15784TIP3   OH268842   3.752   5.704   1.845  0.3663  0.0087 -0.8792
15784TIP3    H168843   3.697   5.713   1.924  0.5167 -0.2782 -0.7408
15784TIP3    H268844   3.692   5.672   1.778  0.7411 -2.1499 -0.2411
15785TIP3   OH268845   1.196   2.526  16.022 -0.2961 -0.5494  0.4224
15785TIP3    H168846   1.167   2.613  15.996  1.1156 -0.2647 -0.2229
15785TIP3    H268847   1.227   2.537  16.112 -0.5597 -0.4992  0.5095
15786TIP3   OH268848   1.902   6.299  10.635 -0.4345  0.4254 -0.6738
15786TIP3    H168849   1.840   6.365  10.664 -0.8904 -0.1799 -0.2537
15786TIP3    H268850   1.988   6.333  10.660 -0.6782  0.7645 -0.3001
15787TIP3   OH268851   6.354   4.759   1.638 -0.3840 -0.1592  0.2247
15787TIP3    H168852   6.418   4.750   1.567 -0.6697  1.3307 -0.2408
15787TIP3    H268853   6.327   4.669   1.658  1.4427 -0.7541  0.0580
15788TIP3   OH268854   6.609   3.356  14.656  0.4973  0.2214  0.0579
15788TIP3    H168855   6.570   3.317  14.578 -1.1724  1.4946  0.2273
15788TIP3    H268856   6.695   3.386  14.628  0.7519 -1.2142 -0.7469
15789TIP3   OH268857   4.625   2.910   3.342 -0.5738  0.0095 -0.5653
15789TIP3    H168858   4.614   2.846   3.412 -0.6937  0.2191 -0.3937
15789TIP3    H268859   4.642   2.857   3.264 -2.5347 -0.3348 -0.7990
15790TIP3   OH268860   3.694   1.740  12.413  0.2222  0.7382 -0.1365
15790TIP3    H168861   3.667   1.823  12.373 -0.4250 -0.0607 -1.3530
15790TIP3    H268862   3.629   1.723  12.481  1.9281  2.6574  2.1000
15791TIP3   OH268863   2.944   2.913   3.587 -0.3861 -0.0123  0.3346
15791TIP3    H168864   2.958   2.840   3.647 -0.2661 -0.8889 -0.7554
15791TIP3    H268865   2.938   2.873   3.500 -1.9910  1.0971 -0.0923
15792TIP3   OH268866   1.370   4.706   5.811 -0.7475 -0.0695  0.6702
15792TIP3    H168867   1.375   4.695   5.906  0.0677  0.1446  0.6622
15792TIP3    H268868   1.353   4.799   5.798 -2.0705 -0.3048  0.6240
15793TIP3   OH268869   0.924   0.548   5.023  0.4308 -0.1589 -0.2154
15793TIP3    H168870   0.903   0.455   5.028  0.4978 -0.0706  2.0429
15793TIP3    H268871   0.970   0.558   4.939 -0.7432 -1.9006 -1.0771
15794TIP3   OH268872   2.161   6.773  11.178  0.0223 -0.2217  0.2070
15794TIP3    H168873   2.075   6.738  11.154  0.0751 -0.4730  0.3688
15794TIP3    H268874   2.141   6.851  11.230 -0.1260 -0.5946  0.7257
15795TIP3   OH268875   3.297   3.821   5.720 -0.0969  0.1722 -0.2187
15795TIP3    H168876   3.290   3.915   5.701 -1.3046  0.4665  1.5027
15795TIP3    H268877   3.282   3.815   5.815  1.0624 -1.6531 -0.1238
15796TIP3   OH268878   1.821   5.662   5.696 -0.4343  0.6239 -0.4561
15796TIP3    H168879   1.889   5.628   5.754 -1.4414  0.1743  0.4993
15796TIP3    H268880   1.852   5.643   5.608  0.9562  0.9794 -0.0613
15797TIP3   OH268881   4.015   1.003  15.763  0.8233 -0.6603 -0.2119
15797TIP3    H168882   4.084   0.994  15.698  1.1475 -1.4742  0.2458
15797TIP3    H268883   3.976   0.916  15.770 -1.3411  0.1438 -1.6756
15798TIP3   OH268884   3.571   0.895  16.920  0.2920 -0.0499  0.7552
15798TIP3    H168885   3.523   0.820  16.954 -1.2250  0.2255 -0.6644
15798TIP3    H268886   3.511   0.934  16.856  2.5360  0.1717 -1.2616
15799TIP3   OH268887   0.588   6.160  12.217  0.4018  0.0435  0.1875
15799TIP3    H168888   0.607   6.105  12.294  3.4478  0.3883 -0.2935
15799TIP3    H268889   0.601   6.249  12.248  1.3431  0.1956 -0.6705
15800TIP3   OH268890   3.224   4.553  14.584  0.2016  0.0346  0.1420
15800TIP3    H168891   3.269   4.563  14.499 -1.4989  1.1369 -0.6439
15800TIP3    H268892   3.287   4.505  14.638  1.8064  0.3880 -1.3528
15801TIP3   OH268893   6.513   4.467  16.028  0.3128 -0.2956 -0.6100
15801TIP3    H168894   6.507   4.380  16.067  1.0712 -0.2989 -0.4929
15801TIP3    H268895   6.469   4.525  16.090  0.2159 -0.5215 -0.4693
15802TIP3   OH268896   3.030   2.062   1.793 -0.3253 -0.4787 -0.3456
15802TIP3    H168897   3.039   1.969   1.817 -1.4598 -0.2194  1.1270
15802TIP3    H268898   2.966   2.097   1.855  2.4078  2.0587  1.2363
15803TIP3   OH268899   2.627   3.821   5.475 -0.5982 -0.1101 -0.5099
15803TIP3    H168900   2.611   3.897   5.420  1.1139 -0.7274 -1.9046
15803TIP3    H268901   2.583   3.749   5.430  0.8297 -0.6209 -1.1385
15804TIP3   OH268902   4.328   6.304  13.721 -0.3991  0.0401 -0.2576
15804TIP3    H168903   4.404   6.252  13.750 -0.4708 -0.1801 -0.4633
15804TIP3    H268904   4.303   6.354  13.798 -2.4340 -2.7336  0.9991
15805TIP3   OH268905   2.473   5.369   5.303 -0.8987  0.2483 -0.3759
15805TIP3    H168906   2.460   5.461   5.324 -1.4125  0.6698 -2.4312
15805TIP3    H268907   2.558   5.366   5.259  0.2579 -0.6426  1.8447
15806TIP3   OH268908   3.937   5.154  14.145 -0.3404  0.1867  0.1262
15806TIP3    H168909   3.884   5.159  14.224 -2.7605 -0.0253 -1.4249
15806TIP3    H268910   3.874   5.166  14.074  2.1263  2.8353 -1.7043
15807TIP3   OH268911   5.455   0.913   5.494  0.3761  0.1932  0.1341
15807TIP3    H168912   5.533   0.857   5.498 -1.1448 -1.8850  1.4123
15807TIP3    H268913   5.383   0.856   5.522 -1.7437  1.8523 -1.7776
15808TIP3   OH268914   3.628   2.451  14.477  0.3650  0.1881  0.6167
15808TIP3    H168915   3.655   2.475  14.566 -0.8132  1.5032  0.6426
15808TIP3    H268916   3.620   2.535  14.431 -1.5253 -0.2857  0.0212
15809TIP3   OH268917   1.184   1.568   4.089 -0.0498 -0.2546  0.0627
15809TIP3    H168918   1.143   1.606   4.012 -2.2532 -0.5099  1.0770
15809TIP3    H268919   1.113   1.523   4.134  1.5453 -1.5269  1.3741
15810TIP3   OH268920   0.823   0.905   3.233 -0.0763 -0.3421 -0.2758
15810TIP3    H168921   0.796   0.968   3.300 -1.2366 -0.6943 -0.4019
15810TIP3    H268922   0.913   0.929   3.212 -0.6036  1.4557 -0.5534
15811TIP3   OH268923   1.584   0.728   2.720 -0.1165 -0.9676 -0.1267
15811TIP3    H168924   1.584   0.740   2.625 -1.7601  1.3159  0.1190
15811TIP3    H268925   1.519   0.660   2.736  0.2714 -1.4599 -0.6636
15812TIP3   OH268926   6.108   0.156  16.721 -0.4915  0.1041 -0.8657
15812TIP3    H168927   6.068   0.175  16.636 -0.7106  1.8415 -0.3968
15812TIP3    H268928   6.200   0.142  16.701 -0.4802  0.8342 -1.3633
15813TIP3   OH268929   4.636   6.600  15.177  0.4478  0.2340  0.1984
15813TIP3    H168930   4.700   6.606  15.106 -1.1632  2.4257 -1.1100
15813TIP3    H268931   4.662   6.521  15.225  1.5886 -1.2959 -2.7729
15814TIP3   OH268932   2.247   4.118   1.854 -0.0298  0.5828  0.4289
15814TIP3    H168933   2.198   4.199   1.865 -0.3149  0.5033 -0.2639
15814TIP3    H268934   2.226   4.089   1.766  2.8891  1.6573 -0.6958
15815TIP3   OH268935   2.457   3.354  14.450 -0.1997  0.1617 -0.0849
15815TIP3    H168936   2.476   3.440  14.488  1.0062 -0.1298 -0.0005
15815TIP3    H268937   2.484   3.362  14.358 -2.2049  0.5655 -0.6564
15816TIP3   OH268938   1.598   3.393   3.023 -0.0956  0.5836  1.1031
15816TIP3    H168939   1.613   3.302   3.051 -0.8599 -0.0679 -0.4918
15816TIP3    H268940   1.611   3.445   3.102  1.8202 -0.7627  1.7232
15817TIP3   OH268941   1.973   3.026  17.255  0.3074 -0.2196  0.0918
15817TIP3    H168942   2.036   2.987  17.316  0.5739  1.6680  1.0458
15817TIP3    H268943   1.894   2.972  17.265  1.1402 -1.4278  0.2857
15818TIP3   OH268944   3.031   3.566   0.140 -0.3234  0.4624  0.1639
15818TIP3    H168945   2.984   3.486   0.117 -1.9548  1.0905  1.2692
15818TIP3    H268946   3.119   3.536   0.163 -0.0075 -0.6761 -2.3481
15819TIP3   OH268947   2.092   1.484  11.418  0.4274 -0.0704 -0.1018
15819TIP3    H168948   2.136   1.562  11.383 -2.1888  1.2498 -0.5534
15819TIP3    H268949   2.032   1.518  11.484  1.3008 -2.0090  1.7379
15820TIP3   OH268950   5.850   3.896   3.124  0.3733  0.0012  0.2375
15820TIP3    H168951   5.844   3.803   3.102  0.3836  0.2756 -0.9571
15820TIP3    H268952   5.869   3.897   3.218  2.0400 -1.2515 -0.0519
15821TIP3   OH268953   2.411   0.032  16.089  0.2939  0.3776 -0.3775
15821TIP3    H168954   2.466   0.093  16.138  1.5191  0.8426 -2.2635
15821TIP3    H268955   2.471  -0.038  16.063 -0.4984 -0.2438 -0.5488
15822TIP3   OH268956   5.869   0.632   2.458  0.4904  0.6497  0.2878
15822TIP3    H168957   5.963   0.618   2.443  0.4740  0.8429  0.0085
15822TIP3    H268958   5.860   0.630   2.553  0.8746  1.2330  0.3386
15823TIP3   OH268959   6.044   3.287   4.986  0.2162 -0.6122  0.0441
15823TIP3    H168960   6.069   3.291   5.078  0.2283  0.3486  0.0108
15823TIP3    H268961   5.948   3.286   4.987  0.1917  0.6163  0.0460
15824TIP3   OH268962   4.498   4.204   2.100 -0.1072 -0.2920 -0.1829
15824TIP3    H168963   4.559   4.135   2.126  0.4631 -0.0529 -0.8722
15824TIP3    H268964   4.481   4.187   2.007 -1.4917 -0.6649  0.1272
15825TIP3   OH268965   2.349   1.376  16.109 -0.2384  0.4824  0.0543
15825TIP3    H168966   2.300   1.429  16.172  0.0112 -0.3243  0.9516
15825TIP3    H268967   2.441   1.386  16.135 -0.1264  0.2185 -0.2326
15826TIP3   OH268968   4.585   0.777   2.954  0.2803  0.5859 -0.6945
15826TIP3    H168969   4.677   0.751   2.948  0.5713  1.8589 -1.7869
15826TIP3    H268970   4.538   0.694   2.967  1.5995 -0.0323  0.3037
15827TIP3   OH268971   0.011   3.157  15.528 -0.0136 -0.5775  0.2604
15827TIP3    H168972   0.096   3.170  15.486  0.1568 -0.0081  0.7898
15827TIP3    H268973  -0.024   3.245  15.539 -1.1161 -0.8603 -0.8689
15828TIP3   OH268974   2.828   6.700  13.410  0.8151 -0.4145  0.1929
15828TIP3    H168975   2.775   6.649  13.471  3.0169  1.2746  3.7018
15828TIP3    H268976   2.791   6.788  13.415  0.5321 -0.4160 -1.5698
15829TIP3   OH268977   4.950   3.054  13.098 -0.0640 -0.2145 -0.3925
15829TIP3    H168978   5.003   3.104  13.160 -1.4112 -1.4581  1.8541
15829TIP3    H268979   4.865   3.046  13.141 -2.0133  1.4734 -3.7787
15830TIP3   OH268980   6.601   2.874  10.362 -0.0885 -0.3846 -0.0641
15830TIP3    H168981   6.623   2.920  10.281 -1.0144 -0.3710 -0.3132
15830TIP3    H268982   6.664   2.802  10.366  0.5489  0.1500 -0.3269
15831TIP3   OH268983   5.404   0.773   3.301 -0.3199 -0.4169  0.5619
15831TIP3    H168984   5.349   0.704   3.338  1.2885 -0.7511  2.3774
15831TIP3    H268985   5.436   0.735   3.218 -2.2031 -0.4829 -0.1654
15832TIP3   OH268986   3.589   6.565   2.083 -0.6334  0.2031  0.4023
15832TIP3    H168987   3.591   6.640   2.023  2.4019  0.6875  1.0004
15832TIP3    H268988   3.570   6.490   2.027 -2.6383  1.2511 -0.3753
15833TIP3   OH268989   1.974   6.772  13.719  0.2989  0.1395  0.2863
15833TIP3    H168990   2.020   6.841  13.670  0.0647 -0.5149 -0.8680
15833TIP3    H268991   1.912   6.736  13.656  0.2904 -1.0062  0.9503
15834TIP3   OH268992   1.558   6.158   1.558  0.3281  0.3991  0.0261
15834TIP3    H168993   1.632   6.162   1.497  0.7175  2.2455  0.5664
15834TIP3    H268994   1.586   6.212   1.632 -0.3338 -1.4103  1.6395
15835TIP3   OH268995   5.615   2.394  17.173  0.7522 -0.3573  0.4413
15835TIP3    H168996   5.613   2.345  17.091  0.4850 -0.4858  0.5219
15835TIP3    H268997   5.662   2.474  17.152 -0.8563  0.4235 -0.2909
15836TIP3   OH268998   0.148   2.040   6.682 -0.0325 -0.0968  0.2874
15836TIP3    H168999   0.232   2.050   6.636  0.4730 -0.1425  1.1856
15836TIP3    H269000   0.084   2.029   6.612  0.8305 -0.9637 -0.3900
15837TIP3   OH269001   0.488   6.593  13.863 -0.1891  0.1107  0.0182
15837TIP3    H169002   0.535   6.568  13.783 -1.6852 -1.4113 -0.4104
15837TIP3    H269003   0.421   6.526  13.873 -2.0130  2.0058  0.8424
15838TIP3   OH269004   5.962   3.142  12.658  0.4907 -0.2552  0.0445
15838TIP3    H169005   5.887   3.179  12.706  0.4311 -2.1923  1.5046
15838TIP3    H269006   5.935   3.052  12.639  2.5867 -1.1020  0.9445
15839TIP3   OH269007   0.097   2.787   6.058  0.3062 -0.0493 -0.2966
15839TIP3    H169008   0.146   2.869   6.055 -0.2747  0.3617  1.3608
15839TIP3    H269009   0.030   2.797   5.990  0.5213  0.6611 -0.4094
15840TIP3   OH269010   1.994   3.697   1.413 -0.7349 -0.0985  0.4984
15840TIP3    H169011   1.950   3.724   1.332 -1.4959  1.0233  1.2782
15840TIP3    H269012   1.938   3.731   1.483 -0.0628 -1.0400  1.5003
15841TIP3   OH269013   2.701   6.559  12.397 -0.0047  0.0385 -0.4607
15841TIP3    H169014   2.693   6.477  12.446  0.9302  0.5251  0.5279
15841TIP3    H269015   2.636   6.618  12.437  1.5434  0.8045  0.9878
15842TIP3   OH269016   2.837   1.981  14.203  0.0429  0.0354  0.0890
15842TIP3    H169017   2.878   1.956  14.286 -0.2819 -1.2804 -0.1351
15842TIP3    H269018   2.909   1.983  14.141  0.0926 -0.2463  0.1353
15843TIP3   OH269019   4.939   1.735  13.075 -0.1288  0.3335  0.5410
15843TIP3    H169020   5.007   1.679  13.113 -1.4133 -0.3273  1.9288
15843TIP3    H269021   4.964   1.823  13.103  0.5552  0.1840  0.4305
15844TIP3   OH269022   5.512   1.199  10.968  0.6867  0.1677 -0.1910
15844TIP3    H169023   5.535   1.278  10.919 -1.4077 -0.2614 -1.9410
15844TIP3    H269024   5.424   1.177  10.938  1.1678 -2.7261  0.3896
15845TIP3   OH269025   5.688   5.745  14.006  0.1962  0.0949 -0.0517
15845TIP3    H169026   5.645   5.789  14.079 -2.0504  0.5187 -1.5822
15845TIP3    H269027   5.659   5.654  14.012  0.1105  0.1034 -0.3334
15846TIP3   OH269028   6.027   0.470  14.829  0.3285  0.3232 -0.4848
15846TIP3    H169029   5.990   0.414  14.762  0.5692 -0.0877 -0.2739
15846TIP3    H269030   6.107   0.506  14.790  0.2497  0.4096 -0.5673
15847TIP3   OH269031   1.178   6.433   0.678  0.3076 -0.4620  0.1413
15847TIP3    H169032   1.090   6.414   0.644  0.3019 -2.9116  1.4271
15847TIP3    H269033   1.217   6.489   0.611 -1.3392 -1.4262 -1.6883
15848TIP3   OH269034   2.030   1.236  13.428  0.0285  0.0580 -0.3529
15848TIP3    H169035   2.099   1.285  13.383  0.0045 -0.5734 -1.0826
15848TIP3    H269036   1.968   1.303  13.457  0.0529  0.4722 -1.2458
15849TIP3   OH269037   4.384   5.375   2.569 -0.0090 -0.2641 -0.6014
15849TIP3    H169038   4.415   5.465   2.579 -0.2363 -0.1677 -0.7589
15849TIP3    H269039   4.370   5.345   2.659  2.0269 -0.8442 -0.4457
15850TIP3   OH269040   6.061   3.603  12.851 -0.2145 -0.0135  0.0412
15850TIP3    H169041   5.985   3.600  12.793  0.5407  2.6015 -1.1275
15850TIP3    H269042   6.120   3.537  12.815 -2.4633 -3.2273  1.8827
15851TIP3   OH269043   1.564   0.655   5.293 -0.4125 -0.6902  0.0570
15851TIP3    H169044   1.612   0.589   5.343 -1.8468 -1.0772  0.9419
15851TIP3    H269045   1.625   0.682   5.224  1.1893 -0.9398  1.3526
15852TIP3   OH269046   1.973   3.430   5.568 -0.3579  0.0205  0.2202
15852TIP3    H169047   2.030   3.492   5.523 -0.5001  0.2413  0.3415
15852TIP3    H269048   1.892   3.431   5.517 -0.6359  0.5183  0.6685
15853TIP3   OH269049   6.748   0.787   1.611  0.2469 -0.2483  0.0301
15853TIP3    H169050   6.818   0.721   1.609 -1.2421 -1.9248  1.0343
15853TIP3    H269051   6.714   0.782   1.700 -0.6137  1.1314 -0.2141
15854TIP3   OH269052   3.464   4.046  11.552  0.1721  0.4332  0.7207
15854TIP3    H169053   3.522   4.091  11.490  0.3103  0.5375  0.9282
15854TIP3    H269054   3.486   3.954  11.541  0.8743  0.5291  1.3100
15855TIP3   OH269055   2.532   1.749   3.755  0.3330  0.0970 -0.1681
15855TIP3    H169056   2.548   1.760   3.662  0.9678 -0.4507 -0.1266
15855TIP3    H269057   2.594   1.808   3.798 -0.2556  0.6773 -0.0952
15856TIP3   OH269058   6.687   3.529   2.622 -0.1317  0.1255  0.5546
15856TIP3    H169059   6.733   3.530   2.706 -0.5338  1.3793  0.7727
15856TIP3    H269060   6.727   3.600   2.571  0.2616 -0.7652 -0.4010
15857TIP3   OH269061   2.253   2.847  13.634  0.0827  0.0544  0.3681
15857TIP3    H169062   2.175   2.873  13.683  0.3708  2.5358 -0.4343
15857TIP3    H269063   2.326   2.873  13.689  0.3779  0.0983 -0.0440
15858TIP3   OH269064   1.724   0.035   5.104  0.0875  0.1853 -0.3968
15858TIP3    H169065   1.652  -0.013   5.144 -0.4153  0.4644 -0.9618
15858TIP3    H269066   1.781   0.059   5.178 -0.4169  0.0043  0.0544
15859TIP3   OH269067   3.112   0.742   5.324  0.4176 -0.0560 -0.4220
15859TIP3    H169068   3.173   0.673   5.298  0.3558 -0.3265  0.1395
15859TIP3    H269069   3.101   0.796   5.246  1.1608 -0.1704 -0.6023
15860TIP3   OH269070   6.263   4.398   4.714  0.4074 -0.4565  0.5949
15860TIP3    H169071   6.288   4.379   4.805 -2.0148  0.2686  1.4760
15860TIP3    H269072   6.225   4.486   4.718  1.3629  0.0634 -1.3628
15861TIP3   OH269073   1.755   5.124  17.153  0.8412 -0.3251 -0.1005
15861TIP3    H169074   1.681   5.110  17.093  2.2836 -2.5095 -1.4461
15861TIP3    H269075   1.716   5.121  17.240 -0.9548  0.6531 -0.8310
15862TIP3   OH269076   1.671   2.330   0.085 -0.3754  0.3338 -0.7694
15862TIP3    H169077   1.742   2.335   0.149 -0.0076  2.2226 -1.2744
15862TIP3    H269078   1.601   2.384   0.122 -1.4246 -1.2108 -0.4539
15863TIP3   OH269079   5.230   4.010  11.416 -0.2767 -0.1805  0.2022
15863TIP3    H169080   5.220   4.015  11.511  1.0269  2.1011  0.2501
15863TIP3    H269081   5.324   4.010  11.401 -0.4526  2.3253 -1.1797
15864TIP3   OH269082   0.460   6.678  16.545 -0.2510 -0.2232  0.2801
15864TIP3    H169083   0.527   6.672  16.477 -0.6407 -0.0480 -0.1240
15864TIP3    H269084   0.504   6.649  16.625 -0.2863 -2.2035 -0.3831
15865TIP3   OH269085   5.107   5.571   3.339  0.2206  0.5833 -0.0832
15865TIP3    H169086   5.057   5.551   3.260 -0.5942  0.4400  0.4632
15865TIP3    H269087   5.041   5.597   3.403  0.8744  0.6567  0.5646
15866TIP3   OH269088   6.091   6.344  16.269 -0.0891  0.5496 -0.3274
15866TIP3    H169089   6.185   6.343  16.286 -0.3047  0.8811  0.8632
15866TIP3    H269090   6.078   6.271  16.207  0.8315  0.0335  0.0745
15867TIP3   OH269091   1.593   3.417  13.924 -0.2744  0.8069  0.0912
15867TIP3    H169092   1.613   3.344  13.866 -1.4457  1.1402 -0.7572
15867TIP3    H269093   1.661   3.482  13.906 -1.9472  1.8651 -2.6401
15868TIP3   OH269094   6.377   4.700  17.154 -0.3554 -0.7169 -0.2529
15868TIP3    H169095   6.353   4.758  17.082 -0.4479 -0.7956 -0.2878
15868TIP3    H269096   6.354   4.749  17.233  1.8766  0.3060 -0.2189
15869TIP3   OH269097   3.179   4.087   5.722  0.6303  0.0830 -0.3623
15869TIP3    H169098   3.146   4.161   5.671 -0.9435  0.3705  1.0094
15869TIP3    H269099   3.183   4.120   5.812 -0.3509 -1.5680  0.3093
15870TIP3   OH269100   0.714   4.388   5.308 -0.3850 -0.4680  0.0430
15870TIP3    H169101   0.682   4.304   5.274 -3.4420  0.0197  1.5525
15870TIP3    H269102   0.791   4.365   5.360 -0.2017 -2.1106 -0.9098
15871TIP3   OH269103   3.782   6.542  15.780  0.3855  0.1013 -0.2348
15871TIP3    H169104   3.814   6.471  15.836 -0.1365 -1.1945 -1.5205
15871TIP3    H269105   3.841   6.615  15.797  0.3665 -0.3280  1.8243
15872TIP3   OH269106   2.146   4.553  13.809  0.1436  0.0643  0.2388
15872TIP3    H169107   2.083   4.590  13.747 -1.5396 -1.3834  1.0354
15872TIP3    H269108   2.116   4.581  13.895  2.0267  1.4141  0.4873
15873TIP3   OH269109   4.409   6.331  15.487 -0.4172  0.2417  0.1554
15873TIP3    H169110   4.411   6.241  15.453 -4.0057  0.2129 -0.1824
15873TIP3    H269111   4.388   6.320  15.580  0.8618  0.7007  0.5112
15874TIP3   OH269112   4.658   1.434  11.603 -0.5454  0.1744  0.0022
15874TIP3    H169113   4.681   1.401  11.516  0.2716  0.0497  0.2549
15874TIP3    H269114   4.718   1.508  11.617 -1.1324  0.6145  0.1794
15875TIP3   OH269115   5.271   1.744   1.214  0.0930 -0.0359  0.5367
15875TIP3    H169116   5.359   1.777   1.193 -0.1460  0.3273  0.0969
15875TIP3    H269117   5.252   1.683   1.142  0.1261 -0.3789  0.8180
15876TIP3   OH269118   4.142   1.592   6.489  0.6785 -0.6349  0.0849
15876TIP3    H169119   4.221   1.613   6.538  1.6815  0.2211 -1.8455
15876TIP3    H269120   4.148   1.498   6.471  0.5137 -0.8668  1.1720
15877TIP3   OH269121   0.255   5.866   5.214 -0.4732 -0.3158 -0.3259
15877TIP3    H169122   0.220   5.923   5.282 -2.1259 -0.9870 -0.5956
15877TIP3    H269123   0.349   5.884   5.213 -0.6821  0.8723  1.0143
15878TIP3   OH269124   5.524   4.397  14.630 -0.1725 -0.2470 -0.1394
15878TIP3    H169125   5.552   4.381  14.720  0.9532 -1.0797 -0.6261
15878TIP3    H269126   5.513   4.492  14.625  2.0076  0.0550  0.2511
15879TIP3   OH269127   5.495   4.510  10.796 -0.4271 -0.3122  0.0215
15879TIP3    H169128   5.528   4.472  10.714 -1.8017 -0.6018 -0.4112
15879TIP3    H269129   5.407   4.474  10.805  0.3824 -1.7074  2.5942
15880TIP3   OH269130   1.865   4.394   5.941 -0.0351 -0.0878 -0.1675
15880TIP3    H169131   1.931   4.458   5.915  0.3513 -0.6307 -0.5278
15880TIP3    H269132   1.882   4.379   6.034 -2.1193  2.6875  0.7335
15881TIP3   OH269133   6.128   2.968   3.547  0.5100  0.7846 -0.5683
15881TIP3    H169134   6.106   2.966   3.640  2.1859  0.2519 -0.1572
15881TIP3    H269135   6.089   3.049   3.515 -0.2877  0.8562  0.5479
15882TIP3   OH269136   1.095   0.202  16.978  0.0530  0.6909  0.8483
15882TIP3    H169137   1.060   0.290  16.961 -2.9229 -0.6202 -0.0957
15882TIP3    H269138   1.118   0.168  16.892  1.2205  0.5327  1.2173
15883TIP3   OH269139   3.972   1.331  17.053 -0.0228 -0.1568 -0.6064
15883TIP3    H169140   3.943   1.293  16.970  1.2064  0.9538 -1.5636
15883TIP3    H269141   4.067   1.335  17.046  0.0317  0.7964  0.4789
15884TIP3   OH269142   6.698   6.642  12.876  0.2670 -0.3096  0.4794
15884TIP3    H169143   6.791   6.631  12.898  0.0591 -0.1373  1.4922
15884TIP3    H269144   6.687   6.594  12.794  0.8034 -2.1135  1.4317
15885TIP3   OH269145   2.941   3.771   2.521 -0.0496  0.0970 -0.0524
15885TIP3    H169146   2.962   3.792   2.430  0.2422 -0.9640 -0.2300
15885TIP3    H269147   3.021   3.789   2.569 -0.0125  0.0566 -0.0986
15886TIP3   OH269148   6.238   5.388   0.340 -0.3768  0.2691 -0.1125
15886TIP3    H169149   6.269   5.461   0.287 -0.0727 -0.7303 -1.3422
15886TIP3    H269150   6.315   5.332   0.351 -0.7580 -0.1884  0.2860
15887TIP3   OH269151   4.223   4.048   0.838 -0.1870  0.5355 -0.2279
15887TIP3    H169152   4.157   4.087   0.781  1.2659  0.6211 -1.8915
15887TIP3    H269153   4.306   4.083   0.805  0.7937 -0.6343  0.9677
15888TIP3   OH269154   2.727   5.844   1.663 -0.1294 -0.7215  0.1927
15888TIP3    H169155   2.751   5.782   1.595  0.3642 -0.4039  0.0760
15888TIP3    H269156   2.718   5.791   1.742 -0.7615 -1.0947 -0.1302
15889TIP3   OH269157   6.493   6.580   0.032 -0.1917  0.5568 -0.9857
15889TIP3    H169158   6.542   6.604   0.111 -0.7946 -0.6948 -0.2074
15889TIP3    H269159   6.523   6.491   0.012 -3.0673 -0.7447  0.2587
15890TIP3   OH269160   0.043   1.896   5.052 -0.1001  0.3248  0.3115
15890TIP3    H169161   0.033   1.943   5.135 -0.5717  2.0762 -0.7222
15890TIP3    H269162   0.134   1.910   5.028  0.1149 -0.4246  0.6466
15891TIP3   OH269163   5.327   2.397   4.103  0.3843 -0.5751 -0.7747
15891TIP3    H169164   5.372   2.361   4.027 -1.1284 -2.0435 -0.9991
15891TIP3    H269165   5.386   2.380   4.176  1.0289 -0.8000 -1.3464
15892TIP3   OH269166   4.474   5.052   1.208  0.2213 -0.0478  0.1263
15892TIP3    H169167   4.496   5.131   1.259 -0.7913 -0.0463  0.5755
15892TIP3    H269168   4.420   5.085   1.136  1.9025 -0.0131 -1.1318
15893TIP3   OH269169   0.694   3.379  17.196  0.0880  0.7714  0.6091
15893TIP3    H169170   0.601   3.394  17.210  0.4185  1.9376  1.6328
15893TIP3    H269171   0.713   3.301  17.248 -0.4965 -0.0305 -0.3531
15894TIP3   OH269172   3.532   6.300   5.650  0.3563 -0.2750  0.1287
15894TIP3    H169173   3.590   6.374   5.670 -0.7422  1.5263 -2.9580
15894TIP3    H269174   3.459   6.311   5.711  1.3261 -0.2154  1.3047
15895TIP3   OH269175   0.683   6.344   0.455  0.4467 -0.4909  0.0514
15895TIP3    H169176   0.667   6.250   0.446  1.9074 -0.7627  0.1296
15895TIP3    H269177   0.630   6.370   0.530  0.6965 -1.4271  0.5620
15896TIP3   OH269178   1.844   1.419  13.545  0.5945  0.2930  0.0666
15896TIP3    H169179   1.750   1.437  13.542  0.2671 -1.4868 -0.4534
15896TIP3    H269180   1.878   1.479  13.613 -0.7029  1.7804 -0.5779
15897TIP3   OH269181   3.150   5.060   4.076 -0.4489  0.2980  0.5990
15897TIP3    H169182   3.151   5.001   4.151  0.8442 -1.2542 -0.6260
15897TIP3    H269183   3.206   5.133   4.103 -0.6977  0.1818  1.4630
15898TIP3   OH269184   2.167   0.058  15.939 -0.0020  0.4429  0.5208
15898TIP3    H169185   2.249   0.054  15.987  0.2860  1.3087  0.1164
15898TIP3    H269186   2.176   0.134  15.882 -0.3054 -0.6028 -0.9572
15899TIP3   OH269187   2.042   6.490  12.229  0.1806 -0.0058 -0.1538
15899TIP3    H169188   2.038   6.397  12.250  0.9787  0.2635  1.2960
15899TIP3    H269189   1.966   6.529  12.274  0.2306  0.1369 -0.1912
15900TIP3   OH269190   5.114   1.785   4.941  0.1992  0.0250  0.3119
15900TIP3    H169191   5.039   1.831   4.979 -0.1283  0.4554 -0.8497
15900TIP3    H269192   5.156   1.850   4.885  0.5357 -0.6782 -0.2623
15901TIP3   OH269193   4.397   6.134   3.448  0.1293  0.3467 -0.0458
15901TIP3    H169194   4.364   6.219   3.418  0.2716  0.5394  0.3434
15901TIP3    H269195   4.330   6.102   3.509  0.9425  1.0134  1.2111
15902TIP3   OH269196   2.141   4.780  12.191  0.6205  0.1563  0.0063
15902TIP3    H169197   2.103   4.758  12.276  0.7426  0.2276  0.0777
15902TIP3    H269198   2.097   4.862  12.166  0.0445 -0.2465 -0.3337
15903TIP3   OH269199   4.962   4.212   5.957  0.1371  0.3710  0.2561
15903TIP3    H169200   4.869   4.214   5.979 -0.5197 -1.3515 -2.1486
15903TIP3    H269201   4.996   4.135   6.002  0.3387  0.7796  0.8161
15904TIP3   OH269202   6.150   4.467   3.927  0.4264  0.3662  0.8194
15904TIP3    H169203   6.223   4.422   3.884  1.3519  0.7878  1.9309
15904TIP3    H269204   6.101   4.508   3.855  2.0627  1.2446  0.1805
15905TIP3   OH269205   4.228   0.320   4.551  0.5176  0.1014  0.1421
15905TIP3    H169206   4.133   0.331   4.546  0.3073 -0.7270  1.9287
15905TIP3    H269207   4.243   0.268   4.630  2.4825  0.4775  0.0643
15906TIP3   OH269208   4.337   3.159  15.941 -0.2554  0.0527 -0.0890
15906TIP3    H169209   4.382   3.098  15.999  0.7770  2.3338  1.5933
15906TIP3    H269210   4.406   3.219  15.912 -1.7683  2.1902  0.6446
15907TIP3   OH269211   4.417   1.038  15.442  0.0255 -0.3620  1.1243
15907TIP3    H169212   4.336   1.084  15.467  1.2440  1.6130  1.5580
15907TIP3    H269213   4.414   0.956  15.491 -2.3684 -0.9510  0.0653
15908TIP3   OH269214   1.160   2.252  16.682  0.1212  0.3646 -0.2843
15908TIP3    H169215   1.188   2.330  16.730  0.6340 -0.4048  0.6743
15908TIP3    H269216   1.201   2.261  16.596 -1.8835  2.4200 -1.0794
15909TIP3   OH269217   1.264   1.427   3.747 -0.4876  0.3796  0.2997
15909TIP3    H169218   1.181   1.404   3.790  0.0974 -2.1788  0.1280
15909TIP3    H269219   1.318   1.463   3.817 -0.3205 -1.7223  1.2744
15910TIP3   OH269220   4.941   3.219  14.085 -0.0378 -0.7958 -0.7375
15910TIP3    H169221   4.896   3.296  14.120  0.5814 -0.1890 -1.2788
15910TIP3    H269222   4.871   3.159  14.060 -0.5260 -0.2529 -0.6648
15911TIP3   OH269223   2.402   3.774   1.761 -0.5277 -0.2996 -0.0192
15911TIP3    H169224   2.414   3.857   1.715  0.0217 -0.6189 -0.4581
15911TIP3    H269225   2.308   3.755   1.754 -0.5767  0.0575 -0.3005
15912TIP3   OH269226   2.511   1.551   2.715  0.1507  0.3176 -0.2250
15912TIP3    H169227   2.519   1.630   2.662 -1.1844  2.0428  2.0293
15912TIP3    H269228   2.417   1.541   2.729  0.3531 -1.2792  0.0996
15913TIP3   OH269229   1.211   5.693   2.119  0.0006  0.4572  0.2235
15913TIP3    H169230   1.227   5.612   2.168  0.9319  1.2226  1.2347
15913TIP3    H269231   1.271   5.688   2.045 -1.5516 -0.7987 -0.9693
15914TIP3   OH269232   0.003   6.554  12.364 -0.2874 -0.3891  0.4436
15914TIP3    H169233   0.052   6.489  12.413  0.7615  0.2498  0.2840
15914TIP3    H269234   0.045   6.555  12.277 -0.9586 -0.2436  0.1158
15915TIP3   OH269235   3.436   1.891   2.362  0.3474 -0.3540 -0.7067
15915TIP3    H169236   3.368   1.825   2.351 -0.7278  0.8631 -1.5659
15915TIP3    H269237   3.434   1.941   2.280  2.7653 -0.7403 -1.0411
15916TIP3   OH269238   3.607   0.921  15.752  0.2453 -0.1200 -0.4019
15916TIP3    H169239   3.631   0.994  15.809  2.1895 -1.4129  0.4833
15916TIP3    H269240   3.648   0.943  15.668  0.0093  0.2869 -0.4109
15917TIP3   OH269241   2.662   6.470  13.309 -0.1982 -0.9974  0.5571
15917TIP3    H169242   2.749   6.506  13.323 -0.1258 -1.0350  0.2239
15917TIP3    H269243   2.603   6.542  13.332 -0.0510 -0.6343 -0.1588
15918TIP3   OH269244   6.303   3.894  12.025  0.3424  0.3354 -0.0820
15918TIP3    H169245   6.304   3.970  12.083  1.0845  0.2117  0.0759
15918TIP3    H269246   6.244   3.832  12.068 -1.4932  1.4217 -1.0033
15919TIP3   OH269247   5.279   1.382  14.741  0.1387  0.0703 -0.1131
15919TIP3    H169248   5.274   1.431  14.823 -1.1378  0.5144 -0.4407
15919TIP3    H269249   5.372   1.368  14.727  0.4661  1.5570  0.5002
15920TIP3   OH269250   5.209   1.868   3.543 -0.1163  0.1254  0.4295
15920TIP3    H169251   5.288   1.902   3.501 -0.5183  0.3269 -0.1664
15920TIP3    H269252   5.161   1.946   3.571 -0.7509  0.0404 -0.4046
15921TIP3   OH269253   3.101   1.953   4.914  0.5229  0.1958  0.2058
15921TIP3    H169254   3.194   1.954   4.893  0.2791 -0.7441 -0.9852
15921TIP3    H269255   3.083   1.861   4.937  0.0514  0.5263  1.1877
15922TIP3   OH269256   2.527   1.813   2.611  0.5821  0.2690 -0.4502
15922TIP3    H169257   2.600   1.829   2.551  0.0745  0.8435 -0.9168
15922TIP3    H269258   2.463   1.881   2.591  0.1754  0.1446  0.3809
15923TIP3   OH269259   4.818   0.616   5.214  0.3428 -0.4596 -0.0691
15923TIP3    H169260   4.790   0.550   5.151 -0.5813  0.5112 -0.6937
15923TIP3    H269261   4.788   0.584   5.298 -0.6758 -0.5200 -0.4548
15924TIP3   OH269262   3.754   5.371  16.042  0.3563  0.5191  0.1635
15924TIP3    H169263   3.718   5.377  15.953  0.0832  0.3230  0.2613
15924TIP3    H269264   3.772   5.462  16.066 -1.1758  0.7132  0.5704
15925TIP3   OH269265   4.453   3.007   2.735  0.8682 -0.1116 -0.2185
15925TIP3    H169266   4.406   3.085   2.764 -3.4847 -2.4106 -0.6835
15925TIP3    H269267   4.514   2.988   2.806  0.5539  2.5335  0.8101
15926TIP3   OH269268   1.478   5.161  17.022  0.0199  0.0770 -0.4551
15926TIP3    H169269   1.403   5.134  17.075  0.8698 -1.3754  0.0402
15926TIP3    H269270   1.441   5.187  16.938 -1.1702  0.7507  0.2626
15927TIP3   OH269271   6.611   4.702   2.834 -0.9594  0.0613  0.0295
15927TIP3    H169272   6.569   4.682   2.918 -1.0334 -0.4808 -0.1405
15927TIP3    H269273   6.629   4.617   2.795 -0.1175  0.2970 -0.1045
15928TIP3   OH269274   0.991   1.514  17.197 -0.4264 -0.0161  0.1102
15928TIP3    H169275   1.065   1.561  17.235  0.4383 -1.8582  0.7674
15928TIP3    H269276   0.977   1.556  17.113  2.6901 -0.8917 -0.9237
15929TIP3   OH269277   4.839   3.989  10.589 -0.2307  0.3889  0.0151
15929TIP3    H169278   4.893   3.963  10.663  1.9339  1.1449 -1.2490
15929TIP3    H269279   4.753   3.952  10.608  0.6304 -0.5672  2.2344
15930TIP3   OH269280   1.292   4.217  15.897 -0.0351 -0.1417 -0.1042
15930TIP3    H169281   1.380   4.182  15.889  0.1641  0.3213  0.0793
15930TIP3    H269282   1.292   4.266  15.979 -1.2753 -2.5450  1.3976
15931TIP3   OH269283   2.464   0.370  14.113  0.1370 -0.2662 -0.0287
15931TIP3    H169284   2.510   0.385  14.195 -0.3027 -1.2255  0.4036
15931TIP3    H269285   2.499   0.436  14.053  2.0396 -0.9296  0.3029
15932TIP3   OH269286   5.523   4.580   5.470  0.1021  0.0418  0.3863
15932TIP3    H169287   5.506   4.536   5.386 -0.7284 -1.2386  1.2054
15932TIP3    H269288   5.574   4.658   5.447  1.2128 -1.1109 -1.1456
15933TIP3   OH269289   6.264   3.220   5.919  0.1581 -0.3018  0.0034
15933TIP3    H169290   6.323   3.164   5.970  1.5439  0.7705 -0.3906
15933TIP3    H269291   6.218   3.272   5.984  1.7214  0.8663  0.2191
15934TIP3   OH269292   3.524   1.746   2.831 -0.5552  0.4410 -0.3988
15934TIP3    H169293   3.581   1.817   2.800  2.3050 -1.3976  0.4318
15934TIP3    H269294   3.525   1.756   2.926 -2.1109  0.7222 -0.4092
15935TIP3   OH269295   6.675   2.670   2.599 -0.0952  0.4574 -0.7223
15935TIP3    H169296   6.587   2.706   2.615 -0.4049 -0.5870 -0.0341
15935TIP3    H269297   6.687   2.679   2.504 -1.4235 -0.4695 -0.9864
15936TIP3   OH269298   5.156   2.700  12.547 -0.5305  0.1994  0.1750
15936TIP3    H169299   5.150   2.672  12.455  0.5857 -0.6357  0.3456
15936TIP3    H269300   5.162   2.795  12.543  0.9490  0.0914 -0.7154
15937TIP3   OH269301   6.169   3.741   3.973  0.5624 -0.3380 -0.5843
15937TIP3    H169302   6.239   3.756   4.036  0.9254  0.8335 -1.2668
15937TIP3    H269303   6.109   3.681   4.019  2.0160 -1.3929 -0.0299
15938TIP3   OH269304   5.550   5.485  16.589  0.5690 -0.2095 -0.1379
15938TIP3    H169305   5.601   5.564  16.606  1.1083 -0.8462  1.2502
15938TIP3    H269306   5.615   5.415  16.584 -0.0006 -0.7361 -0.3077
15939TIP3   OH269307   2.292   6.562   2.397 -0.1922 -0.0769  0.2578
15939TIP3    H169308   2.204   6.550   2.361 -1.2634  1.9819  2.0990
15939TIP3    H269309   2.279   6.609   2.479  2.6466  0.3933  0.5020
15940TIP3   OH269310   0.443   5.111  12.791  0.0954 -0.2859 -0.2140
15940TIP3    H169311   0.427   5.164  12.713  1.4909 -0.7572 -0.8391
15940TIP3    H269312   0.492   5.035  12.760  1.1295 -0.2256  1.1704
15941TIP3   OH269313   5.396   5.050  10.752 -0.0615  0.8559  0.0688
15941TIP3    H169314   5.442   4.966  10.742  0.3481  1.1744 -0.7888
15941TIP3    H269315   5.444   5.096  10.821  1.2837  1.4101 -1.1904
15942TIP3   OH269316   1.993   2.611   3.075  0.7196 -0.4777 -0.5873
15942TIP3    H169317   2.070   2.555   3.082  1.2823  0.5264  1.9394
15942TIP3    H269318   2.018   2.680   3.014  1.7816 -0.2863  0.0447
15943TIP3   OH269319   2.243   6.477   1.381 -0.2214 -0.0405 -0.2818
15943TIP3    H169320   2.297   6.524   1.446  0.5136 -0.8482 -0.2982
15943TIP3    H269321   2.156   6.515   1.391 -0.4714 -1.1133  2.1888
15944TIP3   OH269322   3.069   2.473  12.356 -0.2195 -0.3827  0.8678
15944TIP3    H169323   3.095   2.453  12.266 -0.2029 -2.6887  1.3603
15944TIP3    H269324   3.049   2.566  12.355 -1.2895 -0.5973 -1.7903
15945TIP3   OH269325   6.255   2.355  11.018 -0.1514 -0.6260  0.2828
15945TIP3    H169326   6.331   2.297  11.024 -1.1728 -2.0272 -0.0066
15945TIP3    H269327   6.206   2.338  11.098 -0.8895 -0.7792 -0.1979
15946TIP3   OH269328   6.459   5.797  15.575 -0.3028 -0.0650 -0.4050
15946TIP3    H169329   6.463   5.853  15.653 -0.1456  0.8403 -1.0484
15946TIP3    H269330   6.551   5.788  15.548 -0.2402 -1.4475  0.2609
15947TIP3   OH269331   0.171   3.594   1.398  0.0224 -0.4061 -0.2464
15947TIP3    H169332   0.196   3.515   1.445  1.7175  1.6904  2.5375
15947TIP3    H269333   0.243   3.610   1.337 -0.3005 -0.9841 -0.7769
15948TIP3   OH269334   3.435   6.343  11.551  0.0181 -0.0125  0.3149
15948TIP3    H169335   3.428   6.437  11.532 -0.2832  0.0663  0.7981
15948TIP3    H269336   3.345   6.311  11.545  0.1055 -0.2486  0.2698
15949TIP3   OH269337   6.820   3.295  11.586 -0.1746  0.1090 -0.2269
15949TIP3    H169338   6.724   3.297  11.590 -0.2295 -1.6545 -0.0843
15949TIP3    H269339   6.845   3.228  11.650  1.3123  2.2622  1.5219
15950TIP3   OH269340   2.649   6.254   2.733 -0.3889 -0.2880 -0.3689
15950TIP3    H169341   2.611   6.181   2.782  1.9263 -0.1715  1.6824
15950TIP3    H269342   2.725   6.217   2.689 -0.7588  0.3000 -1.5519
15951TIP3   OH269343   3.575   4.584  12.094 -0.1914 -0.2571  0.1548
15951TIP3    H169344   3.491   4.544  12.072 -1.1567  1.0682  1.3293
15951TIP3    H269345   3.557   4.678  12.095  0.6238 -0.0794  3.1115
15952TIP3   OH269346   0.589   4.639   5.983  0.0907 -0.4908  0.3430
15952TIP3    H169347   0.675   4.680   5.990  0.1915 -0.7979  1.0116
15952TIP3    H269348   0.532   4.694   6.037 -0.3290  0.2055 -0.7860
15953TIP3   OH269349   6.039   3.327  16.722 -0.0969 -0.6147 -0.3181
15953TIP3    H169350   5.959   3.321  16.670  0.3677 -0.7465 -1.0366
15953TIP3    H269351   6.092   3.394  16.678  0.1537 -0.4717  0.1942
15954TIP3   OH269352   4.746   4.372   0.011  0.1086 -0.0419  0.4637
15954TIP3    H169353   4.716   4.454  -0.029 -0.8454 -0.0716  1.1011
15954TIP3    H269354   4.827   4.395   0.056  0.9997  0.0749 -1.1491
15955TIP3   OH269355   6.278   1.125  12.285  0.7126 -0.3423  0.1991
15955TIP3    H169356   6.261   1.182  12.210 -0.0466 -1.0585 -0.1843
15955TIP3    H269357   6.220   1.157  12.353  1.7022  0.5737  0.6333
15956TIP3   OH269358   0.732   2.910  15.923 -0.1442  0.0818  0.0247
15956TIP3    H169359   0.820   2.937  15.896  0.1652  1.0467  1.8751
15956TIP3    H269360   0.737   2.906  16.019 -1.0324 -3.6804 -0.0131
15957TIP3   OH269361   4.955   4.368  14.004 -0.2539  0.4289 -0.4640
15957TIP3    H169362   4.866   4.378  13.969 -0.6381 -3.3669 -0.7679
15957TIP3    H269363   5.009   4.423  13.947 -2.1470  1.4203 -1.3714
15958TIP3   OH269364   4.689   3.191  16.758  0.4466 -0.2900  0.4288
15958TIP3    H169365   4.750   3.264  16.750 -0.4762  0.5904  1.2824
15958TIP3    H269366   4.745   3.113  16.761  1.4177  0.3387 -0.8332
15959TIP3   OH269367   2.227   3.744  11.813 -0.0463  0.6552 -0.6015
15959TIP3    H169368   2.307   3.797  11.815 -0.6334  1.4980  0.8676
15959TIP3    H269369   2.167   3.789  11.872 -1.5300 -0.1083 -1.5144
15960TIP3   OH269370   1.209   3.931   3.863  0.0850 -0.0005  0.3383
15960TIP3    H169371   1.144   3.885   3.810 -0.1434  1.8153 -1.0234
15960TIP3    H269372   1.285   3.873   3.865 -0.2383 -0.5117 -1.2424
15961TIP3   OH269373   4.293   4.751   4.543 -0.0751 -0.5775 -0.1704
15961TIP3    H169374   4.204   4.722   4.525 -0.0478 -0.5221 -0.3851
15961TIP3    H269375   4.283   4.839   4.580 -0.1760 -0.9480  0.7048
15962TIP3   OH269376   5.946   2.140  16.121  0.1692 -0.1687  0.6728
15962TIP3    H169377   5.989   2.205  16.066 -1.0733  0.0121 -0.1214
15962TIP3    H269378   5.993   2.142  16.204  0.0300  1.8459  0.7058
15963TIP3   OH269379   2.218   3.853  14.402  0.0786 -0.5269  0.3199
15963TIP3    H169380   2.216   3.758  14.387 -0.7288 -0.7915  1.9720
15963TIP3    H269381   2.187   3.863  14.492  0.1789  1.3165  0.1550
15964TIP3   OH269382   3.909   3.033   2.660  0.0957  0.2356 -0.4662
15964TIP3    H169383   3.934   2.963   2.720 -2.4155  1.4972  2.1844
15964TIP3    H269384   3.963   3.107   2.687 -1.1624  0.8538  0.4307
15965TIP3   OH269385   1.163   5.789  11.969 -0.0939  0.1920  0.1788
15965TIP3    H169386   1.160   5.826  11.881  1.6313 -1.6753 -0.7133
15965TIP3    H269387   1.249   5.815  12.003  0.9326 -2.3830 -0.2640
15966TIP3   OH269388   6.282   0.293  10.854  0.0162 -0.0631 -0.3065
15966TIP3    H169389   6.321   0.307  10.941 -1.3690  1.7854  0.0344
15966TIP3    H269390   6.324   0.357  10.798  0.2173 -0.6241 -0.8039
15967TIP3   OH269391   0.389   1.623   0.349 -0.0321 -0.0910  0.0448
15967TIP3    H169392   0.387   1.675   0.268  1.2063  0.5685  0.4218
15967TIP3    H269393   0.471   1.649   0.392  1.4650 -3.4984 -0.5132
15968TIP3   OH269394   3.261   3.656  11.763  0.2441 -0.9222  0.1970
15968TIP3    H169395   3.191   3.685  11.705 -0.1682 -2.7922 -0.2504
15968TIP3    H269396   3.326   3.616  11.706  1.7646  0.8807  0.5946
15969TIP3   OH269397   5.563   5.124   2.670  0.0579  0.0620 -0.5512
15969TIP3    H169398   5.605   5.172   2.599 -0.1625  1.0235 -0.0262
15969TIP3    H269399   5.496   5.183   2.704  0.5240 -0.1889  0.8313
15970TIP3   OH269400   2.961   3.313   6.181  0.3130 -0.8725  0.1205
15970TIP3    H169401   3.018   3.237   6.168  0.6986 -0.3952 -1.0116
15970TIP3    H269402   2.998   3.358   6.257  1.3289 -0.6584 -0.4970
15971TIP3   OH269403   0.752   1.609  13.032 -0.0696 -0.1877 -0.0896
15971TIP3    H169404   0.714   1.575  13.113  0.7604 -0.0053  0.3745
15971TIP3    H269405   0.840   1.570  13.028  0.1902  0.4360 -0.4981
15972TIP3   OH269406   3.646   5.525  15.825 -0.2716  0.3446 -0.2436
15972TIP3    H169407   3.564   5.487  15.856  0.8277 -1.3225  0.6727
15972TIP3    H269408   3.644   5.615  15.857 -1.3945  0.0991  0.4086
15973TIP3   OH269409   2.490   5.123   0.583 -0.4380 -0.0512  0.4778
15973TIP3    H169410   2.528   5.211   0.588 -3.0317  1.0162  2.9563
15973TIP3    H269411   2.408   5.135   0.537 -1.4246 -0.9033  1.9637
15974TIP3   OH269412   5.817   2.829  16.840 -0.2302  0.5661 -0.0375
15974TIP3    H169413   5.759   2.857  16.769 -0.3835 -0.0147 -0.1400
15974TIP3    H269414   5.902   2.818  16.798 -0.6023 -1.0633 -0.4155
15975TIP3   OH269415   1.107   4.537  12.514 -0.1693 -0.3535  0.6175
15975TIP3    H169416   1.094   4.569  12.425  1.6343  0.1175  0.4971
15975TIP3    H269417   1.167   4.463  12.505  1.7120  0.9765  1.5798
15976TIP3   OH269418   5.968   1.485   3.582 -0.2525  0.1668  0.0265
15976TIP3    H169419   5.921   1.435   3.649  0.4647  0.2098  0.5677
15976TIP3    H269420   5.941   1.575   3.596 -0.1673  0.1644  0.2115
15977TIP3   OH269421   0.890   5.958  13.283  0.1701  0.1001  0.4421
15977TIP3    H169422   0.868   6.008  13.361  1.3306  1.4852 -0.0884
15977TIP3    H269423   0.986   5.951  13.285  0.6869  4.1395 -3.1585
15978TIP3   OH269424   6.139   1.386  16.571 -0.1700  0.3534 -0.1932
15978TIP3    H169425   6.200   1.412  16.502  0.6980 -1.6158 -0.2334
15978TIP3    H269426   6.168   1.434  16.648 -1.2993  2.7601 -1.2231
15979TIP3   OH269427   5.407   0.965  12.427 -0.2876  0.0903  0.0279
15979TIP3    H169428   5.312   0.976  12.428 -0.4009 -0.8935  1.7622
15979TIP3    H269429   5.425   0.917  12.346 -1.3497 -0.2980  0.0193
15980TIP3   OH269430   3.684   6.166  15.765  0.0179 -0.3008  0.1229
15980TIP3    H169431   3.631   6.094  15.730 -0.7293  0.2020  0.1943
15980TIP3    H269432   3.768   6.158  15.720  0.0910 -1.4869  0.4591
15981TIP3   OH269433   2.340   3.107  10.978  0.1388  0.4478 -0.9286
15981TIP3    H169434   2.399   3.172  10.939  0.5691 -0.5731 -2.0148
15981TIP3    H269435   2.264   3.105  10.920 -0.0718  0.3061 -0.6513
15982TIP3   OH269436   1.197   0.898   6.518 -0.0732 -0.0078  0.1600
15982TIP3    H169437   1.174   0.981   6.560 -0.0669 -0.8025  1.7810
15982TIP3    H269438   1.159   0.831   6.575 -0.3460 -1.1122 -1.3002
15983TIP3   OH269439   5.221   4.642  12.457  0.4883 -0.0632  0.0280
15983TIP3    H169440   5.191   4.601  12.376  0.0505 -1.5647  0.9500
15983TIP3    H269441   5.144   4.646  12.513  0.5353  1.9787 -0.0129
15984TIP3   OH269442   2.981   6.537  16.734 -0.9009  0.2404  0.0121
15984TIP3    H169443   2.985   6.491  16.650  0.5803  0.7048 -0.1953
15984TIP3    H269444   3.072   6.543  16.762 -1.2977  0.9731  1.1741
15985TIP3   OH269445   4.229   3.860  14.073  0.2789 -0.1237 -0.0224
15985TIP3    H169446   4.194   3.936  14.120  0.3964 -0.1961  0.1827
15985TIP3    H269447   4.241   3.793  14.141  0.8085 -0.0996 -0.0928
15986TIP3   OH269448   3.482   3.593  12.885 -0.0047  0.3423  0.3223
15986TIP3    H169449   3.542   3.667  12.882 -0.1343  0.4038 -0.9322
15986TIP3    H269450   3.397   3.630  12.862  0.0170 -0.2680 -0.8010
15987TIP3   OH269451   0.875   5.959   2.264  0.1853 -0.1121 -0.2033
15987TIP3    H169452   0.964   5.934   2.286  0.0711 -0.6450 -0.3498
15987TIP3    H269453   0.848   6.017   2.335 -0.0911 -1.6129  0.9395
15988TIP3   OH269454   0.378   1.100   5.938 -0.6171 -0.5684 -0.1718
15988TIP3    H169455   0.312   1.070   5.876 -0.3215 -0.3643 -0.5820
15988TIP3    H269456   0.438   1.025   5.947  0.9226  0.3537 -2.2738
15989TIP3   OH269457   1.695   5.861  11.379  0.2393  0.0303  0.5123
15989TIP3    H169458   1.767   5.905  11.424 -0.6712  0.7872  1.2403
15989TIP3    H269459   1.668   5.924  11.311 -0.0346 -0.0637  0.5355
15990TIP3   OH269460   5.662   3.094   2.643  0.1393 -0.1729  0.3535
15990TIP3    H169461   5.635   3.180   2.676  1.1945  0.1085  0.4843
15990TIP3    H269462   5.751   3.107   2.611 -0.1116 -0.9480 -0.6863
15991TIP3   OH269463   3.092   1.141   6.144 -0.0535 -0.6966 -0.1946
15991TIP3    H169464   3.110   1.156   6.236  2.3252 -1.2742 -0.5314
15991TIP3    H269465   3.151   1.069   6.119  1.1052  1.0531 -2.7110
15992TIP3   OH269466   0.085   5.022   5.170 -0.2631 -0.4681 -0.9023
15992TIP3    H169467   0.150   4.953   5.158 -0.9899 -1.6476  1.5245
15992TIP3    H269468   0.135   5.097   5.201  0.0597 -1.1275  0.2103
15993TIP3   OH269469   5.164   3.110  14.465 -0.0708  0.3540 -0.1291
15993TIP3    H169470   5.239   3.093  14.408 -1.1600 -0.8207 -1.2175
15993TIP3    H269471   5.190   3.073  14.550 -0.8798 -3.4651 -1.4544
15994TIP3   OH269472   5.887   6.814   3.930  0.1133  0.1869 -0.2271
15994TIP3    H169473   5.912   6.828   4.021  1.2104 -0.5126 -0.4109
15994TIP3    H269474   5.837   6.892   3.907  1.1227  1.0818  0.5235
15995TIP3   OH269475   5.987   3.157  15.414 -0.0737  0.0301  0.0707
15995TIP3    H169476   5.979   3.236  15.360 -1.3610 -0.5857 -0.6685
15995TIP3    H269477   6.016   3.089  15.353 -0.6028 -0.4419  0.3384
15996TIP3   OH269478   2.807   2.355   0.321  0.3177  0.2175 -0.8944
15996TIP3    H169479   2.730   2.379   0.268  0.6601 -1.3669 -2.1581
15996TIP3    H269480   2.783   2.271   0.360  1.3314 -0.1655 -1.1035
15997TIP3   OH269481   2.082   1.067  13.149  0.4900  0.0936 -0.8809
15997TIP3    H169482   2.160   1.117  13.174 -0.3915  0.0072  2.3022
15997TIP3    H269483   2.084   0.989  13.205 -0.9065 -0.8528 -2.0938
15998TIP3   OH269484   4.957   3.294   1.756 -0.2591  0.0436 -0.5887
15998TIP3    H169485   4.993   3.382   1.750 -0.2500  0.0371 -0.6288
15998TIP3    H269486   4.877   3.305   1.808  0.2369 -0.0679  0.2200
15999TIP3   OH269487   2.938   4.069   0.870 -0.2154 -0.1265  0.0352
15999TIP3    H169488   2.874   4.083   0.940  1.0931  1.5957  0.9272
15999TIP3    H269489   2.896   4.104   0.792 -0.4599  0.8448  0.5838
16000TIP3   OH269490   3.746   6.165  12.024 -0.0222  0.0873  0.1665
16000TIP3    H169491   3.729   6.076  11.992 -0.4691  0.6828 -1.2936
16000TIP3    H269492   3.660   6.207  12.025  0.3420  0.8609 -0.2953
16001TIP3   OH269493   5.146   2.150  11.999  0.7612  0.3503 -0.3203
16001TIP3    H169494   5.190   2.096  11.934  1.8483  1.0652 -0.1879
16001TIP3    H269495   5.053   2.133  11.986  1.0818 -1.3126 -0.4782
16002TIP3   OH269496   2.466   3.470   2.410 -0.5770 -0.2034  0.4016
16002TIP3    H169497   2.381   3.513   2.400 -0.6184 -0.6432 -1.4223
16002TIP3    H269498   2.529   3.531   2.373 -0.0455  0.2228  1.9645
16003TIP3   OH269499   4.098   3.111  12.220 -0.1992  0.2913 -0.6101
16003TIP3    H169500   4.033   3.072  12.161 -1.4598  1.9366 -0.3458
16003TIP3    H269501   4.065   3.090  12.308  1.6720 -2.1555 -0.4382
16004TIP3   OH269502   2.143   6.423  10.619 -0.3140  0.0030 -0.1316
16004TIP3    H169503   2.221   6.423  10.674 -2.0496  0.5465  2.4011
16004TIP3    H269504   2.160   6.357  10.552  2.0653 -0.2928  0.7487
16005TIP3   OH269505   2.423   0.701  14.307  0.0639 -0.2096 -0.1576
16005TIP3    H169506   2.435   0.714  14.213  0.2120 -0.4809 -0.1751
16005TIP3    H269507   2.503   0.734  14.347  0.1270 -0.3725 -0.1488
16006TIP3   OH269508   3.525   0.130   3.512  0.1877  0.0094  0.1233
16006TIP3    H169509   3.525   0.205   3.452  1.1643 -0.5489 -0.5878
16006TIP3    H269510   3.433   0.116   3.533 -0.0147  1.3180  0.1499
16007TIP3   OH269511   0.668   1.808  12.753 -0.3679  0.2366 -0.3775
16007TIP3    H169512   0.688   1.801  12.846 -0.0256  0.0117 -0.4692
16007TIP3    H269513   0.602   1.877  12.748 -1.2614 -0.5787  0.1510
16008TIP3   OH269514   2.921   4.337   2.682  0.0413  1.0297  0.7696
16008TIP3    H169515   2.983   4.397   2.639  0.3041 -0.4647 -0.9695
16008TIP3    H269516   2.976   4.265   2.713 -0.4964  0.9275  1.4897
16009TIP3   OH269517   2.086   5.224  13.876 -0.8140  0.2810 -0.6458
16009TIP3    H169518   2.108   5.251  13.787  4.0404 -0.6244  0.1750
16009TIP3    H269519   2.084   5.129  13.873  0.1216  0.2160  0.3449
16010TIP3   OH269520   2.330   2.875   6.033 -0.3486 -0.3201 -0.2025
16010TIP3    H169521   2.260   2.857   6.097 -0.5056  1.7612  0.2398
16010TIP3    H269522   2.376   2.951   6.069  0.3899  0.0514 -1.9106
16011TIP3   OH269523   3.340   4.707   3.206  0.0741  0.3410 -0.5588
16011TIP3    H169524   3.414   4.741   3.256 -1.8958  1.7954  1.4579
16011TIP3    H269525   3.350   4.745   3.118  1.2638  1.1336 -0.0884
16012TIP3   OH269526   6.191   6.078  15.123  0.1695  0.0090 -0.2093
16012TIP3    H169527   6.159   6.161  15.159 -0.2132 -0.0123 -0.4946
16012TIP3    H269528   6.208   6.098  15.030 -0.8325 -0.4699 -0.5080
16013TIP3   OH269529   3.711   1.522   3.036 -0.0188  0.2038  0.2180
16013TIP3    H169530   3.672   1.439   3.006  2.1062 -0.6034 -0.4015
16013TIP3    H269531   3.636   1.575   3.064 -1.5543 -1.2768 -0.9920
16014TIP3   OH269532   5.063   2.610  12.791 -0.1813 -0.0158 -0.3086
16014TIP3    H169533   5.084   2.517  12.788 -0.2921 -0.0166 -1.0576
16014TIP3    H269534   5.081   2.642  12.703  0.4616  0.8053  0.1125
16015TIP3   OH269535   2.320   1.687   4.598  0.2397  0.0375  0.1672
16015TIP3    H169536   2.262   1.612   4.615  1.0620 -0.9165 -1.1542
16015TIP3    H269537   2.395   1.672   4.655  0.5592 -0.3194 -0.3507
16016TIP3   OH269538   2.627   5.834   5.685  0.8457 -0.6752  0.3289
16016TIP3    H169539   2.581   5.887   5.620  2.7910  0.5065 -0.1364
16016TIP3    H269540   2.562   5.816   5.752 -0.0032  1.9627  0.2783
16017TIP3   OH269541   1.092   3.140  13.177  0.2070 -0.1440 -0.0137
16017TIP3    H169542   1.015   3.101  13.135 -0.4438 -0.9131  1.8433
16017TIP3    H269543   1.071   3.140  13.270  1.2847  2.3187  0.2602
16018TIP3   OH269544   3.300   6.048  17.143 -0.1261 -0.9404 -0.0705
16018TIP3    H169545   3.207   6.058  17.122 -0.2676 -0.2215  0.8552
16018TIP3    H269546   3.303   6.039  17.238  0.6353 -2.5629 -0.2380
16019TIP3   OH269547   0.539   2.107   2.747  0.2162  0.0342 -0.5750
16019TIP3    H169548   0.506   2.017   2.746 -0.5653  0.3158 -0.2956
16019TIP3    H269549   0.504   2.145   2.828  1.0459  0.4048 -0.3863
16020TIP3   OH269550   4.528   6.637  16.956 -0.4088  0.0212 -0.2968
16020TIP3    H169551   4.434   6.639  16.939 -0.6264 -3.8771 -0.0554
16020TIP3    H269552   4.535   6.624  17.051  0.4653  2.4076  0.0054
16021TIP3   OH269553   3.365   5.972   0.423 -0.4713  0.0593  0.0422
16021TIP3    H169554   3.337   5.999   0.510 -0.2978  1.3347 -0.2846
16021TIP3    H269555   3.454   5.939   0.435 -1.4298 -2.4110  0.7990
16022TIP3   OH269556   4.313   4.868  17.127  0.5971  0.5737  0.5933
16022TIP3    H169557   4.296   4.922  17.205 -2.0882 -0.8591  1.0551
16022TIP3    H269558   4.250   4.900  17.062  0.5201 -0.5062  0.1356
16023TIP3   OH269559   0.840   5.593   5.903  0.8327 -0.0766  0.0900
16023TIP3    H169560   0.842   5.536   5.980  0.5845  0.2773  0.3613
16023TIP3    H269561   0.747   5.601   5.882  0.8308  0.6566  0.3757
16024TIP3   OH269562   4.785   5.399  10.976  0.1174 -0.4970 -0.2301
16024TIP3    H169563   4.753   5.340  10.908  0.6810 -0.1180 -0.8421
16024TIP3    H269564   4.740   5.482  10.959  0.3208 -0.3784 -0.1966
16025TIP3   OH269565   6.478   6.049  11.948 -0.0858 -0.1788  0.5538
16025TIP3    H169566   6.418   6.075  12.019  1.7381  3.3784  0.9077
16025TIP3    H269567   6.563   6.043  11.990  0.5607 -0.7530 -0.8333
16026TIP3   OH269568   4.284   2.049   3.262  0.1708 -0.0177  1.1168
16026TIP3    H169569   4.221   2.068   3.192 -1.6819  1.9712  3.2821
16026TIP3    H269570   4.349   2.119   3.255  1.0829 -0.9173  0.2081
16027TIP3   OH269571   3.457   0.329  16.112  0.1525 -0.0545  0.4100
16027TIP3    H169572   3.373   0.342  16.068  1.0000  0.5689 -1.0938
16027TIP3    H269573   3.436   0.323  16.205 -1.6487 -0.8285 -0.0270
16028TIP3   OH269574   0.844   0.350  15.456  0.1805 -0.6428  0.4116
16028TIP3    H169575   0.922   0.389  15.496  0.0863 -0.1099  0.0812
16028TIP3    H269576   0.771   0.388  15.505  0.0156  0.7938 -0.9093
16029TIP3   OH269577   2.154   2.424  14.694 -0.1546  0.0850 -0.3715
16029TIP3    H169578   2.124   2.361  14.760 -1.1446 -0.7646 -1.5973
16029TIP3    H269579   2.074   2.454  14.651  0.5159  0.1362 -1.6145
16030TIP3   OH269580   1.146   4.460   4.407  0.2646  0.8206  0.1035
16030TIP3    H169581   1.051   4.466   4.416  0.1978 -0.1678  0.0892
16030TIP3    H269582   1.160   4.388   4.345  0.9922  1.6552 -0.7111
16031TIP3   OH269583   3.104   2.225  16.338 -0.2499  0.7957 -0.7060
16031TIP3    H169584   3.151   2.222  16.255  0.5174  2.1329 -0.3396
16031TIP3    H269585   3.165   2.266  16.399  0.3332 -2.8558  1.3030
16032TIP3   OH269586   4.203   5.984  11.195 -0.2165 -1.2085  0.6054
16032TIP3    H169587   4.272   5.918  11.197 -0.0299 -1.0359 -0.1680
16032TIP3    H269588   4.197   6.011  11.104 -1.0593 -0.9576  0.7274
16033TIP3   OH269589   0.827   0.912   5.787  0.5386 -0.4423 -0.4263
16033TIP3    H169590   0.747   0.886   5.741  0.6435 -1.7390  0.1001
16033TIP3    H269591   0.803   0.909   5.879  0.7030  0.8889 -0.3272
16034TIP3   OH269592   0.645   2.904  16.212 -0.2468 -0.2388  0.3932
16034TIP3    H169593   0.653   2.898  16.308 -1.3525  0.2663  0.5193
16034TIP3    H269594   0.559   2.867  16.193 -0.5101  0.7079 -0.2918
16035TIP3   OH269595   6.274   2.429   0.636  0.1007  0.0194 -0.2125
16035TIP3    H169596   6.298   2.511   0.680 -0.2222  0.0858 -0.1609
16035TIP3    H269597   6.312   2.361   0.691 -0.7193  0.0848  0.4314
16036TIP3   OH269598   6.393   0.326  13.918 -0.2654 -0.2645 -0.0284
16036TIP3    H169599   6.358   0.380  13.847  0.4523  0.0196 -0.1777
16036TIP3    H269600   6.466   0.279  13.878 -0.2171 -0.5386  0.3798
16037TIP3   OH269601   4.504   1.150   4.151  0.0986 -0.5040  0.0124
16037TIP3    H169602   4.425   1.192   4.186  1.2964  0.5273  1.5247
16037TIP3    H269603   4.501   1.167   4.057 -1.0964  0.1727  0.1685
16038TIP3   OH269604   0.455   2.111  13.350 -0.5757  0.1577 -0.6318
16038TIP3    H169605   0.473   2.198  13.385 -1.0581  0.8904 -2.1884
16038TIP3    H269606   0.537   2.063  13.363 -0.5984  0.5437  1.0600
16039TIP3   OH269607   3.762   0.324  16.904 -0.5741  0.4057 -0.1068
16039TIP3    H169608   3.735   0.416  16.896  2.8115  1.6348  1.5787
16039TIP3    H269609   3.758   0.306  16.998 -0.3237 -0.8890 -0.3321
16040TIP3   OH269610   4.621   6.802  12.212 -0.0859  0.0962 -0.3057
16040TIP3    H169611   4.550   6.816  12.150 -0.1498  0.6766 -0.1047
16040TIP3    H269612   4.606   6.714  12.248  0.2454 -0.4537 -1.4910
16041TIP3   OH269613   2.301   0.792   1.866  0.1278  0.3527 -0.3520
16041TIP3    H169614   2.390   0.757   1.868 -0.1041 -0.1611  1.5353
16041TIP3    H269615   2.291   0.828   1.777  2.1950  0.3992 -0.5765
16042TIP3   OH269616   2.325   3.347   3.826  0.8804  0.5324  0.0029
16042TIP3    H169617   2.405   3.366   3.778  1.0188 -0.6724 -0.2376
16042TIP3    H269618   2.339   3.261   3.865 -0.4094  0.1683 -0.3017
16043TIP3   OH269619   1.162   4.031   5.760 -0.1555  0.0095  0.8582
16043TIP3    H169620   1.147   3.963   5.695  2.2274  0.6004 -0.3609
16043TIP3    H269621   1.080   4.080   5.763 -0.7355 -0.8459 -0.7031
16044TIP3   OH269622   0.650   2.132  16.017 -0.5360  0.2386  0.2640
16044TIP3    H169623   0.652   2.227  16.024 -2.9650  0.5782 -2.6725
16044TIP3    H269624   0.593   2.103  16.088  0.1317  0.9629  1.1038
16045TIP3   OH269625   1.517   4.937   5.996 -0.5683  0.4909 -0.4348
16045TIP3    H169626   1.421   4.930   5.996 -0.4896 -0.8735 -0.0902
16045TIP3    H269627   1.540   4.952   5.904 -1.0018 -1.4016 -0.8837
16046TIP3   OH269628   0.823   5.099  16.367  0.1354 -0.2873 -0.1849
16046TIP3    H169629   0.903   5.145  16.391  0.5350 -0.2182 -1.5681
16046TIP3    H269630   0.805   5.041  16.441  0.5735  0.8568  0.8237
16047TIP3   OH269631   0.598   5.286  16.301 -0.0997  0.0951 -0.2147
16047TIP3    H169632   0.554   5.300  16.385 -0.3697 -1.1702 -0.1276
16047TIP3    H269633   0.671   5.227  16.323 -0.2169 -0.2973 -0.8792
16048TIP3   OH269634   5.390   0.387   4.852 -0.0792 -0.2910  0.2004
16048TIP3    H169635   5.397   0.421   4.763 -1.0540 -1.2693 -0.2626
16048TIP3    H269636   5.371   0.464   4.906  0.4202  0.2935 -0.4457
16049TIP3   OH269637   1.539   0.742   1.953 -0.8657  0.5909  0.3829
16049TIP3    H169638   1.533   0.837   1.954  1.1329  0.7364 -0.5420
16049TIP3    H269639   1.583   0.719   2.035 -0.1919  0.5347  0.0001
16050TIP3   OH269640   2.048   0.765   0.682  0.1142  0.7081  0.2734
16050TIP3    H169641   2.105   0.842   0.684  1.0186  0.0397  1.2331
16050TIP3    H269642   2.012   0.763   0.594  2.7551  0.3083 -0.8327
16051TIP3   OH269643   3.834   2.115  13.380  0.6639 -0.5764 -0.4030
16051TIP3    H169644   3.868   2.052  13.444  1.1860  0.9511  0.8566
16051TIP3    H269645   3.881   2.094  13.299  1.8729 -0.9129  0.3653
16052TIP3   OH269646   2.037   2.032   1.533 -0.3870 -0.8967 -0.7791
16052TIP3    H169647   1.952   1.991   1.518 -0.0947 -1.2502 -1.4974
16052TIP3    H269648   2.073   1.985   1.608 -1.1649 -0.1960  0.0625
16053TIP3   OH269649   1.530   4.796  14.567  0.3783 -0.0486 -0.5843
16053TIP3    H169650   1.579   4.874  14.590  0.0116  0.1018 -0.3072
16053TIP3    H269651   1.440   4.815  14.593  0.7019 -1.4883  1.7631
16054TIP3   OH269652   0.599   0.469   3.898  0.4546  0.6719  0.4249
16054TIP3    H169653   0.544   0.510   3.832  2.7481  0.8857 -1.4496
16054TIP3    H269654   0.590   0.523   3.976 -1.0588  1.3372 -0.2078
16055TIP3   OH269655   3.085   2.357  16.777  0.0792  0.5805 -0.2506
16055TIP3    H169656   2.993   2.379  16.770  0.1510  1.0850  0.3392
16055TIP3    H269657   3.116   2.352  16.687 -1.1185 -2.2160 -0.5462
16056TIP3   OH269658   1.334   1.606  15.495 -0.2749  0.3770  0.4252
16056TIP3    H169659   1.303   1.626  15.583 -1.8816 -2.0326  0.4299
16056TIP3    H269660   1.266   1.642  15.438 -0.8237 -0.8825  0.2817
16057TIP3   OH269661   2.803   6.432   1.387 -0.7476  0.3755 -0.0648
16057TIP3    H169662   2.809   6.362   1.322 -0.2852  0.5268 -0.1856
16057TIP3    H269663   2.716   6.422   1.425 -1.0987  0.4108 -0.8492
16058TIP3   OH269664   1.357   6.159  14.687 -0.2814 -0.5486 -0.3209
16058TIP3    H169665   1.332   6.128  14.600  2.8958 -1.0016 -1.1177
16058TIP3    H269666   1.355   6.254  14.680  2.4251 -0.5376 -1.7151
16059TIP3   OH269667   1.054   6.422  17.150 -0.2085  0.0416  0.1827
16059TIP3    H169668   1.071   6.496  17.093 -1.8905 -0.0082 -0.3995
16059TIP3    H269669   0.959   6.411  17.148 -0.1803 -0.7231  2.0242
16060TIP3   OH269670   6.158   0.450   2.610  0.3770  0.9081  0.4122
16060TIP3    H169671   6.150   0.455   2.514  0.3961 -1.0924  0.2796
16060TIP3    H269672   6.199   0.533   2.635 -3.5702  3.3595 -0.8517
16061TIP3   OH269673   3.606   5.829  16.535 -0.0441  0.0975  0.4653
16061TIP3    H169674   3.570   5.916  16.520 -0.2096  0.0652  0.6863
16061TIP3    H269675   3.555   5.794  16.608 -0.1441 -0.2799  0.2139
16062TIP3   OH269676   2.336   3.918   4.656 -0.0540 -0.3015 -0.0468
16062TIP3    H169677   2.301   3.988   4.712 -2.2760 -0.3046 -1.3542
16062TIP3    H269678   2.285   3.926   4.575  2.8940 -0.4878 -1.9712
16063TIP3   OH269679   3.673   6.527   5.213 -0.0227  0.0659 -0.8547
16063TIP3    H169680   3.691   6.611   5.171  3.6298  0.2591  0.9462
16063TIP3    H269681   3.645   6.549   5.302  0.1561 -0.6045 -0.6253
16064TIP3   OH269682   1.876   1.274   3.821 -0.1892  0.1672 -0.4322
16064TIP3    H169683   1.919   1.270   3.735 -0.4656  0.0343 -0.5652
16064TIP3    H269684   1.830   1.191   3.828  0.1667  0.0047  0.0240
16065TIP3   OH269685   6.445   4.879   5.029  0.6191 -0.8445 -0.0572
16065TIP3    H169686   6.439   4.785   5.009  0.6565 -1.0367  0.8278
16065TIP3    H269687   6.538   4.896   5.040  0.6759 -0.5326 -1.0237
16066TIP3   OH269688   1.740   1.275   5.265  0.4724 -0.1156 -0.2690
16066TIP3    H169689   1.818   1.321   5.295 -0.8519  0.3470  2.5875
16066TIP3    H269690   1.750   1.186   5.299  0.7905 -0.6806 -1.7966
16067TIP3   OH269691   3.089   0.201   2.411  0.5150 -0.4212 -0.2170
16067TIP3    H169692   3.181   0.203   2.437  0.0756 -1.4796  1.5248
16067TIP3    H269693   3.051   0.279   2.452  0.6186 -0.0341 -0.8585
16068TIP3   OH269694   1.546   3.527   2.088  0.0012  0.5287 -0.2159
16068TIP3    H169695   1.602   3.453   2.065 -2.3315 -1.6212  0.8061
16068TIP3    H269696   1.529   3.571   2.005 -0.4492 -1.4618 -1.2074
16069TIP3   OH269697   3.475   4.877  12.730  0.1253 -0.1291  0.1758
16069TIP3    H169698   3.566   4.886  12.700  0.5753 -0.0999  1.5050
16069TIP3    H269699   3.423   4.913  12.659  1.3134  2.5167  0.5924
16070TIP3   OH269700   3.179   1.856  15.320 -0.0305 -0.4964 -0.3227
16070TIP3    H169701   3.141   1.770  15.339 -0.9759  0.3199  1.6171
16070TIP3    H269702   3.274   1.842  15.326 -0.1973 -1.2306  0.8922
16071TIP3   OH269703   0.410   5.443  10.776 -0.0216 -0.4977  0.2705
16071TIP3    H169704   0.430   5.497  10.699  2.1867 -0.5717  0.7565
16071TIP3    H269705   0.392   5.506  10.846 -1.0408 -0.4231 -0.0572
16072TIP3   OH269706   0.721   2.181  15.219  0.4162  0.8821 -0.0496
16072TIP3    H169707   0.661   2.136  15.159 -0.7618 -0.0211  1.7661
16072TIP3    H269708   0.711   2.273  15.197 -0.8893  0.6563 -0.4724
16073TIP3   OH269709   5.347   0.907   3.635  0.4549 -0.1874 -0.6573
16073TIP3    H169710   5.419   0.850   3.608 -0.1177 -1.1295 -0.2230
16073TIP3    H269711   5.346   0.902   3.730 -0.7148 -0.8587 -0.6873
16074TIP3   OH269712   0.298   0.757  15.962  0.0326  0.0303 -0.3776
16074TIP3    H169713   0.226   0.798  15.915 -0.1955  0.0140 -0.0435
16074TIP3    H269714   0.361   0.828  15.978 -0.1117  0.1363 -0.2810
16075TIP3   OH269715   5.758   6.434   2.131 -0.1751 -0.1437 -0.1597
16075TIP3    H169716   5.746   6.529   2.134  2.3340  0.1881  0.6661
16075TIP3    H269717   5.689   6.403   2.072 -2.1699  1.9717  0.9941
16076TIP3   OH269718   1.218   3.429   1.732 -0.4817  0.3536 -0.4310
16076TIP3    H169719   1.263   3.353   1.769 -0.3919  0.3189 -0.6118
16076TIP3    H269720   1.170   3.466   1.806 -0.3599  0.2428 -0.2943
16077TIP3   OH269721   4.616   4.655   3.985 -0.5167 -0.4888 -0.2983
16077TIP3    H169722   4.543   4.621   3.932 -1.3056  1.3382 -0.3957
16077TIP3    H269723   4.614   4.749   3.971  1.3141 -0.3303  0.4322
16078TIP3   OH269724   4.898   1.850   5.954  0.0229 -0.1593 -0.6979
16078TIP3    H169725   4.889   1.763   5.913 -1.1253 -0.6387  0.5318
16078TIP3    H269726   4.925   1.831   6.044  1.4423  0.8410 -0.9125
16079TIP3   OH269727   0.267   4.941   4.552  0.1274 -0.3879  0.4646
16079TIP3    H169728   0.176   4.922   4.574  0.2151 -1.4619 -0.0745
16079TIP3    H269729   0.307   4.968   4.634 -0.7067  0.2321  0.6759
16080TIP3   OH269730   0.159   2.153  15.672  0.1559  0.4305  0.4495
16080TIP3    H169731   0.228   2.142  15.738  0.8457 -0.4168 -0.3880
16080TIP3    H269732   0.194   2.218  15.611  0.4367 -0.3487 -0.2398
16081TIP3   OH269733   6.314   4.460   2.212  0.4274  0.4410  0.3989
16081TIP3    H169734   6.275   4.499   2.133 -2.4512  0.0776  1.5970
16081TIP3    H269735   6.361   4.533   2.253  0.5639  1.0360 -0.7767
16082TIP3   OH269736   6.393   4.024   5.617 -0.0383  0.2697  0.4980
16082TIP3    H169737   6.477   3.993   5.583 -0.7093 -1.1527  0.0814
16082TIP3    H269738   6.365   3.956   5.678 -1.4640  0.1014 -0.3168
16083TIP3   OH269739   5.982   3.200   0.650 -0.0480  0.4044  1.1445
16083TIP3    H169740   5.952   3.109   0.659 -1.3931  0.7415  0.1626
16083TIP3    H269741   6.074   3.197   0.675  0.3751 -1.5465 -0.5626
16084TIP3   OH269742   4.506   0.873  17.058 -0.2234  0.5595 -0.5448
16084TIP3    H169743   4.494   0.789  17.102 -0.0245  1.3671  1.0866
16084TIP3    H269744   4.530   0.850  16.968  0.2453 -1.1358  0.0005
16085TIP3   OH269745   5.433   1.771  13.221 -0.4788  0.3220 -0.3763
16085TIP3    H169746   5.499   1.724  13.169 -1.1537  0.7341 -1.6258
16085TIP3    H269747   5.353   1.721  13.208 -1.2773  1.9819 -1.9727
16086TIP3   OH269748   4.191   4.630  17.137  0.6220 -0.2936  0.2339
16086TIP3    H169749   4.104   4.669  17.127  0.0027 -0.8348  2.8675
16086TIP3    H269750   4.251   4.704  17.137  0.0512  0.1720 -0.6435
16087TIP3   OH269751   3.339   4.238   2.454  0.2110  0.4714 -0.5226
16087TIP3    H169752   3.358   4.331   2.438  1.7159  0.0384 -1.2995
16087TIP3    H269753   3.259   4.221   2.403  1.0642  0.8471 -2.0179
16088TIP3   OH269754   3.056   2.732  14.145  0.3544  0.1111  0.6843
16088TIP3    H169755   3.097   2.799  14.090 -0.5141  0.1262  0.0379
16088TIP3    H269756   2.995   2.687  14.086  0.0074 -0.4148  1.4344
16089TIP3   OH269757   5.224   6.016  13.373  0.4541  0.3421 -0.7696
16089TIP3    H169758   5.272   5.957  13.432  1.2349  1.8776  0.1699
16089TIP3    H269759   5.137   5.976  13.365 -0.1408  0.8231  2.5648
16090TIP3   OH269760   3.448   6.101   2.128 -0.5186 -0.9587 -0.2136
16090TIP3    H169761   3.537   6.069   2.112  0.0752  0.3673  0.3665
16090TIP3    H269762   3.401   6.025   2.163  0.6668 -1.3901  0.4564
16091TIP3   OH269763   6.490   4.606   2.353 -0.0024  0.6711 -0.2632
16091TIP3    H169764   6.497   4.622   2.447  0.1846  0.5678 -0.2589
16091TIP3    H269765   6.564   4.654   2.315  0.2722  0.2268 -0.2980
16092TIP3   OH269766   0.843   4.015  16.957  0.3239 -0.8636  0.5268
16092TIP3    H169767   0.863   3.981  17.044 -1.0055 -0.8592  0.8399
16092TIP3    H269768   0.909   3.975  16.900  0.2713 -2.0573  1.2823
16093TIP3   OH269769   4.769   6.242   5.612  0.3290  0.1364 -0.2500
16093TIP3    H169770   4.680   6.274   5.601  0.7831  1.2063 -0.9897
16093TIP3    H269771   4.782   6.240   5.707 -0.5645 -0.2621 -0.1365
16094TIP3   OH269772   3.453   0.334  12.129 -0.0060 -0.0913 -0.3383
16094TIP3    H169773   3.432   0.411  12.076  0.9032  1.5075  1.5687
16094TIP3    H269774   3.394   0.339  12.204  0.6844 -0.7446  0.2641
16095TIP3   OH269775   0.007   3.764  13.458 -0.4428 -0.1864 -0.6333
16095TIP3    H169776  -0.049   3.790  13.531 -0.2616 -0.5718 -0.3540
16095TIP3    H269777  -0.018   3.822  13.386 -1.4846 -0.6402 -0.6383
16096TIP3   OH269778   0.572   4.553   2.411  0.3535  0.6068  0.2883
16096TIP3    H169779   0.649   4.502   2.435  0.9573  1.7194  0.7310
16096TIP3    H269780   0.503   4.488   2.400  1.6712 -0.5395 -1.4759
16097TIP3   OH269781   4.272   1.749   3.370 -0.4293  0.2845  0.1465
16097TIP3    H169782   4.268   1.819   3.305 -2.6374  1.7624  1.7792
16097TIP3    H269783   4.200   1.691   3.347 -0.9074  0.5486  0.9244
16098TIP3   OH269784   0.406   4.383   3.595  0.4608  0.1769  0.4638
16098TIP3    H169785   0.447   4.331   3.664  1.3008  0.3921  0.1365
16098TIP3    H269786   0.313   4.363   3.601  0.7055 -0.8907  0.7416
16099TIP3   OH269787   3.743   3.915   5.497  0.3659 -0.2742  0.0429
16099TIP3    H169788   3.761   3.872   5.581  2.1365  0.9637  0.3319
16099TIP3    H269789   3.749   3.845   5.432  0.4333 -0.9666  0.7884
16100TIP3   OH269790   4.194   4.804   2.399  0.3848 -0.2244 -0.6005
16100TIP3    H169791   4.235   4.765   2.322  0.2381  1.5863 -1.6264
16100TIP3    H269792   4.256   4.870   2.428 -0.6100  0.7392 -0.6080
16101TIP3   OH269793   6.089   3.656   4.246  0.2586 -0.2225 -0.1288
16101TIP3    H169794   6.019   3.721   4.245 -1.1541 -1.6965  0.1633
16101TIP3    H269795   6.060   3.589   4.184  2.8433  0.5755 -2.3236
16102TIP3   OH269796   3.961   5.546  12.606 -0.4569  0.2302 -0.1406
16102TIP3    H169797   4.041   5.559  12.658 -0.5176  0.5593 -0.1327
16102TIP3    H269798   3.958   5.451  12.591 -0.8577  0.0278  1.1472
16103TIP3   OH269799   4.107   1.995   0.944  0.3244  0.0219  0.2811
16103TIP3    H169800   4.053   1.991   0.865 -0.7150 -0.7038  1.0160
16103TIP3    H269801   4.126   1.904   0.966  1.1830  0.2448  0.4819
16104TIP3   OH269802   0.292   5.158  12.022  0.3522 -0.8829 -0.1632
16104TIP3    H169803   0.318   5.068  12.001  0.2998 -0.3773 -2.4444
16104TIP3    H269804   0.280   5.201  11.938 -3.9382  0.0900  0.8378
16105TIP3   OH269805   6.471   0.770   0.494 -0.2211 -0.5926  0.2461
16105TIP3    H169806   6.535   0.810   0.553 -0.8298 -0.6341  0.9409
16105TIP3    H269807   6.518   0.699   0.452  0.4748 -0.0062  0.0288
16106TIP3   OH269808   5.556   0.946  13.346 -0.0886  0.0639  0.6537
16106TIP3    H169809   5.546   0.907  13.433  1.8468 -0.8935  0.4680
16106TIP3    H269810   5.487   0.906  13.294 -1.8767  1.3449  1.9531
16107TIP3   OH269811   0.659   1.710   5.737 -0.4605 -0.3254 -0.3153
16107TIP3    H169812   0.718   1.751   5.800 -0.5756  0.7866 -0.9279
16107TIP3    H269813   0.695   1.622   5.726  0.9454  0.2534 -0.4885
16108TIP3   OH269814   5.274   3.933  12.378 -0.3014  0.2255 -0.3135
16108TIP3    H169815   5.208   3.964  12.316  0.6918 -1.1963 -2.0908
16108TIP3    H269816   5.234   3.857  12.420  0.1217 -0.4964 -1.2220
16109TIP3   OH269817   3.077   5.102  16.722  0.6559  0.8141 -0.5284
16109TIP3    H169818   3.061   5.147  16.639  1.8361  1.5831 -0.3409
16109TIP3    H269819   3.093   5.011  16.697  0.4122  0.9265 -1.0944
16110TIP3   OH269820   3.577   4.786  15.642  0.7297  0.0787 -0.0917
16110TIP3    H169821   3.599   4.871  15.603 -0.0904  0.5028  0.3679
16110TIP3    H269822   3.493   4.801  15.686  0.6024 -0.9628  0.0158
16111TIP3   OH269823   2.460   5.930  14.696 -0.1555  0.2269  0.3251
16111TIP3    H169824   2.475   5.903  14.786  0.9632 -0.5086 -0.0742
16111TIP3    H269825   2.539   5.905  14.649 -1.3623 -0.8843 -1.2041
16112TIP3   OH269826   3.396   3.928   0.313 -0.3017 -0.1528 -1.2083
16112TIP3    H169827   3.454   3.874   0.260  0.9995  0.3096 -0.3033
16112TIP3    H269828   3.450   4.004   0.338 -0.7802 -0.4748  0.9694
16113TIP3   OH269829   2.358   3.061  13.232  0.7243  0.0696 -0.7701
16113TIP3    H169830   2.322   2.975  13.256  1.0436  0.0723 -0.2616
16113TIP3    H269831   2.442   3.065  13.279  1.2353  0.1924 -1.6962
16114TIP3   OH269832   2.655   3.365  12.796  0.4119 -0.1795 -0.0303
16114TIP3    H169833   2.706   3.318  12.729  0.7044 -0.5109  0.4178
16114TIP3    H269834   2.567   3.371  12.760  0.0630 -2.1806  0.4331
16115TIP3   OH269835   1.361   5.477   5.141  0.0443 -1.1029 -0.3735
16115TIP3    H169836   1.386   5.392   5.178  0.4887 -1.1182 -0.6936
16115TIP3    H269837   1.444   5.518   5.117  0.0785  0.8726  2.8449
16116TIP3   OH269838   4.072   4.419  11.442  0.0752  0.6019  0.4020
16116TIP3    H169839   3.979   4.438  11.450  0.0834  1.7989 -1.8128
16116TIP3    H269840   4.099   4.392  11.530 -2.3987 -0.0509  1.0082
16117TIP3   OH269841   5.199   3.793  15.596 -0.5252  0.5157 -0.1899
16117TIP3    H169842   5.172   3.844  15.520 -0.4435 -0.6268 -0.9956
16117TIP3    H269843   5.122   3.794  15.654 -0.9136  0.5989 -0.7053
16118TIP3   OH269844   4.069   3.005  15.403 -0.2751  1.0213  0.5053
16118TIP3    H169845   4.043   3.083  15.354 -0.3885  0.7289  0.0956
16118TIP3    H269846   3.986   2.965  15.430 -0.2139  1.1414  0.8688
16119TIP3   OH269847   2.286   1.589  16.865 -0.3053 -0.3167  0.8703
16119TIP3    H169848   2.296   1.526  16.794 -0.3084  0.1317  0.4650
16119TIP3    H269849   2.199   1.571  16.902 -0.6398 -0.0377  0.2385
16120TIP3   OH269850   4.535   3.684  14.665 -0.1246 -0.3991 -0.1886
16120TIP3    H169851   4.590   3.751  14.623 -1.7302 -0.8461 -3.1682
16120TIP3    H269852   4.457   3.732  14.693  0.0442 -0.4727  0.3948
16121TIP3   OH269853   0.409   1.675  12.241  0.0926 -0.7053 -0.2631
16121TIP3    H169854   0.339   1.642  12.299  0.8167 -0.0205  1.0230
16121TIP3    H269855   0.390   1.768  12.232 -0.0021 -0.8079 -1.1176
16122TIP3   OH269856   0.269   2.784   2.773 -0.6684  0.4700  0.1051
16122TIP3    H169857   0.224   2.702   2.792 -1.5479  1.6779  3.6852
16122TIP3    H269858   0.313   2.769   2.690 -3.1315 -2.6431 -0.7164
16123TIP3   OH269859   2.948   5.506  13.921  0.3355 -0.1266 -0.4235
16123TIP3    H169860   2.888   5.521  13.847  0.7584 -0.1919 -0.7833
16123TIP3    H269861   3.034   5.497  13.880  0.4940 -0.7144  0.0320
16124TIP3   OH269862   3.408   4.823   5.545 -0.1714  0.0323 -0.9128
16124TIP3    H169863   3.324   4.836   5.590  0.2710 -1.0201  0.2615
16124TIP3    H269864   3.393   4.749   5.487 -0.2726  0.3346 -1.2709
16125TIP3   OH269865   4.925   1.202  13.781 -0.7164 -0.1547 -0.4303
16125TIP3    H169866   4.930   1.287  13.826 -0.5489 -0.5294  0.2619
16125TIP3    H269867   4.957   1.139  13.845 -1.6527 -0.8566 -0.6387
16126TIP3   OH269868   5.971   0.187  12.184 -0.5747  0.1699  0.2123
16126TIP3    H169869   6.062   0.216  12.191  0.1780 -1.6328 -1.5825
16126TIP3    H269870   5.927   0.259  12.140  0.6811 -0.1835 -1.7046
16127TIP3   OH269871   2.130   3.876  12.282 -0.2407  0.5289 -0.3833
16127TIP3    H169872   2.107   3.932  12.357  0.0586  0.4065 -0.1969
16127TIP3    H269873   2.209   3.917  12.246 -0.0862  0.2908 -0.3153
16128TIP3   OH269874   3.129   3.106   6.125  0.0821  0.3720 -0.0642
16128TIP3    H169875   3.187   3.082   6.053  0.2877 -0.5133  0.3960
16128TIP3    H269876   3.188   3.128   6.197 -0.1595 -1.4483  0.7014
16129TIP3   OH269877   5.119   4.621  11.828 -0.3768 -0.6827 -0.2039
16129TIP3    H169878   5.053   4.592  11.890  0.4926 -1.1446  0.5144
16129TIP3    H269879   5.197   4.571  11.850  0.1875 -0.2298 -1.1185
16130TIP3   OH269880   4.789   6.614  13.379 -0.0965 -0.0893 -0.2361
16130TIP3    H169881   4.837   6.553  13.323  0.1702  0.4505 -0.5890
16130TIP3    H269882   4.831   6.698  13.366  0.3800 -0.0783  1.2648
16131TIP3   OH269883   1.106   1.196  13.934 -0.6024 -0.0427  0.3843
16131TIP3    H169884   1.193   1.226  13.961 -0.4694  0.3834 -0.5228
16131TIP3    H269885   1.048   1.228  14.004  0.2297 -2.0836  2.0573
16132TIP3   OH269886   6.756   4.508  15.522 -0.3386  0.2820  0.0305
16132TIP3    H169887   6.707   4.475  15.447 -1.7487  0.2959  0.9314
16132TIP3    H269888   6.783   4.429  15.570 -3.2669  0.3483  1.9039
16133TIP3   OH269889   3.734   5.010   4.919  0.5741 -0.6753  0.1111
16133TIP3    H169890   3.696   5.047   4.999 -0.8447 -2.3655  0.2580
16133TIP3    H269891   3.802   4.950   4.950 -0.0717 -1.4379  0.0771
16134TIP3   OH269892   3.644   0.737  14.339 -0.2115 -0.0866 -0.3369
16134TIP3    H169893   3.727   0.768  14.373  0.1808  0.6213 -1.8986
16134TIP3    H269894   3.582   0.807  14.359  0.4088  1.1956 -2.7122
16135TIP3   OH269895   0.510   6.653  14.845 -0.5140 -0.3524 -0.3577
16135TIP3    H169896   0.491   6.680  14.935 -1.9950 -0.4776 -0.6284
16135TIP3    H269897   0.598   6.688  14.829 -1.1013  1.5869  0.3991
16136TIP3   OH269898   0.523   4.966   4.976  0.7073 -0.1218  0.1242
16136TIP3    H169899   0.592   4.900   4.986  0.0747 -0.6735  0.8866
16136TIP3    H269900   0.500   4.963   4.884 -0.0433 -1.7116  0.3460
16137TIP3   OH269901   0.575   5.421   1.671 -0.7717 -0.5165  0.2343
16137TIP3    H169902   0.596   5.349   1.610 -1.1957  1.3303 -2.1575
16137TIP3    H269903   0.489   5.452   1.642  0.0269  1.8502  0.3292
16138TIP3   OH269904   0.448   1.092  15.386  0.2880 -0.0206 -0.2651
16138TIP3    H169905   0.403   1.058  15.463  1.2516 -0.6044  0.0423
16138TIP3    H269906   0.534   1.120  15.418  0.0325  1.4067 -0.7821
16139TIP3   OH269907   4.927   6.244  15.847 -0.1624  0.6342  0.4226
16139TIP3    H169908   4.979   6.258  15.768 -1.0017 -1.0627 -0.4415
16139TIP3    H269909   4.838   6.233  15.816 -0.5374  0.1749  1.6315
16140TIP3   OH269910   6.255   4.436   1.207  0.0853 -0.2648 -0.3186
16140TIP3    H169911   6.227   4.391   1.127 -0.2896  0.3141 -0.5212
16140TIP3    H269912   6.348   4.418   1.213 -0.3009 -2.1576  0.3151
16141TIP3   OH269913   2.350   5.920  14.043  0.0533  0.5495  0.4982
16141TIP3    H169914   2.321   5.922  13.952 -1.5133  0.8365  0.9854
16141TIP3    H269915   2.316   6.002  14.080 -0.3109 -0.1059  1.6175
16142TIP3   OH269916   3.255   6.596  12.645 -0.5794  0.0273  0.0547
16142TIP3    H169917   3.261   6.691  12.646  1.1790 -0.0631 -0.1481
16142TIP3    H269918   3.215   6.574  12.729 -1.1258  0.9489  0.0386
16143TIP3   OH269919   3.176   4.319  11.122  0.1661  0.1229  0.3509
16143TIP3    H169920   3.155   4.228  11.143  1.4914  0.0564  1.4904
16143TIP3    H269921   3.097   4.368  11.145  0.5792 -0.3329  2.8291
16144TIP3   OH269922   2.147   3.219  13.294  0.4282 -0.0245  0.3932
16144TIP3    H169923   2.222   3.160  13.286  1.0231  0.6393  1.0522
16144TIP3    H269924   2.139   3.236  13.388 -0.9759 -0.6389  0.3935
16145TIP3   OH269925   6.788   3.500  15.998 -0.8290  0.1705 -0.0401
16145TIP3    H169926   6.744   3.543  15.924 -2.3011  0.6526  1.0969
16145TIP3    H269927   6.858   3.561  16.022 -0.3496  0.0203 -1.0235
16146TIP3   OH269928   4.376   2.721   3.285  0.0809  0.0630 -0.8064
16146TIP3    H169929   4.363   2.785   3.354  1.7889 -0.3353 -0.0840
16146TIP3    H269930   4.372   2.772   3.203 -0.8651  0.7029 -0.3655
16147TIP3   OH269931   2.511   5.032   3.319 -0.4148  0.3176 -0.1305
16147TIP3    H169932   2.574   4.989   3.260 -0.7434 -1.5390  0.8565
16147TIP3    H269933   2.565   5.091   3.372  0.2944 -0.1872 -0.2841
16148TIP3   OH269934   2.210   5.620  12.304  0.3893  0.4668 -0.9142
16148TIP3    H169935   2.213   5.581  12.216  2.8564 -0.8387 -0.3091
16148TIP3    H269936   2.203   5.545  12.363 -1.7826  1.3667  0.0229
16149TIP3   OH269937   0.677   2.472  11.226  0.2086 -0.2151  0.4385
16149TIP3    H169938   0.730   2.413  11.172  0.5555 -0.3021  0.8774
16149TIP3    H269939   0.591   2.472  11.184  0.8102  0.6731 -0.8511
16150TIP3   OH269940   6.810   2.368   2.273  0.4829  0.1132 -0.2561
16150TIP3    H169941   6.883   2.428   2.257 -1.3180  2.2301 -0.7607
16150TIP3    H269942   6.746   2.389   2.206 -2.7293  1.8014  3.1654
16151TIP3   OH269943   3.198   3.241  11.963 -0.0464 -0.3100 -0.0902
16151TIP3    H169944   3.197   3.259  11.870  0.1868 -0.5553 -0.1406
16151TIP3    H269945   3.156   3.155  11.971 -1.1107  0.2131  0.1393
16152TIP3   OH269946   6.792   2.524  11.690  0.4544  0.4275 -0.3725
16152TIP3    H169947   6.866   2.569  11.731 -1.0686  1.8749  0.8704
16152TIP3    H269948   6.756   2.588  11.628 -3.4351  2.1527  3.3798
16153TIP3   OH269949   6.393   5.489  12.190  0.5372 -0.0308  0.6365
16153TIP3    H169950   6.371   5.418  12.250  0.5989 -0.1300  0.5405
16153TIP3    H269951   6.343   5.564  12.223 -1.2548 -0.6680 -0.5598
16154TIP3   OH269952   4.746   4.322  15.330 -0.0446  0.6348  0.3535
16154TIP3    H169953   4.669   4.362  15.291 -0.7795  0.9142  2.0593
16154TIP3    H269954   4.772   4.383  15.399 -0.5433 -1.2761  2.2777
16155TIP3   OH269955   0.299   1.715  14.157  0.4839 -0.1302  0.3358
16155TIP3    H169956   0.392   1.727  14.139  0.4506 -1.2647 -0.6638
16155TIP3    H269957   0.255   1.773  14.094  0.5115  0.3204  0.7303
16156TIP3   OH269958   3.144   5.739  13.891 -0.6888 -0.7146 -0.6213
16156TIP3    H169959   3.112   5.784  13.813  1.7584 -0.8548 -1.7856
16156TIP3    H269960   3.219   5.687  13.859  0.5845 -0.4999  1.8728
16157TIP3   OH269961   3.988   3.147   0.885 -0.1806 -0.1068 -0.4341
16157TIP3    H169962   3.980   3.104   0.800 -0.4307  1.7288 -1.3609
16157TIP3    H269963   3.920   3.214   0.884  1.1754  1.3096  0.3622
16158TIP3   OH269964   6.076   4.733  13.078  0.2484 -0.1554  0.0364
16158TIP3    H169965   6.066   4.708  12.986  0.4423  0.5276 -0.1756
16158TIP3    H269966   6.100   4.652  13.123 -2.6027 -1.0952 -0.0530
16159TIP3   OH269967   6.281   2.223  16.998 -0.3179  0.3028 -0.1703
16159TIP3    H169968   6.199   2.270  16.980 -0.3716 -0.3199 -1.5708
16159TIP3    H269969   6.297   2.170  16.920  0.8253 -0.4617  0.5617
16160TIP3   OH269970   3.371   3.074  14.261 -0.4005  0.2549  0.6937
16160TIP3    H169971   3.316   3.148  14.235 -0.9456 -1.0033 -1.8927
16160TIP3    H269972   3.432   3.062  14.187  1.5414 -0.1348  2.3007
16161TIP3   OH269973   6.535   0.601  12.568  0.2683 -0.1150 -0.1492
16161TIP3    H169974   6.564   0.681  12.611  0.6285  0.5487 -1.6069
16161TIP3    H269975   6.611   0.543  12.572  0.7312  0.4244 -1.0494
16162TIP3   OH269976   6.770   6.035   5.200 -1.0905 -0.0404 -0.2875
16162TIP3    H169977   6.679   6.064   5.204 -0.5142  1.6961  0.5167
16162TIP3    H269978   6.788   6.025   5.106 -1.3650  2.0515 -0.5800
16163TIP3   OH269979   6.293   3.496   5.258  0.2046 -0.5506 -0.1059
16163TIP3    H169980   6.205   3.533   5.262  0.3378 -0.3527  1.3394
16163TIP3    H269981   6.351   3.568   5.284  0.5947 -1.3258  1.2022
16164TIP3   OH269982   0.134   3.754  16.310 -0.4038 -0.6208 -0.2308
16164TIP3    H169983   0.069   3.821  16.287 -0.2833  0.5468  2.5767
16164TIP3    H269984   0.216   3.801  16.317 -0.5170 -0.7578  2.9199
16165TIP3   OH269985   6.611   5.989  13.203  0.4228  0.2047 -0.3520
16165TIP3    H169986   6.677   6.003  13.135  2.8184 -0.2741  1.8102
16165TIP3    H269987   6.618   5.896  13.225  0.0779  0.4853  0.9828
16166TIP3   OH269988   2.352   6.708  16.732  0.7472  0.2664  0.1027
16166TIP3    H169989   2.262   6.676  16.731  0.9348 -0.2689 -0.5069
16166TIP3    H269990   2.375   6.712  16.824  0.0084  0.6607  0.2727
16167TIP3   OH269991   6.429   0.041   3.447  0.4582  0.8016  0.1391
16167TIP3    H169992   6.496   0.027   3.381  0.9742  0.9073  0.6303
16167TIP3    H269993   6.461   0.116   3.499  0.1321  0.6365  0.5865
16168TIP3   OH269994   4.028   3.980  16.423  0.1789  0.3757  0.4738
16168TIP3    H169995   3.974   3.946  16.352  0.2280  0.3732  0.4378
16168TIP3    H269996   3.971   4.042  16.469  0.4967  1.2158 -0.2444
16169TIP3   OH269997   0.912   5.956  16.536 -0.0034 -0.4479  0.9338
16169TIP3    H169998   0.947   5.915  16.456  1.7060  1.1628  0.8279
16169TIP3    H269999   0.817   5.945  16.529  0.1163 -0.3048 -1.3433
16170TIP3   OH270000   3.341   0.427  14.289 -0.3667  0.5795  0.2035
16170TIP3    H170001   3.397   0.355  14.319 -0.2394  0.8747  0.6736
16170TIP3    H270002   3.318   0.403  14.199  0.9501  0.7290 -0.1805
16171TIP3   OH270003   4.821   1.565  13.925 -0.5508 -0.0501 -0.8477
16171TIP3    H170004   4.787   1.575  13.836  1.8948 -0.8385 -1.9214
16171TIP3    H270005   4.914   1.546  13.913 -0.1071  0.1540  1.9024
16172TIP3   OH270006   6.368   4.425  13.737  0.1999 -0.7027 -0.1015
16172TIP3    H170007   6.290   4.482  13.739  0.1447 -0.7264 -1.3148
16172TIP3    H270008   6.332   4.337  13.732  0.3023 -0.7056 -0.8094
16173TIP3   OH270009   2.048   0.997  12.646 -0.0815 -0.2824  0.1642
16173TIP3    H170010   2.116   1.019  12.582  0.2379 -1.0395  0.2352
16173TIP3    H270011   1.982   1.065  12.636  1.3674  1.3188  1.0978
16174TIP3   OH270012   3.054   3.874  10.911 -0.5499 -0.1639  0.0510
16174TIP3    H170013   2.971   3.905  10.873 -0.5360  0.1804  0.2951
16174TIP3    H270014   3.121   3.928  10.870 -0.4414 -0.4649 -0.1697
16175TIP3   OH270015   4.298   0.241   5.200  0.0104 -0.3469  0.3003
16175TIP3    H170016   4.284   0.158   5.156  0.4544  0.2318 -0.9601
16175TIP3    H270017   4.222   0.294   5.177 -0.6033 -0.6161  1.6436
16176TIP3   OH270018   1.641   5.963  14.547  0.3175 -0.4122  0.6335
16176TIP3    H170019   1.662   6.056  14.553  1.6419 -0.7083  0.8606
16176TIP3    H270020   1.566   5.951  14.605 -1.8164  1.0708 -1.7172
16177TIP3   OH270021   4.247   2.651   4.210 -0.5077  0.1840  0.0017
16177TIP3    H170022   4.292   2.625   4.291  1.3151  0.0450 -1.0170
16177TIP3    H270023   4.155   2.660   4.235  0.0452  0.2585  2.1182
16178TIP3   OH270024   0.088   3.225   4.243 -0.5301  0.2636  0.1717
16178TIP3    H170025   0.059   3.182   4.163 -0.2806 -1.1879  0.8470
16178TIP3    H270026   0.012   3.275   4.272 -0.1979  1.9413 -1.6953
16179TIP3   OH270027   1.974   0.536   3.899  0.3558  0.5003 -0.2173
16179TIP3    H170028   1.888   0.506   3.869  0.9515 -0.9935 -0.4598
16179TIP3    H270029   2.000   0.603   3.835 -0.2203  0.3194 -0.6471
16180TIP3   OH270030   1.729   6.007   1.880  0.2249 -0.3357 -0.1191
16180TIP3    H170031   1.684   5.954   1.814 -0.0415  1.0016 -1.0385
16180TIP3    H270032   1.664   6.020   1.949  0.4308 -1.5483  0.3171
16181TIP3   OH270033   1.380   1.784  12.848  0.4396 -0.1693  0.0187
16181TIP3    H170034   1.360   1.726  12.774  0.3841 -0.3803  0.1988
16181TIP3    H270035   1.297   1.825  12.870  0.5744  0.3431 -0.4208
16182TIP3   OH270036   5.104   4.490   4.382 -0.7289 -0.2953 -0.4700
16182TIP3    H170037   5.180   4.526   4.337 -1.6663  0.5202 -1.4371
16182TIP3    H270038   5.122   4.396   4.389  0.9560  0.0894  0.5243
16183TIP3   OH270039   1.182   3.656   2.863 -0.2625  0.2235 -0.7334
16183TIP3    H170040   1.244   3.699   2.804  1.0264  1.1478  1.2247
16183TIP3    H270041   1.237   3.598   2.915 -1.4551 -0.9479 -0.7735
16184TIP3   OH270042   0.198   0.190  15.056 -0.0384 -0.1214  0.0624
16184TIP3    H170043   0.256   0.242  15.000 -1.5446  1.3073 -0.2258
16184TIP3    H270044   0.241   0.105  15.064  1.4974  0.5315 -1.0980
16185TIP3   OH270045   6.688   1.101  13.273  1.0422 -0.8189 -0.5894
16185TIP3    H170046   6.737   1.026  13.239  0.7467 -0.6260 -1.4489
16185TIP3    H270047   6.623   1.120  13.206  0.1466 -0.7107  0.2864
16186TIP3   OH270048   6.313   2.089   1.030 -0.1454  0.3265 -0.3400
16186TIP3    H170049   6.265   2.127   1.103 -0.9645 -2.2627  0.5026
16186TIP3    H270050   6.250   2.088   0.958 -0.1739  0.4177 -0.3167
16187TIP3   OH270051   0.319   2.398   5.417 -0.2211 -0.2659  0.1456
16187TIP3    H170052   0.384   2.466   5.399  0.2039 -1.1517 -1.7314
16187TIP3    H270053   0.345   2.364   5.503  1.4961 -0.2505 -0.3441
16188TIP3   OH270054   2.218   1.077   0.096 -0.1494 -0.1769  0.0290
16188TIP3    H170055   2.183   0.992   0.069 -0.4565  0.2464 -0.8904
16188TIP3    H270056   2.141   1.131   0.111  0.0402 -0.1115  0.8350
16189TIP3   OH270057   5.484   5.201   4.916 -0.3287  0.2678 -0.1869
16189TIP3    H170058   5.476   5.108   4.895 -0.3819 -0.0879  1.3668
16189TIP3    H270059   5.399   5.238   4.891 -1.1671 -0.5446  1.3634
16190TIP3   OH270060   2.106   5.858  11.469 -0.4826  0.0346  0.3151
16190TIP3    H170061   2.022   5.881  11.510 -0.1335 -0.9740  1.6090
16190TIP3    H270062   2.095   5.767  11.441 -0.1010  0.1666 -0.2662
16191TIP3   OH270063   0.312   1.881  13.420  0.1530 -0.0731  0.2109
16191TIP3    H170064   0.238   1.900  13.477 -0.5098 -0.0928 -0.6215
16191TIP3    H270065   0.344   1.966  13.392 -0.7972 -0.0812 -0.9713
16192TIP3   OH270066   4.816   1.022  11.369  0.6871  0.3829  0.0676
16192TIP3    H170067   4.868   1.054  11.442  0.6881 -0.1295  0.2922
16192TIP3    H270068   4.727   1.050  11.388  0.2945 -1.6256  1.3782
16193TIP3   OH270069   2.184   2.334   6.482  0.0360 -0.3214 -0.1763
16193TIP3    H170070   2.269   2.339   6.524 -0.8677 -1.0500  1.7911
16193TIP3    H270071   2.163   2.241   6.477 -0.6555 -0.1546 -0.6549
16194TIP3   OH270072   1.784   2.857  12.728 -0.6391 -0.4866  0.2710
16194TIP3    H170073   1.813   2.766  12.722  0.7245 -0.0764  0.3370
16194TIP3    H270074   1.819   2.899  12.648 -0.2804  0.2258  0.7917
16195TIP3   OH270075   1.887   1.395   4.922  0.1236  0.0392  0.0910
16195TIP3    H170076   1.907   1.324   4.861 -0.0098  0.0948 -0.0173
16195TIP3    H270077   1.803   1.430   4.892  0.1696  0.2164  0.1660
16196TIP3   OH270078   5.457   4.125   4.908 -0.0814 -0.0882 -0.6943
16196TIP3    H170079   5.506   4.148   4.829  0.8349  1.6093  0.3405
16196TIP3    H270080   5.383   4.185   4.909  1.3543  1.7042  1.0936
16197TIP3   OH270081   1.309   0.513   1.109  0.4520 -0.1449  0.4121
16197TIP3    H170082   1.243   0.519   1.178  0.8785  0.3874  0.7871
16197TIP3    H270083   1.389   0.548   1.150  0.5630  0.7373 -0.5382
16198TIP3   OH270084   0.605   1.293  16.092  0.1531 -0.5475 -0.4541
16198TIP3    H170085   0.666   1.241  16.145 -0.6201 -0.2069  0.8054
16198TIP3    H270086   0.638   1.285  16.003  1.3420 -1.3574  0.0348
16199TIP3   OH270087   2.131   3.462   1.825 -0.3644  0.1818 -0.3262
16199TIP3    H170088   2.164   3.483   1.738  2.4753 -0.1259  0.6240
16199TIP3    H270089   2.157   3.536   1.879 -2.0613  0.3447  0.2836
16200TIP3   OH270090   3.698   1.285   3.823 -0.0710 -0.5051 -0.1310
16200TIP3    H170091   3.661   1.254   3.740 -0.6352 -0.7295  0.1972
16200TIP3    H270092   3.665   1.375   3.832  2.0714  0.4472 -1.3868
16201TIP3   OH270093   1.506   1.272  12.335  0.1871 -0.6261  0.2311
16201TIP3    H170094   1.446   1.241  12.267  0.5917 -1.5798  0.3126
16201TIP3    H270095   1.544   1.352  12.298 -1.1048 -0.0176  0.1674
16202TIP3   OH270096   3.033   6.803   3.418 -0.3986 -0.0761  0.2519
16202TIP3    H170097   3.077   6.818   3.501  0.3883 -0.7784 -0.0323
16202TIP3    H270098   3.044   6.884   3.369 -0.4497  0.1674  0.6484
16203TIP3   OH270099   1.943   6.462  14.853  0.0492  1.1314  0.1527
16203TIP3    H170100   2.032   6.439  14.826 -0.3678 -0.1203 -0.1839
16203TIP3    H270101   1.954   6.542  14.906  1.2171  1.7197 -0.9539
16204TIP3   OH270102   3.673   1.555   3.363  0.2856 -0.0382  0.1163
16204TIP3    H170103   3.711   1.613   3.297 -2.2729  1.1609 -0.3610
16204TIP3    H270104   3.690   1.467   3.331  0.6601  0.5103 -1.2213
16205TIP3   OH270105   1.822   2.554  13.525  0.2333  0.1789  0.1543
16205TIP3    H170106   1.793   2.617  13.459  1.9521  1.8159  0.9301
16205TIP3    H270107   1.814   2.468  13.482 -0.1063  1.0935 -1.6406
16206TIP3   OH270108   2.114   2.758   5.476  0.2605 -0.0212  0.2092
16206TIP3    H170109   2.039   2.755   5.535 -0.8672  1.4457 -1.1115
16206TIP3    H270110   2.190   2.760   5.534 -0.8740  2.9011  1.6538
16207TIP3   OH270111   4.444   5.918   5.941  0.0374 -0.0764  0.1099
16207TIP3    H170112   4.369   5.936   5.883 -0.2065 -1.4338  0.0018
16207TIP3    H270113   4.514   5.973   5.906  0.4013 -2.1453 -2.5643
16208TIP3   OH270114   1.271   4.527   1.329  0.4289  0.5155  0.0205
16208TIP3    H170115   1.285   4.579   1.250  1.3183  2.3474  1.3699
16208TIP3    H270116   1.288   4.587   1.402  0.6369 -1.4258  1.6200
16209TIP3   OH270117   3.773   1.652   0.112 -0.3078 -0.3254  0.2867
16209TIP3    H170118   3.785   1.666   0.018  0.3150  1.0203  0.5599
16209TIP3    H270119   3.684   1.619   0.121 -0.1196 -1.1574 -0.8460
16210TIP3   OH270120   2.807   3.708   3.458 -0.5172  0.2135 -0.3715
16210TIP3    H170121   2.796   3.759   3.538  0.6101 -0.5272  0.2651
16210TIP3    H270122   2.749   3.633   3.470 -1.0948  0.6017 -0.6900
16211TIP3   OH270123   4.405   1.565  14.366 -0.2154  0.0050 -0.6255
16211TIP3    H170124   4.452   1.631  14.417  0.0794 -0.1079 -0.7489
16211TIP3    H270125   4.461   1.487  14.369 -1.3495 -0.7629  0.9126
16212TIP3   OH270126   6.012   2.392  10.679 -0.0385  0.3896 -1.5000
16212TIP3    H170127   5.964   2.388  10.596 -0.3309 -1.1496 -1.2651
16212TIP3    H270128   6.038   2.484  10.687 -4.3977  1.6474 -0.8023
16213TIP3   OH270129   2.690   3.401   1.165  0.2995  0.4180  0.1633
16213TIP3    H170130   2.752   3.386   1.093 -0.4360 -1.8738 -0.0487
16213TIP3    H270131   2.610   3.430   1.122  0.4736  0.9815  0.2229
16214TIP3   OH270132   5.655   6.142  14.577  0.2025 -0.1677 -0.1691
16214TIP3    H170133   5.569   6.172  14.548  0.7809 -0.3863 -2.2104
16214TIP3    H270134   5.715   6.210  14.548  0.9291 -0.8659 -0.3169
16215TIP3   OH270135   3.735   4.001   4.902 -0.1221 -0.5827  0.2448
16215TIP3    H170136   3.650   3.963   4.923 -0.3112  0.1969  0.9332
16215TIP3    H270137   3.795   3.926   4.895 -0.9384 -1.1666 -0.6572
16216TIP3   OH270138   6.719   6.233  13.589 -0.0445 -0.4736  0.1936
16216TIP3    H170139   6.680   6.263  13.507 -0.2049 -0.6261  0.2142
16216TIP3    H270140   6.648   6.186  13.634  0.2752 -1.0979  0.0506
16217TIP3   OH270141   1.624   5.178  16.545 -0.1784 -0.8227  0.0307
16217TIP3    H170142   1.648   5.258  16.591  0.0157  0.0926 -1.6283
16217TIP3    H270143   1.530   5.186  16.530 -0.3266 -1.3346  0.6710
16218TIP3   OH270144   3.493   0.463   5.934 -0.2938  0.4224  0.6879
16218TIP3    H170145   3.413   0.459   5.986  0.3808 -1.3391  1.6362
16218TIP3    H270146   3.472   0.416   5.853 -0.4672  0.6816  0.5824
16219TIP3   OH270147   2.308   5.142   3.164 -0.3188 -0.1900  0.2178
16219TIP3    H170148   2.371   5.136   3.236 -0.2816 -1.8485  0.0636
16219TIP3    H270149   2.301   5.053   3.131 -2.8683 -0.0633  0.3258
16220TIP3   OH270150   5.226   4.894   2.238  0.0999 -0.3049 -0.3061
16220TIP3    H170151   5.174   4.868   2.314 -1.4540  0.3441 -1.1287
16220TIP3    H270152   5.307   4.930   2.276  1.0044 -3.4747  0.9038
16221TIP3   OH270153   4.033   1.512   1.558  0.3624  0.2294 -0.5835
16221TIP3    H170154   4.121   1.547   1.542  0.9397 -0.0364  1.8163
16221TIP3    H270155   4.046   1.437   1.616 -1.4451  0.1953 -0.1691
16222TIP3   OH270156   0.894   6.474  13.457 -0.1019  0.4793  0.1333
16222TIP3    H170157   0.975   6.432  13.485  0.9992  2.6605  0.3560
16222TIP3    H270158   0.887   6.552  13.511 -2.9847 -0.2576  0.9309
16223TIP3   OH270159   6.468   2.785  13.827  0.5036  0.0788  0.5403
16223TIP3    H170160   6.541   2.844  13.807  1.2524 -0.9710  0.1458
16223TIP3    H270161   6.410   2.793  13.751  1.8121 -1.5362 -0.6518
16224TIP3   OH270162   3.311   5.364  12.421  0.0127 -0.9910  0.5419
16224TIP3    H170163   3.335   5.293  12.480  4.1911  0.4101  0.6743
16224TIP3    H270164   3.307   5.442  12.476  1.2969 -0.1465 -0.5163
16225TIP3   OH270165   6.550   4.263  15.598  0.2845 -0.2121 -0.5715
16225TIP3    H170166   6.513   4.324  15.662  0.0177  0.1987 -1.1100
16225TIP3    H270167   6.549   4.312  15.516  0.2153 -0.8892 -0.9753
16226TIP3   OH270168   4.178   3.894  12.809 -0.1404 -0.5849 -0.0317
16226TIP3    H170169   4.185   3.894  12.714 -0.7785 -1.7189 -0.0815
16226TIP3    H270170   4.115   3.963  12.829  0.6966  0.2970 -0.3599
16227TIP3   OH270171   3.412   2.894   1.070 -0.2462  0.4387  0.7779
16227TIP3    H170172   3.467   2.933   1.001  0.6696  0.0798  1.2926
16227TIP3    H270173   3.422   2.800   1.059 -1.2896  0.3600  0.4666
16228TIP3   OH270174   2.750   6.586   2.596  0.1398  0.4236 -0.2125
16228TIP3    H170175   2.757   6.658   2.533 -0.5813 -0.5675 -1.4545
16228TIP3    H270176   2.672   6.606   2.647 -0.8680 -0.1897 -1.4947
16229TIP3   OH270177   5.857   2.878   4.396  0.5498  0.2113  0.0252
16229TIP3    H170178   5.901   2.854   4.478  2.1518  1.1804 -0.5421
16229TIP3    H270179   5.789   2.940   4.423 -0.9723 -1.8321  0.9902
16230TIP3   OH270180   4.762   0.788   3.542  0.1311 -0.2942  0.2232
16230TIP3    H170181   4.670   0.763   3.557 -0.7239  1.8206 -1.2627
16230TIP3    H270182   4.765   0.880   3.566  2.2260 -0.6971  1.5862
16231TIP3   OH270183   4.770   2.124   1.145 -0.4761 -0.0107  0.0280
16231TIP3    H170184   4.764   2.186   1.218 -2.5390  0.8056 -0.7938
16231TIP3    H270185   4.763   2.179   1.067 -1.4161 -1.1862 -0.7294
16232TIP3   OH270186   1.334   1.864   0.830 -0.1506  0.1711 -0.3258
16232TIP3    H170187   1.387   1.852   0.909 -0.0557 -0.3187 -0.4656
16232TIP3    H270188   1.290   1.781   0.817 -1.5321  0.8145  0.1927
16233TIP3   OH270189   4.849   2.276  12.217  0.8261 -0.4784 -0.2856
16233TIP3    H170190   4.769   2.255  12.266  0.6045  0.1732 -0.3735
16233TIP3    H270191   4.836   2.234  12.132  1.1309 -1.4535  0.1407
16234TIP3   OH270192   4.261   1.986   2.590 -0.0065  0.0851 -0.0476
16234TIP3    H170193   4.322   1.982   2.663 -0.7069 -1.9270  0.4722
16234TIP3    H270194   4.248   1.894   2.565 -3.2637  0.3905  0.2485
16235TIP3   OH270195   3.652   2.698   0.991 -0.4717 -0.2220  0.3527
16235TIP3    H170196   3.609   2.631   0.937  0.8507 -1.4738  0.8085
16235TIP3    H270197   3.656   2.659   1.079 -1.5697  1.3214  1.1050
16236TIP3   OH270198   0.832   4.654   3.551 -0.3724 -0.3604  0.2442
16236TIP3    H170199   0.803   4.661   3.642 -0.3987  0.0642  0.2035
16236TIP3    H270200   0.925   4.630   3.557  0.0678  1.3558  0.3954
16237TIP3   OH270201   1.475   6.362   1.253 -0.3085 -0.0597 -0.3214
16237TIP3    H170202   1.382   6.340   1.251 -0.3686  0.0325  1.2475
16237TIP3    H270203   1.517   6.289   1.207 -0.9612 -1.2071  0.8476
16238TIP3   OH270204   3.349   0.375   2.703  0.4941  0.3601 -0.8418
16238TIP3    H170205   3.316   0.462   2.683 -0.2769  0.1635 -0.4084
16238TIP3    H270206   3.301   0.347   2.780  0.3429 -0.6723 -1.2984
16239TIP3   OH270207   0.267   5.167   5.294  0.3822 -0.0984  0.2167
16239TIP3    H170208   0.339   5.104   5.296  0.3660 -0.1167  0.2325
16239TIP3    H270209   0.215   5.147   5.372  0.3602 -0.0854  0.2056
16240TIP3   OH270210   3.776   3.068  12.677 -0.1817 -0.1864 -0.3820
16240TIP3    H170211   3.752   2.975  12.676 -0.6959 -0.0606 -0.1385
16240TIP3    H270212   3.740   3.102  12.595  0.4578 -0.3124 -0.7121
16241TIP3   OH270213   5.482   2.627   1.881 -0.3610 -0.7867 -0.3231
16241TIP3    H170214   5.449   2.541   1.907  0.5768 -1.5262 -1.5577
16241TIP3    H270215   5.405   2.684   1.886 -0.6214 -1.3086  2.1556
16242TIP3   OH270216   3.428   5.352   3.463 -0.3121  0.3933  0.3423
16242TIP3    H170217   3.341   5.381   3.487 -0.7284 -1.0455  0.6471
16242TIP3    H270218   3.487   5.411   3.510 -1.1240  0.6511  1.0478
16243TIP3   OH270219   6.658   1.666  14.842 -0.2616 -0.0450  0.3011
16243TIP3    H170220   6.696   1.703  14.922  0.3755  0.1282 -0.0850
16243TIP3    H270221   6.672   1.572  14.850  0.4909  0.0423  0.0329
16244TIP3   OH270222   0.858   4.573  11.847 -0.7465  0.0916 -0.3800
16244TIP3    H170223   0.915   4.536  11.915 -1.3347  1.1231  0.7179
16244TIP3    H270224   0.918   4.614  11.785 -0.1088 -2.4313 -1.4817
16245TIP3   OH270225   0.475   3.134  15.312 -0.3148 -0.4655 -0.4760
16245TIP3    H170226   0.489   3.179  15.229 -0.4647 -0.5826 -0.5660
16245TIP3    H270227   0.537   3.174  15.372  1.8469 -2.3725 -1.3751
16246TIP3   OH270228   4.833   5.388  12.588 -0.0622  0.2548 -0.4429
16246TIP3    H170229   4.874   5.389  12.675  0.0620  1.5901 -0.5115
16246TIP3    H270230   4.849   5.475  12.552 -1.3705  0.1989 -1.2185
16247TIP3   OH270231   3.241   5.859  13.431 -0.5482 -0.5022 -0.1033
16247TIP3    H170232   3.293   5.822  13.360  1.4392 -1.3299  1.7302
16247TIP3    H270233   3.187   5.926  13.389 -0.1804 -1.6831 -2.5440
16248TIP3   OH270234   1.432   3.430  11.639 -0.7154 -0.7255 -0.0093
16248TIP3    H170235   1.480   3.349  11.622  0.6315  0.0060  0.3168
16248TIP3    H270236   1.395   3.454  11.554  2.1057  0.3821 -0.9692
16249TIP3   OH270237   2.358   4.517  11.957  0.0570  0.0925 -0.4324
16249TIP3    H170238   2.378   4.586  12.020  2.4594  1.5499 -2.6704
16249TIP3    H270239   2.268   4.535  11.930 -1.1274 -0.7627  2.7543
16250TIP3   OH270240   0.897   0.556   5.722  0.2913  0.7543  0.8550
16250TIP3    H170241   0.849   0.545   5.804 -0.6075  0.3242  0.2724
16250TIP3    H270242   0.830   0.579   5.658  0.4718 -2.3244 -0.5250
16251TIP3   OH270243   5.519   1.652   2.021 -0.1787  0.5033  0.8624
16251TIP3    H170244   5.555   1.729   2.066 -0.4041  0.5075  1.0328
16251TIP3    H270245   5.595   1.596   2.006  0.1770  1.2536 -0.2517
16252TIP3   OH270246   2.704   5.679  14.279 -0.0033 -0.4909 -0.6646
16252TIP3    H170247   2.704   5.610  14.213  0.9143 -0.3111 -0.8565
16252TIP3    H270248   2.797   5.701  14.292 -0.1697 -0.5562  0.7120
16253TIP3   OH270249   5.541   0.803   1.893  0.1294 -0.1494  0.0237
16253TIP3    H170250   5.549   0.884   1.943  2.3197 -1.3258  1.6634
16253TIP3    H270251   5.613   0.806   1.830 -1.2813  0.3040 -1.5813
16254TIP3   OH270252   0.447   1.144  12.178 -0.0538  0.0700 -0.3203
16254TIP3    H170253   0.525   1.154  12.124 -0.1124  1.4188 -0.1843
16254TIP3    H270254   0.380   1.111  12.119  1.1616 -3.1826  0.0260
16255TIP3   OH270255   6.777   0.455  10.843  0.3297  0.2825  0.1463
16255TIP3    H170256   6.858   0.488  10.880  0.4572 -0.8290  0.8904
16255TIP3    H270257   6.799   0.432  10.752  0.5069  1.2082 -0.0465
16256TIP3   OH270258   3.361   3.522  13.805 -0.1665  0.0357  0.1032
16256TIP3    H170259   3.361   3.611  13.768  0.3718  0.6241  1.4728
16256TIP3    H270260   3.322   3.468  13.737 -1.2816  1.4752 -0.4360
16257TIP3   OH270261   3.693   1.879   2.234 -0.4900 -0.0241  0.1779
16257TIP3    H170262   3.704   1.895   2.140  0.5836 -1.6367  0.0063
16257TIP3    H270263   3.603   1.905   2.252 -0.5778  0.6955 -1.2212
16258TIP3   OH270264   5.403   4.108   1.597 -0.1187  0.2548  0.6811
16258TIP3    H170265   5.455   4.047   1.649 -0.7553 -0.6712  0.2432
16258TIP3    H270266   5.385   4.181   1.657 -1.3938 -1.0904  1.9635
16259TIP3   OH270267   1.635   6.151   3.366  0.0325 -0.0800 -0.0933
16259TIP3    H170268   1.608   6.157   3.275 -0.5416  0.8505  0.1325
16259TIP3    H270269   1.556   6.123   3.413  0.1077  0.2477  0.2300
16260TIP3   OH270270   1.813   3.413  15.357  0.3599 -0.4963 -0.3297
16260TIP3    H170271   1.839   3.325  15.385  0.5170  0.5728  3.2148
16260TIP3    H270272   1.786   3.457  15.438  0.2028  2.7111 -2.0214
16261TIP3   OH270273   2.690   6.183   3.513  0.1592  0.5076  0.0296
16261TIP3    H170274   2.747   6.193   3.437  0.4973  0.9372  0.3402
16261TIP3    H270275   2.708   6.095   3.546  3.0605  1.8129  2.0964
16262TIP3   OH270276   0.621   2.951  11.224 -0.2532 -0.5989  0.4354
16262TIP3    H170277   0.595   2.989  11.308 -0.3028  0.8945 -0.2426
16262TIP3    H270278   0.594   2.860  11.230 -2.4489  0.0656  1.1397
16263TIP3   OH270279   0.565   4.562  16.574 -0.4608 -0.4763 -0.2971
16263TIP3    H170280   0.639   4.526  16.525 -0.3133 -0.0047 -0.4247
16263TIP3    H270281   0.488   4.528  16.528 -0.3195  0.3007 -1.1070
16264TIP3   OH270282   3.516   1.938  11.992 -0.5508 -0.1247  0.0352
16264TIP3    H170283   3.587   1.976  12.044 -0.8899  0.9909 -0.3174
16264TIP3    H270284   3.560   1.874  11.935  0.0455 -0.0926  0.4510
16265TIP3   OH270285   3.828   3.300  10.864  0.4945 -0.9816  0.2588
16265TIP3    H170286   3.857   3.252  10.786  0.8548  2.1906 -1.6512
16265TIP3    H270287   3.733   3.290  10.864  0.5935 -2.0312  0.1417
16266TIP3   OH270288   5.003   4.481   0.083 -0.0195  0.2059  0.0246
16266TIP3    H170289   5.025   4.517  -0.003  0.0965  0.5259  0.1870
16266TIP3    H270290   5.075   4.422   0.103  0.3401  0.7144  0.2414
16267TIP3   OH270291   4.514   6.228  12.927 -0.2504  0.4757  0.1050
16267TIP3    H170292   4.457   6.262  12.858 -1.9852 -1.3398  0.6091
16267TIP3    H270293   4.463   6.159  12.969  1.8241 -0.2956  1.4433
16268TIP3   OH270294   4.414   0.324  12.326  0.4027 -0.2604  0.0793
16268TIP3    H170295   4.461   0.303  12.246  0.0568  2.1280 -0.8003
16268TIP3    H270296   4.476   0.375  12.378  0.0246 -0.2534  0.5226
16269TIP3   OH270297   4.146   1.688  12.979 -0.0542  0.9128  0.1408
16269TIP3    H170298   4.090   1.722  12.909 -0.5493 -3.8433 -1.9033
16269TIP3    H270299   4.229   1.667  12.936  0.0683 -0.8692  1.2022
16270TIP3   OH270300   5.846   3.469  13.103  0.3654 -0.0843  0.5892
16270TIP3    H170301   5.931   3.510  13.089  0.2363  0.2534  0.7855
16270TIP3    H270302   5.821   3.496  13.192 -0.7484  1.2714 -0.1160
16271TIP3   OH270303   0.966   0.162  13.367 -0.1232  0.0994  0.6548
16271TIP3    H170304   1.058   0.175  13.345 -0.8438  1.7587 -1.4848
16271TIP3    H270305   0.960   0.187  13.460  1.6474 -0.5314  0.9571
16272TIP3   OH270306   4.955   5.122   2.263 -0.6818  0.1383 -0.0355
16272TIP3    H170307   4.987   5.164   2.343 -1.3578  0.7732 -0.0877
16272TIP3    H270308   4.870   5.086   2.288  0.0016 -1.4206  0.0709
16273TIP3   OH270309   1.321   3.957  12.694  0.1749 -0.0966 -0.4641
16273TIP3    H170310   1.266   3.888  12.730 -0.3525 -0.4684 -1.9502
16273TIP3    H270311   1.359   3.919  12.615  2.0479  0.3863  0.1818
16274TIP3   OH270312   5.979   0.504  14.260  0.4714 -0.2021 -0.7204
16274TIP3    H170313   6.051   0.568  14.265  1.5157 -1.3081 -1.2645
16274TIP3    H270314   5.978   0.476  14.169 -0.5648 -0.3225 -0.6770
16275TIP3   OH270315   6.228   5.970   2.298  0.1588 -0.0350 -0.0793
16275TIP3    H170316   6.179   5.937   2.373 -0.6729 -1.4646 -1.2377
16275TIP3    H270317   6.312   5.999   2.335 -1.1287  1.4860  1.7520
16276TIP3   OH270318   1.535   0.658  17.216 -0.7098 -0.3201 -0.2323
16276TIP3    H170319   1.606   0.698  17.165 -0.3437 -1.0358 -0.2833
16276TIP3    H270320   1.465   0.642  17.153 -1.0289  0.6418 -0.1319
16277TIP3   OH270321   2.223   4.335  12.121 -0.5207 -0.5012  0.2112
16277TIP3    H170322   2.144   4.330  12.067 -0.2529  1.3529 -0.3857
16277TIP3    H270323   2.288   4.374  12.063  0.6522 -1.3725  0.9211
16278TIP3   OH270324   3.958   4.299  16.192 -0.5453 -0.2634  0.0973
16278TIP3    H170325   3.873   4.274  16.230 -0.7249 -0.7438 -0.5880
16278TIP3    H270326   3.987   4.219  16.148  0.4002 -0.1784  0.5730
16279TIP3   OH270327   2.276   0.409  11.755 -0.3229  0.7363  0.0871
16279TIP3    H170328   2.189   0.434  11.787 -0.1506 -0.1291  1.2591
16279TIP3    H270329   2.286   0.457  11.673 -2.1823  0.3395 -0.3981
16280TIP3   OH270330   6.576   2.879   6.588 -0.0779  0.1708 -0.0647
16280TIP3    H170331   6.573   2.786   6.565 -2.1070 -0.4845  2.5359
16280TIP3    H270332   6.506   2.919   6.535  0.2990  0.0969 -0.6246
16281TIP3   OH270333   6.644   0.603   3.147  0.2792  0.5450  0.2317
16281TIP3    H170334   6.612   0.553   3.222 -0.6038  0.7636  0.0064
16281TIP3    H270335   6.624   0.694   3.168 -2.0572  0.4135 -1.2670
16282TIP3   OH270336   4.658   1.469   4.268  0.3321  0.0940  0.2147
16282TIP3    H170337   4.617   1.395   4.313 -0.0872  0.0768 -0.1814
16282TIP3    H270338   4.624   1.463   4.178  1.7902 -0.3588 -0.3119
16283TIP3   OH270339   4.945   1.979  15.044 -0.5735  0.3388  0.3952
16283TIP3    H170340   5.011   1.928  15.092 -0.6992 -0.6266 -0.4671
16283TIP3    H270341   4.994   2.019  14.972 -0.7685  0.2656  0.2225
16284TIP3   OH270342   3.235   2.212   0.240  0.2200 -0.1842 -0.3269
16284TIP3    H170343   3.151   2.220   0.194 -1.1719  1.1960  2.2683
16284TIP3    H270344   3.301   2.232   0.174 -1.4999 -1.0209 -2.3682
16285TIP3   OH270345   0.144   3.813  15.098 -0.5470  0.2156  0.0348
16285TIP3    H170346   0.192   3.738  15.061  0.0391  1.7058 -2.3238
16285TIP3    H270347   0.060   3.777  15.125 -1.2290 -0.8645 -3.3175
16286TIP3   OH270348   5.975   3.006  17.249 -0.2214  0.1776  0.0229
16286TIP3    H170349   6.009   2.917  17.243 -1.0792 -0.2076  0.8643
16286TIP3    H270350   5.898   3.007  17.192 -0.7119  0.1400  0.6802
16287TIP3   OH270351   1.023   5.913   6.671 -0.4962 -0.0167  0.0161
16287TIP3    H170352   0.945   5.968   6.661  0.4072  1.3562  0.3764
16287TIP3    H270353   1.096   5.974   6.669  0.6076 -1.3329 -0.6604
16288TIP3   OH270354   3.408   4.989   2.257 -0.1696 -0.6950  0.1596
16288TIP3    H170355   3.438   4.931   2.187  0.2916 -0.1149 -0.1308
16288TIP3    H270356   3.321   5.018   2.229 -0.1996 -0.8726  0.0714
16289TIP3   OH270357   5.337   6.320   2.009  0.0081 -0.4101 -0.6137
16289TIP3    H170358   5.258   6.266   2.007  0.5092 -1.1729 -0.0121
16289TIP3    H270359   5.306   6.407   2.032 -0.8577 -0.3500 -1.9949
16290TIP3   OH270360   1.502   0.419   1.886 -0.0547 -0.0819  0.2121
16290TIP3    H170361   1.473   0.507   1.859 -2.8329 -0.6163  1.2538
16290TIP3    H270362   1.526   0.376   1.804  0.0219  1.1908 -0.4506
16291TIP3   OH270363   1.499   5.919  12.649 -0.0347  0.2391  0.0218
16291TIP3    H170364   1.534   5.975  12.579 -0.4660 -1.1020 -1.2884
16291TIP3    H270365   1.406   5.941  12.653 -0.4553 -1.2142 -1.3196
16292TIP3   OH270366   4.574   4.649  13.736 -0.3615  0.5671 -0.2822
16292TIP3    H170367   4.626   4.668  13.658 -0.2539  1.2572 -0.0416
16292TIP3    H270368   4.488   4.686  13.717 -0.9970 -1.1764 -0.9653
16293TIP3   OH270369   4.860   5.525   6.540  0.1767 -0.1175  0.1076
16293TIP3    H170370   4.922   5.487   6.477 -0.0146 -0.7593  0.3064
16293TIP3    H270371   4.842   5.613   6.505 -0.1575 -0.5781 -0.8823
16294TIP3   OH270372   0.833   5.399   5.601 -0.2892  0.4848  0.4454
16294TIP3    H170373   0.842   5.309   5.632  1.1718  1.0197  1.6858
16294TIP3    H270374   0.829   5.392   5.506  1.5080 -0.7925  0.4368
16295TIP3   OH270375   6.241   4.831  16.957  0.4854  0.3704 -0.4142
16295TIP3    H170376   6.235   4.798  16.867  0.6615 -0.2061 -0.2197
16295TIP3    H270377   6.184   4.907  16.958 -0.6432 -0.4539 -0.6497
16296TIP3   OH270378   6.288   0.024  11.942 -0.4035 -0.4321 -0.6892
16296TIP3    H170379   6.213   0.068  11.900  0.1311  0.1102 -1.0809
16296TIP3    H270380   6.317  -0.041  11.877 -0.6971 -0.8268 -0.4290
16297TIP3   OH270381   4.666   4.861   3.706 -0.1446 -0.0631 -0.1027
16297TIP3    H170382   4.571   4.853   3.695 -0.6192  4.1247  0.1562
16297TIP3    H270383   4.701   4.860   3.617 -0.6980  0.6743 -0.3395
16298TIP3   OH270384   5.515   4.728  13.650 -0.1306 -0.1220 -0.4174
16298TIP3    H170385   5.469   4.693  13.573  0.3631  0.1799 -0.8470
16298TIP3    H270386   5.516   4.655  13.712 -1.5769 -0.0067 -0.2301
16299TIP3   OH270387   4.960   1.274  17.007 -0.1635  0.0952 -0.2043
16299TIP3    H170388   5.032   1.225  16.968  0.9414  2.5466 -1.3757
16299TIP3    H270389   4.888   1.265  16.944 -0.3868 -1.0645  0.2133
16300TIP3   OH270390   2.108   2.069   4.203 -0.7578 -0.3492  0.1688
16300TIP3    H170391   2.089   1.984   4.164  0.0441 -1.4924  2.2057
16300TIP3    H270392   2.180   2.104   4.150 -0.0482 -1.6254  0.2721
16301TIP3   OH270393   6.499   6.495  12.096  0.1448 -0.3748  0.1509
16301TIP3    H170394   6.560   6.552  12.050 -0.1856 -0.8022 -0.8219
16301TIP3    H270395   6.415   6.509  12.052  0.2271 -2.1859 -0.6200
16302TIP3   OH270396   4.653   0.021   3.454 -0.2718  0.8729 -0.0901
16302TIP3    H170397   4.652  -0.046   3.386  0.8148  1.5631 -0.8083
16302TIP3    H270398   4.567   0.015   3.495 -0.6963 -0.0062 -1.0868
16303TIP3   OH270399   4.569   5.436   6.622 -0.6193 -0.0404 -0.1292
16303TIP3    H170400   4.651   5.466   6.583 -1.2719 -0.8009 -2.1708
16303TIP3    H270401   4.585   5.344   6.642 -0.0888  0.4905  2.0251
16304TIP3   OH270402   1.573   0.314   5.846 -0.2379  0.2658  0.0841
16304TIP3    H170403   1.653   0.285   5.804 -0.3190  1.1817 -0.7068
16304TIP3    H270404   1.556   0.400   5.809  0.1624  1.4737  2.6314
16305TIP3   OH270405   1.538   2.911   4.274 -0.5745 -0.1016  0.2337
16305TIP3    H170406   1.509   2.965   4.348 -0.6878  0.7546 -0.4211
16305TIP3    H270407   1.632   2.901   4.288 -0.3879  1.0508 -0.1241
16306TIP3   OH270408   5.073   0.860  13.636  0.3146  0.3807  0.0765
16306TIP3    H170409   5.163   0.833  13.651 -0.3131 -1.7575  0.1414
16306TIP3    H270410   5.021   0.806  13.696 -1.3122 -1.0969 -2.5693
16307TIP3   OH270411   3.014   1.561   2.782  0.3241  0.4902  0.0128
16307TIP3    H170412   2.948   1.615   2.739  0.2266 -0.5231 -1.1576
16307TIP3    H270413   3.004   1.475   2.741  0.9706 -0.2140  1.3098
16308TIP3   OH270414   4.285   3.008   1.941  0.2611  0.2229  0.2466
16308TIP3    H170415   4.307   2.990   1.849 -0.7878  0.7979 -0.1359
16308TIP3    H270416   4.339   2.948   1.991  2.4406  1.3583 -0.6439
16309TIP3   OH270417   3.521   2.027   4.563  0.1218  0.0147  0.1977
16309TIP3    H170418   3.546   1.935   4.561 -2.0660 -0.5993  0.6056
16309TIP3    H270419   3.472   2.037   4.645 -1.1704  1.1302 -0.6898
16310TIP3   OH270420   1.191   0.274  12.062  0.3317 -0.4189  0.1581
16310TIP3    H170421   1.162   0.358  12.025 -2.1694 -1.1164  0.4615
16310TIP3    H270422   1.286   0.284  12.070  0.3985  1.4440 -2.1699
16311TIP3   OH270423   4.128   5.246   0.435 -0.2477 -0.0822  0.2644
16311TIP3    H170424   4.132   5.194   0.354 -1.3186  0.5046 -0.1768
16311TIP3    H270425   4.187   5.319   0.419 -0.7677  0.2525 -0.1569
16312TIP3   OH270426   3.419   1.751  15.325 -0.1832  0.4641  0.1214
16312TIP3    H170427   3.411   1.671  15.378  1.1882  1.5874  2.0805
16312TIP3    H270428   3.492   1.733  15.266  2.1659  1.3460  2.6466
16313TIP3   OH270429   3.376   3.155   5.558 -0.3631 -1.0229 -0.5395
16313TIP3    H170430   3.340   3.068   5.541 -0.9144 -0.7407 -0.8179
16313TIP3    H270431   3.384   3.195   5.472  3.4961 -2.1973 -0.8199
16314TIP3   OH270432   1.537   0.524  15.977  0.2507  0.1219 -0.1649
16314TIP3    H170433   1.542   0.521  15.881  0.2430  0.8266 -0.1860
16314TIP3    H270434   1.582   0.444  16.005 -1.1820 -0.9264 -0.8033
16315TIP3   OH270435   0.953   2.977   2.198  0.0405  0.2201  0.9285
16315TIP3    H170436   1.024   3.003   2.139 -0.6368  3.1890  1.3439
16315TIP3    H270437   0.949   2.882   2.190  3.1658  0.1060 -0.1340
16316TIP3   OH270438   6.670   2.740  12.301 -0.4987  0.0680 -0.1222
16316TIP3    H170439   6.727   2.712  12.373 -1.0656  0.4582  0.4781
16316TIP3    H270440   6.729   2.744  12.225  0.0023 -0.8127  0.2034
16317TIP3   OH270441   3.140   1.242   1.216  0.6266 -0.1707  0.3988
16317TIP3    H170442   3.178   1.271   1.299  0.6096  0.6039  0.1450
16317TIP3    H270443   3.101   1.157   1.235  1.1124 -0.2472  1.0481
16318TIP3   OH270444   3.005   5.484   1.926  0.6652 -0.2595 -0.4924
16318TIP3    H170445   3.061   5.480   2.003  0.8094 -1.9002 -0.6563
16318TIP3    H270446   2.946   5.409   1.936  0.9842 -0.7631 -2.1988
16319TIP3   OH270447   0.682   5.676  13.083 -0.4038  0.1083  0.1744
16319TIP3    H170448   0.606   5.660  13.027  0.0294  0.3321 -0.4898
16319TIP3    H270449   0.685   5.771  13.092 -0.4893  0.0685  0.5975
16320TIP3   OH270450   6.026   4.621   5.397 -0.6657 -0.1230  0.4378
16320TIP3    H170451   6.004   4.627   5.304 -1.3966 -0.5507  0.5727
16320TIP3    H270452   5.956   4.567   5.435  0.1186 -0.7299  1.0623
16321TIP3   OH270453   2.224   0.470  11.156 -0.3466 -0.0752  0.5600
16321TIP3    H170454   2.166   0.544  11.174 -0.4480  0.2342 -0.9378
16321TIP3    H270455   2.168   0.405  11.114  0.4084  0.3500 -1.1739
16322TIP3   OH270456   1.227   0.598  15.817  0.2190 -0.0614 -0.0073
16322TIP3    H170457   1.272   0.525  15.774 -0.9141 -0.9452  0.2966
16322TIP3    H270458   1.156   0.621  15.757  0.9557  1.2341 -0.4110
16323TIP3   OH270459   5.998   3.751   0.261 -0.0680  0.2566  0.0818
16323TIP3    H170460   6.006   3.659   0.283 -1.1705  0.1562  0.1111
16323TIP3    H270461   6.076   3.771   0.209 -1.1646 -1.3924 -2.2601
16324TIP3   OH270462   6.374   2.846  15.643 -0.0517 -0.8230  0.0336
16324TIP3    H170463   6.334   2.932  15.651 -1.3500 -1.4023 -0.0437
16324TIP3    H270464   6.395   2.820  15.732 -1.8224 -1.4136  0.2956
16325TIP3   OH270465   5.747   3.366  12.047  0.4966 -0.6660  0.0009
16325TIP3    H170466   5.677   3.355  11.982  0.2953 -1.5577  0.3681
16325TIP3    H270467   5.723   3.447  12.094 -0.1881 -0.8676  0.0050
16326TIP3   OH270468   3.677   4.641  11.233  0.1891  0.0496 -0.2214
16326TIP3    H170469   3.614   4.580  11.196 -1.7988  0.8305  1.7998
16326TIP3    H270470   3.668   4.720  11.179 -0.1318 -0.0508 -0.3148
16327TIP3   OH270471   0.549   4.388  16.981  0.1807  0.3396  0.5580
16327TIP3    H170472   0.541   4.481  17.005  4.2208  0.7689  0.7309
16327TIP3    H270473   0.622   4.356  17.034 -0.8029 -2.8404  0.1087
16328TIP3   OH270474   0.684   4.148   3.347  0.6588  0.4350  0.1944
16328TIP3    H170475   0.689   4.240   3.373  1.7296  0.4522 -0.0497
16328TIP3    H270476   0.612   4.144   3.285  0.0429  0.9533  0.8720
16329TIP3   OH270477   6.327   0.473  16.113 -0.5155  0.3137  0.3368
16329TIP3    H170478   6.334   0.442  16.204  0.7674 -1.8367 -0.4596
16329TIP3    H270479   6.389   0.546  16.108 -1.4295  1.1948  1.4670
16330TIP3   OH270480   2.437   6.553  15.661 -0.0947 -0.2881  0.1762
16330TIP3    H170481   2.391   6.494  15.601  0.9606 -0.2913 -0.6535
16330TIP3    H270482   2.494   6.605  15.604 -0.1025  0.6631  1.0414
16331TIP3   OH270483   1.075   1.950   1.158 -0.3299 -0.0017  0.3541
16331TIP3    H170484   1.019   1.994   1.222 -0.8097  0.0275 -0.0879
16331TIP3    H270485   1.136   2.018   1.128 -1.1811  0.4051 -0.4583
16332TIP3   OH270486   5.601   5.008  15.858  0.0138  0.2826  0.5442
16332TIP3    H170487   5.553   4.953  15.796  0.4527  0.2516  0.2234
16332TIP3    H270488   5.538   5.074  15.887 -0.0227  0.6813 -0.4251
16333TIP3   OH270489   5.289   0.044  12.343  0.3321  0.1832  0.2191
16333TIP3    H170490   5.322   0.131  12.322  1.1999 -0.0775  0.4886
16333TIP3    H270491   5.203   0.059  12.382  0.3130  0.8928 -0.0972
16334TIP3   OH270492   1.327   2.573   0.651  0.1194  0.2977 -0.5062
16334TIP3    H170493   1.394   2.557   0.717 -1.4744 -0.6002  0.9436
16334TIP3    H270494   1.272   2.642   0.689 -1.0918 -0.5702 -0.6396
16335TIP3   OH270495   2.498   3.420   3.368  0.3326  0.5681  0.8245
16335TIP3    H170496   2.463   3.501   3.407  0.7152  0.5922  1.1289
16335TIP3    H270497   2.584   3.409   3.410  0.4058  0.1603  0.5690
16336TIP3   OH270498   3.916   5.048  12.354 -0.1150 -0.1105  0.0989
16336TIP3    H170499   3.869   5.119  12.399  1.0399  0.8862 -0.2475
16336TIP3    H270500   3.992   5.031  12.410 -0.1373 -0.7677 -0.0688
16337TIP3   OH270501   5.765   4.336  15.176  0.0846  0.2665 -0.5959
16337TIP3    H170502   5.746   4.374  15.091 -2.1751  0.6699  0.0629
16337TIP3    H270503   5.816   4.257  15.156 -0.4480  0.3330 -2.3130
16338TIP3   OH270504   5.810   6.045   2.165 -0.1703  0.5972 -0.0288
16338TIP3    H170505   5.771   5.961   2.142  0.9760  0.2513 -0.7429
16338TIP3    H270506   5.741   6.091   2.215 -0.6063 -0.9594  0.8229
16339TIP3   OH270507   3.527   6.052   3.963 -0.2511  0.5750  0.2110
16339TIP3    H170508   3.520   6.049   3.867  0.4626  0.8853  0.1396
16339TIP3    H270509   3.489   5.970   3.993 -1.0432  0.7535 -0.3069
16340TIP3   OH270510   2.924   2.049  16.192 -0.1756  0.0617  0.1993
16340TIP3    H170511   2.975   1.978  16.231  0.3835  0.0625 -0.5208
16340TIP3    H270512   2.888   2.096  16.266 -0.1524 -0.6894  0.6917
16341TIP3   OH270513   1.186   5.129  14.503  0.3834  0.2307  0.2389
16341TIP3    H170514   1.268   5.108  14.458  0.1673 -1.4743  0.6064
16341TIP3    H270515   1.132   5.172  14.436  1.6068  1.5196  0.0398
16342TIP3   OH270516   5.304   2.769  16.978 -0.2468  0.2991 -0.0837
16342TIP3    H170517   5.337   2.706  16.914  1.0666  0.3763  0.5113
16342TIP3    H270518   5.348   2.851  16.957 -1.1683  0.7708 -0.1984
16343TIP3   OH270519   2.672   5.791  14.583 -0.3555 -0.0888 -0.4466
16343TIP3    H170520   2.628   5.723  14.635 -0.6854  0.0047 -0.6024
16343TIP3    H270521   2.660   5.763  14.492  2.4356 -1.6097 -0.3996
16344TIP3   OH270522   4.386   4.442  17.189  0.4529  0.9195 -0.5049
16344TIP3    H170523   4.326   4.466  17.118  2.1831 -0.7203 -2.5999
16344TIP3    H270524   4.447   4.515  17.195 -1.5756  2.5374  1.5471
16345TIP3   OH270525   5.183   5.590  15.818 -0.4189  0.5850 -0.3335
16345TIP3    H170526   5.270   5.630  15.810 -1.3177  2.5889 -0.2522
16345TIP3    H270527   5.123   5.664  15.830 -2.0849 -0.8070  0.1382
16346TIP3   OH270528   0.089   0.968   2.702  0.4503  0.7017  0.4142
16346TIP3    H170529   0.149   1.025   2.656 -0.6236  3.4785  2.3145
16346TIP3    H270530   0.144   0.920   2.765  0.9511  1.8760  0.8811
16347TIP3   OH270531   3.329   3.998  12.447 -0.2799  0.5396  0.3180
16347TIP3    H170532   3.410   4.032  12.409 -0.6102 -0.2492 -1.1401
16347TIP3    H270533   3.355   3.959  12.531  0.3088  3.1809  1.3990
16348TIP3   OH270534   1.611   4.597  11.691  0.1529  0.0690 -0.3295
16348TIP3    H170535   1.588   4.505  11.702 -0.9739  0.3774 -0.0498
16348TIP3    H270536   1.707   4.598  11.686  0.1558 -1.1305 -0.5027
16349TIP3   OH270537   4.965   6.809   3.608  0.1981  0.0431 -0.3880
16349TIP3    H170538   4.930   6.892   3.640  0.1746 -0.5841  1.2287
16349TIP3    H270539   4.911   6.789   3.531 -1.0165  0.5987  0.3059
16350TIP3   OH270540   4.831   6.229   0.874  0.1733 -0.0305 -0.2979
16350TIP3    H170541   4.752   6.214   0.926  0.8772  0.7477  1.0373
16350TIP3    H270542   4.860   6.317   0.899  2.6953 -1.1524  0.9071
16351TIP3   OH270543   6.297   3.214   4.949 -0.1198  0.1568  0.1601
16351TIP3    H170544   6.294   3.131   4.900 -0.4448  1.1425 -1.5283
16351TIP3    H270545   6.205   3.235   4.964 -0.0666  0.9071 -0.5960
16352TIP3   OH270546   3.958   0.966   3.545  0.9771 -0.8652 -0.0343
16352TIP3    H170547   4.002   1.033   3.493 -0.1491  0.0283  0.1471
16352TIP3    H270548   3.872   0.957   3.505  0.1216 -0.2239  1.6160
16353TIP3   OH270549   5.923   1.423   0.272 -0.0967 -0.0060  0.3916
16353TIP3    H170550   5.870   1.460   0.343 -0.1870 -0.8180  0.7500
16353TIP3    H270551   6.012   1.450   0.292 -0.2866  0.8096  0.1459
16354TIP3   OH270552   3.420   5.892   2.789 -0.2563 -0.0589  0.8569
16354TIP3    H170553   3.485   5.855   2.729  2.6290  2.4208  2.3390
16354TIP3    H270554   3.420   5.833   2.864 -0.4753 -0.6178  0.4226
16355TIP3   OH270555   2.476   2.797  11.695 -0.5908  0.1408 -0.4849
16355TIP3    H170556   2.417   2.732  11.657 -0.5597  0.9989 -2.0357
16355TIP3    H270557   2.556   2.749  11.713 -1.3847 -0.7908  0.6245
16356TIP3   OH270558   4.787   5.235  16.135 -0.1965  0.2814 -0.0978
16356TIP3    H170559   4.790   5.218  16.041  0.5855  0.5723 -0.1311
16356TIP3    H270560   4.721   5.174  16.168  0.4590 -0.7432 -0.6436
16357TIP3   OH270561   3.091   6.214  11.219 -0.8446  0.5147  0.2515
16357TIP3    H170562   3.154   6.233  11.149 -0.1973  2.3781  1.2899
16357TIP3    H270563   3.006   6.212  11.175 -0.3098  0.4612 -0.7815
16358TIP3   OH270564   3.358   5.658   4.413  0.4312  0.4965  0.3717
16358TIP3    H170565   3.388   5.662   4.504  0.5694  1.0349  0.3024
16358TIP3    H270566   3.339   5.749   4.390  2.9048  0.7121 -0.9637
16359TIP3   OH270567   1.087   4.502  13.823 -0.1303  0.2333  0.2832
16359TIP3    H170568   1.148   4.575  13.816 -0.8527  1.0703  2.4825
16359TIP3    H270569   1.036   4.506  13.742  2.2229 -0.0464 -1.2551
16360TIP3   OH270570   2.585   0.747  14.873  0.3097 -0.0853 -0.5170
16360TIP3    H170571   2.620   0.803  14.804 -1.1731  0.0339 -1.1821
16360TIP3    H270572   2.499   0.719  14.841 -1.0158  1.0701  1.8264
16361TIP3   OH270573   1.597   3.157  16.770  0.0404 -0.3862 -0.1312
16361TIP3    H170574   1.539   3.152  16.846  1.6377 -0.9572  1.0771
16361TIP3    H270575   1.598   3.069  16.734 -1.1923  0.0196 -1.2058
16362TIP3   OH270576   3.913   2.182   6.318 -0.3665  0.2178  0.2898
16362TIP3    H170577   3.917   2.276   6.301  0.7729  0.0011 -0.7420
16362TIP3    H270578   3.879   2.175   6.407  2.9934  1.7815  1.8134
16363TIP3   OH270579   3.130   4.715  10.773 -0.1740 -0.5571 -0.3229
16363TIP3    H170580   3.111   4.723  10.680  0.0817  0.1573 -0.3204
16363TIP3    H270581   3.114   4.623  10.793  0.9237 -0.9877 -1.3425
16364TIP3   OH270582   0.483   5.957  13.812  0.4760 -0.0766 -0.1895
16364TIP3    H170583   0.474   6.051  13.829  0.1795 -0.1610  0.1313
16364TIP3    H270584   0.399   5.931  13.775  1.0707  0.0735 -1.6620
16365TIP3   OH270585   0.526   3.055  16.649 -0.0991  0.0071  0.1706
16365TIP3    H170586   0.486   3.037  16.564 -1.7380 -0.1507  0.9521
16365TIP3    H270587   0.613   3.017  16.643 -0.2590 -0.1314 -1.3916
16366TIP3   OH270588   6.328   0.244  14.741  0.6714 -0.1177 -0.4890
16366TIP3    H170589   6.345   0.166  14.688 -0.5031 -0.2262 -0.7202
16366TIP3    H270590   6.335   0.317  14.679 -2.1211 -0.3490 -1.1458
16367TIP3   OH270591   5.453   3.541   4.270 -0.9742 -0.2605 -0.2447
16367TIP3    H170592   5.391   3.472   4.247  0.2836 -0.8980 -1.8038
16367TIP3    H270593   5.483   3.576   4.186 -1.0332  1.6952  0.5219
16368TIP3   OH270594   5.702   0.208  13.736 -0.4271  0.0375  0.3124
16368TIP3    H170595   5.790   0.241  13.714 -0.2925 -2.2917 -3.0974
16368TIP3    H270596   5.718   0.135  13.794 -0.2253  0.6103  0.9876
16369TIP3   OH270597   1.612   2.769   4.914  0.4173 -0.3198  0.4108
16369TIP3    H170598   1.527   2.792   4.951  0.8577 -0.6650  1.6828
16369TIP3    H270599   1.671   2.764   4.990  1.8820  1.2527 -0.5812
16370TIP3   OH270600   5.146   2.931  11.435  0.0755 -0.7309  1.0702
16370TIP3    H170601   5.074   2.915  11.495 -2.0657 -0.7866 -1.3863
16370TIP3    H270602   5.186   2.846  11.422 -0.6311 -1.0607  1.0216
16371TIP3   OH270603   2.413   0.718  12.755  0.3392  0.5863  0.0948
16371TIP3    H170604   2.349   0.736  12.824  0.7799 -2.0982  1.3096
16371TIP3    H270605   2.498   0.733  12.797  0.5889 -0.0270 -0.1844
16372TIP3   OH270606   3.613   6.285  16.672 -0.0633  0.2772  0.2784
16372TIP3    H170607   3.595   6.371  16.709 -2.1466 -0.3900  0.8898
16372TIP3    H270608   3.696   6.296  16.626  0.0455  2.4255  0.9118
16373TIP3   OH270609   3.132   2.265  13.547 -0.1581 -0.3947 -0.3149
16373TIP3    H170610   3.082   2.220  13.478 -1.4418 -1.1185  1.0710
16373TIP3    H270611   3.072   2.333  13.579  0.2750 -0.3423  0.3821
16374TIP3   OH270612   2.653   2.869   4.094  0.1321  0.4046 -0.3034
16374TIP3    H170613   2.703   2.924   4.034  0.5321  0.3925  0.0112
16374TIP3    H270614   2.650   2.919   4.175  1.4520 -0.5110  0.3251
16375TIP3   OH270615   5.245   2.887   6.056 -0.0487 -0.0719  0.4538
16375TIP3    H170616   5.323   2.839   6.084  0.8439  0.6034 -0.8049
16375TIP3    H270617   5.178   2.819   6.045  0.7382 -0.8332  0.2555
16376TIP3   OH270618   2.355   6.610  11.450 -0.7958 -0.2224 -0.0825
16376TIP3    H170619   2.314   6.590  11.366 -1.5278 -1.0264  0.4606
16376TIP3    H270620   2.286   6.594  11.515 -0.0875 -0.0798  0.7143
16377TIP3   OH270621   1.317   6.637  10.516 -0.2864  0.3756  0.2063
16377TIP3    H170622   1.251   6.608  10.579  0.7684 -2.2224  0.2024
16377TIP3    H270623   1.400   6.614  10.557  0.4391 -0.4470 -1.6932
16378TIP3   OH270624   3.030   0.724  11.690  0.6317  0.2930 -0.5165
16378TIP3    H170625   2.982   0.644  11.708  0.7061  0.7624  1.9304
16378TIP3    H270626   2.979   0.793  11.732  0.1386  1.6658 -3.2772
16379TIP3   OH270627   6.643   4.428   2.760 -1.0558  0.2506  0.1800
16379TIP3    H170628   6.676   4.363   2.822 -0.7905  1.6458  1.5422
16379TIP3    H270629   6.548   4.429   2.774 -1.1683 -0.4987 -0.5028
16380TIP3   OH270630   2.370   5.186  13.522  0.2318  0.2009  0.4776
16380TIP3    H170631   2.449   5.237  13.504  0.2482  0.2758  0.7533
16380TIP3    H270632   2.403   5.106  13.563  0.2050 -0.0217  0.0575
16381TIP3   OH270633   1.451   4.243   5.339  0.0535  0.0011 -0.4225
16381TIP3    H170634   1.499   4.164   5.362  1.6760  1.1046  0.0994
16381TIP3    H270635   1.424   4.229   5.248 -1.0793 -1.8067  0.1655
16382TIP3   OH270636   4.474   2.397  12.505  0.5582 -0.6072 -0.4652
16382TIP3    H170637   4.395   2.428  12.550 -1.0093 -2.1463 -2.0097
16382TIP3    H270638   4.477   2.449  12.424  0.4531 -1.3274 -0.9420
16383TIP3   OH270639   3.853   5.387  13.596  0.0031  0.4081 -0.2358
16383TIP3    H170640   3.878   5.376  13.687 -1.1173  0.8702  0.1486
16383TIP3    H270641   3.892   5.312  13.550  0.8283  0.3451  0.5642
16384TIP3   OH270642   0.213   3.828   1.546 -0.4268  0.5674 -0.2088
16384TIP3    H170643   0.209   3.909   1.496  0.9424 -0.1172 -1.4884
16384TIP3    H270644   0.190   3.760   1.482 -0.8926 -0.1134  0.6710
16385TIP3   OH270645   0.961   4.054  15.543  0.1354 -0.0143  0.1811
16385TIP3    H170646   0.875   4.084  15.513  0.6692  0.6337 -0.7348
16385TIP3    H270647   0.944   4.010  15.626 -0.7611  2.4795  1.3720
16386TIP3   OH270648   0.639   4.396  15.812 -0.1804 -0.4437 -0.2571
16386TIP3    H170649   0.559   4.363  15.852  0.3183  0.7852  1.8549
16386TIP3    H270650   0.707   4.377  15.877  0.5533  2.2298 -0.1900
16387TIP3   OH270651   3.643   5.791   4.154  0.2128 -0.3814 -0.0522
16387TIP3    H170652   3.693   5.727   4.205  0.0423 -1.9530 -1.8228
16387TIP3    H270653   3.699   5.811   4.079 -0.5782  0.0656 -0.5265
16388TIP3   OH270654   1.820   4.843  16.055  0.7612 -0.3397  0.4442
16388TIP3    H170655   1.877   4.766  16.064  0.7866 -0.3015  0.6154
16388TIP3    H270656   1.862   4.910  16.108 -0.3141 -0.8039  1.9355
16389TIP3   OH270657   1.779   3.046  14.342  0.0154 -0.0056  0.4380
16389TIP3    H170658   1.791   2.964  14.390 -1.1477  0.7340  2.0610
16389TIP3    H270659   1.797   3.114  14.406  0.3141  1.0143 -0.7136
16390TIP3   OH270660   6.637   4.005  12.631  0.7393 -0.1346 -0.1818
16390TIP3    H170661   6.661   3.994  12.539  2.0963  0.4298  0.0892
16390TIP3    H270662   6.708   4.057  12.668 -0.2922  0.4809  0.9644
16391TIP3   OH270663   0.105   5.913   4.229  0.3615 -0.2164 -0.4098
16391TIP3    H170664   0.018   5.947   4.251  2.4916  1.1240  7.2404
16391TIP3    H270665   0.091   5.820   4.215 -2.2717 -0.1021  1.0943
16392TIP3   OH270666   0.362   6.702   6.598 -1.0329  0.1484  0.2918
16392TIP3    H170667   0.332   6.705   6.507 -1.4707 -0.2636  0.4212
16392TIP3    H270668   0.389   6.792   6.617  1.7693 -0.3360 -1.1346
16393TIP3   OH270669   4.140   2.995  14.877  0.5823  0.1275 -0.1289
16393TIP3    H170670   4.165   2.909  14.841 -0.1605 -0.2943  0.3512
16393TIP3    H270671   4.120   3.048  14.800 -1.5321 -0.9317 -0.3431
16394TIP3   OH270672   3.299   5.497  14.183  0.0393  0.0553  0.0574
16394TIP3    H170673   3.286   5.590  14.167  0.7965  0.3624  1.2247
16394TIP3    H270674   3.390   5.481  14.159 -0.1699 -0.4450 -0.4143
16395TIP3   OH270675   2.830   5.247  11.882 -0.2961  0.0978 -0.3739
16395TIP3    H170676   2.735   5.258  11.885 -0.1808  1.2411 -0.6003
16395TIP3    H270677   2.864   5.336  11.875  0.8226 -0.2570  0.4623
16396TIP3   OH270678   1.719   1.830   3.377 -0.2020  0.1805  0.4926
16396TIP3    H170679   1.684   1.899   3.320 -2.3414 -1.7582 -0.6610
16396TIP3    H270680   1.781   1.783   3.322 -2.2271 -1.6589 -0.3225
16397TIP3   OH270681   6.220   6.576   2.026 -0.5061 -0.1275  0.2283
16397TIP3    H170682   6.258   6.580   2.114  1.0906  1.1559 -0.4760
16397TIP3    H270683   6.139   6.627   2.033  0.9237  2.2296  0.3798
16398TIP3   OH270684   1.132   0.693  10.465  0.1597 -0.1586  0.3486
16398TIP3    H170685   1.219   0.674  10.501  0.3679  0.3364  0.1093
16398TIP3    H270686   1.082   0.613  10.482  0.7673 -0.5894  0.1685
16399TIP3   OH270687   4.285   2.454  17.030 -0.2008 -0.0697 -0.1907
16399TIP3    H170688   4.324   2.412  16.954 -1.7690 -1.2680 -0.3682
16399TIP3    H270689   4.318   2.405  17.105  0.6762  0.5784 -0.1417
16400TIP3   OH270690   0.644   0.556  17.134 -0.4955  0.0005  0.2932
16400TIP3    H170691   0.662   0.477  17.186 -0.6797 -1.0807 -1.2713
16400TIP3    H270692   0.728   0.579  17.096 -0.6439 -0.0123 -0.0432
16401TIP3   OH270693   6.408   0.617  13.931  0.0522  0.4588  0.3177
16401TIP3    H170694   6.470   0.545  13.941  0.2441  0.3275 -1.5662
16401TIP3    H270695   6.453   0.679  13.874 -0.6786  1.4065  0.7565
16402TIP3   OH270696   6.358   5.593   2.850  0.2402 -0.4699 -0.2870
16402TIP3    H170697   6.274   5.571   2.889 -0.6195  2.6690 -0.2932
16402TIP3    H270698   6.347   5.573   2.757 -0.3621 -0.3943 -0.2344
16403TIP3   OH270699   2.768   4.477  16.016  0.0685 -0.3379 -0.9800
16403TIP3    H170700   2.701   4.412  16.040  0.2541 -1.2088 -2.7168
16403TIP3    H270701   2.724   4.533  15.952 -0.2370  1.5859  0.8657
16404TIP3   OH270702   5.641   1.861  12.298 -0.3372 -0.2714 -0.1020
16404TIP3    H170703   5.693   1.840  12.219 -1.0991 -1.1921 -0.3762
16404TIP3    H270704   5.657   1.954  12.313  0.6840 -0.3353 -0.7139
16405TIP3   OH270705   5.035   5.594  12.201  0.2675 -0.7277  0.3443
16405TIP3    H170706   5.101   5.597  12.132  0.4713 -1.9100  0.4719
16405TIP3    H270707   4.952   5.601  12.155  0.4899  2.0368  0.2835
16406TIP3   OH270708   1.739   4.585  12.957 -0.9545  0.1391  0.0442
16406TIP3    H170709   1.754   4.521  12.887  1.1272 -2.0910  2.4766
16406TIP3    H270710   1.687   4.538  13.022 -0.5132  1.3217  1.2792
16407TIP3   OH270711   0.229   4.003   2.363  0.0257 -0.1107  0.0446
16407TIP3    H170712   0.303   3.948   2.390  0.3005 -0.3837 -1.2042
16407TIP3    H270713   0.173   4.008   2.440  0.8004 -0.8251  0.6654
16408TIP3   OH270714   0.155   2.309  11.366  0.3953 -0.0893 -0.1494
16408TIP3    H170715   0.205   2.388  11.347  0.1544  0.1196  0.0748
16408TIP3    H270716   0.098   2.334  11.439 -0.1925 -0.2551 -0.5502
16409TIP3   OH270717   0.162   0.937  17.087  0.6166  0.4367 -1.1697
16409TIP3    H170718   0.192   1.028  17.095 -0.2929  0.5986  0.8806
16409TIP3    H270719   0.239   0.885  17.110  1.2129  0.6712 -2.6039
16410TIP3   OH270720   6.352   2.169  15.531 -0.8569 -0.1655  0.1974
16410TIP3    H170721   6.446   2.170  15.514 -0.9755  1.5192 -0.4423
16410TIP3    H270722   6.313   2.150  15.446 -1.1228 -0.1396  0.3127
16411TIP3   OH270723   0.487   1.320   0.894  0.3159  0.6084 -0.2486
16411TIP3    H170724   0.482   1.376   0.817  0.8487  0.6691 -0.2342
16411TIP3    H270725   0.509   1.379   0.966  0.7805  0.3930 -0.2174
16412TIP3   OH270726   4.230   5.181   0.680  0.0863 -0.2972 -0.5556
16412TIP3    H170727   4.319   5.215   0.682 -0.7176  1.9910 -1.8802
16412TIP3    H270728   4.194   5.213   0.597 -2.5709  0.4102  0.8261
16413TIP3   OH270729   4.239   1.458   3.555 -0.0230 -0.4127 -0.0806
16413TIP3    H170730   4.187   1.479   3.478 -0.1773 -0.8089 -0.0821
16413TIP3    H270731   4.225   1.532   3.614 -0.0432 -0.1933 -0.3581
16414TIP3   OH270732   1.630   0.467   5.014 -0.4755 -0.6868 -0.1630
16414TIP3    H170733   1.629   0.562   5.021 -0.5339 -0.7888  1.4957
16414TIP3    H270734   1.722   0.444   5.006 -0.4509 -0.5000 -0.4183
16415TIP3   OH270735   5.279   0.582  12.490  0.1597  0.1515  0.0420
16415TIP3    H170736   5.363   0.541  12.468 -0.6327 -1.2135 -0.5634
16415TIP3    H270737   5.233   0.515  12.541 -1.0684  0.3709 -0.7597
16416TIP3   OH270738   4.550   1.657  15.390 -0.4474 -0.8288 -0.1104
16416TIP3    H170739   4.633   1.700  15.373  0.0922 -1.3977  1.0498
16416TIP3    H270740   4.489   1.729  15.407 -0.1534 -0.4189 -0.7866
16417TIP3   OH270741   5.840   2.423   0.355 -0.0578  0.2520 -0.0857
16417TIP3    H170742   5.846   2.513   0.325 -1.9980  1.4358  2.8594
16417TIP3    H270743   5.931   2.392   0.359  0.5488  1.6715 -2.1310
16418TIP3   OH270744   4.303   0.006  14.000 -0.0510  0.0390 -0.5677
16418TIP3    H170745   4.391   0.024  14.034  0.6064 -0.4232 -1.9882
16418TIP3    H270746   4.301   0.048  13.915 -0.7838 -0.9919 -1.0765
16419TIP3   OH270747   4.468   0.555   1.313  0.4422 -0.2189  0.4136
16419TIP3    H170748   4.491   0.646   1.293 -1.4717 -0.4918 -3.6971
16419TIP3    H270749   4.552   0.509   1.317  1.2744  1.0726 -1.4626
16420TIP3   OH270750   6.709   6.516  15.507  0.6519 -0.2848  0.1374
16420TIP3    H170751   6.626   6.548  15.543 -0.5094 -2.0795 -0.8198
16420TIP3    H270752   6.737   6.584  15.446 -0.0537  0.4153  0.6004
16421TIP3   OH270753   4.401   4.689  11.054  0.1611  0.1722  0.7481
16421TIP3    H170754   4.344   4.664  11.127  0.7327  1.0225  1.5063
16421TIP3    H270755   4.473   4.738  11.096 -0.0315  1.5369 -0.4787
16422TIP3   OH270756   0.592   1.704   3.363  0.1562  0.3602 -0.6008
16422TIP3    H170757   0.573   1.763   3.289 -1.0855  0.9034  0.1411
16422TIP3    H270758   0.618   1.763   3.434  0.9299 -0.1375 -0.4564
16423TIP3   OH270759   6.490   6.574  12.366  1.1010  0.3588 -0.2123
16423TIP3    H170760   6.435   6.528  12.303  0.9034 -2.2597  1.8383
16423TIP3    H270761   6.579   6.567  12.330  0.8538 -0.2636 -0.7020
16424TIP3   OH270762   0.030   5.245  10.865  0.3910 -0.0965 -0.6117
16424TIP3    H170763  -0.047   5.227  10.918  1.3955  1.7741  1.5842
16424TIP3    H270764  -0.004   5.288  10.786 -0.9200 -0.7483 -0.3988
16425TIP3   OH270765   2.528   5.291  15.121 -0.0082  0.1631 -0.0022
16425TIP3    H170766   2.449   5.252  15.158  0.3708 -1.7071 -1.1420
16425TIP3    H270767   2.589   5.294  15.195  0.1737 -2.0203 -0.0315
16426TIP3   OH270768   3.128   6.064   3.446 -0.6780  0.2525  0.1494
16426TIP3    H170769   3.105   6.051   3.538 -0.6050 -0.1899  0.1039
16426TIP3    H270770   3.172   6.149   3.444 -1.2384  0.5527  0.4254
16427TIP3   OH270771   2.146   1.363   0.256 -0.5582  0.1954 -0.0725
16427TIP3    H170772   2.193   1.293   0.302 -0.7953 -1.7351 -2.6812
16427TIP3    H270773   2.163   1.442   0.309  1.7118 -1.3535  1.6004
16428TIP3   OH270774   6.077   6.763  14.172  1.0878  0.2036  0.0841
16428TIP3    H170775   6.141   6.810  14.118  2.9004 -0.3499  1.7026
16428TIP3    H270776   6.106   6.672  14.169  1.3456  0.1972  2.1386
16429TIP3   OH270777   3.117   3.998  13.845 -0.0897 -0.1227 -0.2360
16429TIP3    H170778   3.045   4.059  13.826  0.4626  0.2899 -1.0416
16429TIP3    H270779   3.101   3.970  13.935 -1.0332  0.2755 -0.2719
16430TIP3   OH270780   2.934   4.117   5.128 -0.1856 -0.0539 -0.2615
16430TIP3    H170781   2.944   4.074   5.043 -1.2211  0.7117 -0.7773
16430TIP3    H270782   2.939   4.045   5.191  0.8139 -0.6051 -0.9460
16431TIP3   OH270783   3.978   3.284  15.443  0.2799 -0.1464  0.2751
16431TIP3    H170784   4.046   3.309  15.505  0.9547  1.0312 -0.9086
16431TIP3    H270785   4.025   3.267  15.361 -0.4945 -2.5260  0.2861
16432TIP3   OH270786   5.229   5.449  10.539  0.7161  0.0458 -0.1899
16432TIP3    H170787   5.190   5.452  10.626  0.4433  1.5222 -0.3437
16432TIP3    H270788   5.258   5.359  10.528 -1.7883 -0.8616  0.3316
16433TIP3   OH270789   5.093   0.205   1.144 -0.1577 -0.2993  0.2855
16433TIP3    H170790   5.112   0.201   1.050 -0.5853  1.3939  0.1110
16433TIP3    H270791   5.150   0.274   1.177  0.1811 -1.0648  1.3388
16434TIP3   OH270792   0.269   0.417  14.223 -0.2134 -0.4055  0.0784
16434TIP3    H170793   0.200   0.351  14.215  0.4917 -0.8144 -3.2238
16434TIP3    H270794   0.230   0.497  14.188  0.3726 -0.1665 -0.0348
16435TIP3   OH270795   1.543   2.821  12.868 -0.1864  0.4558  0.1674
16435TIP3    H170796   1.627   2.839  12.825 -1.7044  3.1301 -1.7945
16435TIP3    H270797   1.488   2.897  12.846 -4.4161 -2.9885 -1.8725
16436TIP3   OH270798   5.799   5.289  15.769 -0.6400 -0.4025  0.3251
16436TIP3    H170799   5.768   5.201  15.789  2.0471 -1.4788 -0.0325
16436TIP3    H270800   5.787   5.298  15.674 -1.1526 -0.2879  0.4008
16437TIP3   OH270801   2.299   5.920  17.207 -0.0534  0.8140  0.0066
16437TIP3    H170802   2.245   5.842  17.222  1.8527 -0.1715  1.9077
16437TIP3    H270803   2.241   5.994  17.227 -1.1370 -0.1753  0.5539
16438TIP3   OH270804   1.949   1.074   4.441 -0.0059  0.4762  0.5814
16438TIP3    H170805   1.963   1.107   4.353 -1.9939 -1.6196 -0.5787
16438TIP3    H270806   2.022   1.013   4.456  1.5576  2.4425  1.2928
16439TIP3   OH270807   3.042   6.585   3.932 -0.3439 -0.5151  0.0396
16439TIP3    H170808   3.066   6.591   4.025  1.8818 -2.0330 -0.4002
16439TIP3    H270809   3.076   6.666   3.893  0.0324 -0.5689  0.2622
16440TIP3   OH270810   0.127   0.795   4.606 -0.2169 -0.0626 -0.6896
16440TIP3    H170811   0.050   0.828   4.652  1.5980 -0.5802  2.8757
16440TIP3    H270812   0.192   0.865   4.614  0.7962 -0.9859 -0.6733
16441TIP3   OH270813   4.764   4.981   2.444 -0.0001 -0.6343  0.0809
16441TIP3    H170814   4.689   4.928   2.469 -1.2601  0.2473 -1.7526
16441TIP3    H270815   4.741   5.070   2.472  0.7538 -0.4997  0.2919
16442TIP3   OH270816   1.785   1.744  17.171 -0.3316 -0.4499 -0.5079
16442TIP3    H170817   1.723   1.733  17.243  0.6855 -2.8934  0.0361
16442TIP3    H270818   1.746   1.812  17.116 -1.7498  0.5615  1.6522
16443TIP3   OH270819   3.444   2.134   0.605 -0.0592  0.1553 -0.5334
16443TIP3    H170820   3.477   2.104   0.690 -1.9749  0.2663  0.2804
16443TIP3    H270821   3.512   2.192   0.571 -0.2388  1.9044  1.9769
16444TIP3   OH270822   0.507   1.330   0.331  0.5506 -0.7716 -0.3473
16444TIP3    H170823   0.420   1.298   0.308  0.8637 -0.0845 -2.6566
16444TIP3    H270824   0.495   1.423   0.349  0.4271 -1.1673  1.7351
16445TIP3   OH270825   2.715   2.709   1.088  0.1694  0.0235  0.0583
16445TIP3    H170826   2.704   2.616   1.067  1.7172 -0.6281  2.0157
16445TIP3    H270827   2.675   2.719   1.175 -0.2374  1.2425 -0.2594
16446TIP3   OH270828   2.287   5.151   4.621 -0.5204 -0.6675 -0.2718
16446TIP3    H170829   2.194   5.163   4.638  0.1213  1.1650  2.0786
16446TIP3    H270830   2.323   5.239   4.616  1.2906 -1.3708 -0.0553
16447TIP3   OH270831   0.234   5.941   5.966 -0.6068  0.3293  0.4535
16447TIP3    H170832   0.215   6.028   6.000 -1.8021 -0.0571  0.7936
16447TIP3    H270833   0.165   5.924   5.901  0.5207  0.2667 -0.7396
16448TIP3   OH270834   2.066   4.078   3.999 -0.1436  0.0029 -0.1068
16448TIP3    H170835   2.090   4.037   3.916 -0.0417  1.8018 -0.9900
16448TIP3    H270836   2.022   4.159   3.975 -3.8870 -1.4146  1.5547
16449TIP3   OH270837   3.582   6.669  12.282  0.7137  0.1013  0.3492
16449TIP3    H170838   3.672   6.701  12.289  0.4872  0.7308  0.4286
16449TIP3    H270839   3.588   6.576  12.303  1.2326  0.2964  1.0863
16450TIP3   OH270840   1.717   2.534  14.442  0.0027  0.8100 -0.4763
16450TIP3    H170841   1.632   2.574  14.461 -0.0676  0.1271  0.6816
16450TIP3    H270842   1.743   2.573  14.359 -1.1815  1.4529 -0.5642
16451TIP3   OH270843   1.591   1.301   0.763  0.1261 -0.4913 -0.2247
16451TIP3    H170844   1.652   1.365   0.728  0.2740  0.0268  0.9808
16451TIP3    H270845   1.637   1.217   0.756  0.8773 -0.1341  0.4545
16452TIP3   OH270846   5.291   0.026   5.462 -0.5352  0.0494 -0.1052
16452TIP3    H170847   5.352   0.052   5.393 -0.5279 -0.7269 -0.3958
16452TIP3    H270848   5.336   0.049   5.543 -0.3756  0.6015 -0.3526
16453TIP3   OH270849   6.439   5.395  15.267  0.3048  0.2432 -0.0576
16453TIP3    H170850   6.369   5.335  15.245  0.5530  0.0060 -0.1982
16453TIP3    H270851   6.402   5.450  15.337 -0.5124  1.0765 -1.1280
16454TIP3   OH270852   0.555   0.550  16.230 -0.5046  0.3208  0.0076
16454TIP3    H170853   0.573   0.593  16.314 -1.3797  1.2882 -0.2915
16454TIP3    H270854   0.464   0.573  16.211 -0.4182 -0.1952 -1.0334
16455TIP3   OH270855   6.648   3.626   5.161 -0.0357  0.1683 -0.0121
16455TIP3    H170856   6.587   3.686   5.119 -0.5065  0.5668  1.2176
16455TIP3    H270857   6.624   3.628   5.254 -0.3036 -2.1977  0.0037
16456TIP3   OH270858   5.049   4.246   2.652 -0.1142 -0.5337 -0.2266
16456TIP3    H170859   5.026   4.272   2.562 -2.3576  0.4276  0.5639
16456TIP3    H270860   4.968   4.207   2.686  1.0434 -1.8566  1.0333
16457TIP3   OH270861   2.909   1.992   2.222 -0.1823 -0.0171 -0.0064
16457TIP3    H170862   2.928   1.898   2.224 -0.9289 -0.1543  0.5191
16457TIP3    H270863   2.993   2.032   2.200 -0.4416 -0.9821 -3.0569
16458TIP3   OH270864   0.640   1.520   4.727 -0.1020 -0.2605  0.3500
16458TIP3    H170865   0.625   1.472   4.808  0.7642 -0.1834  0.5529
16458TIP3    H270866   0.734   1.513   4.712 -0.1858  0.1752 -0.3662
16459TIP3   OH270867   0.632   4.848  15.499 -0.6989  0.1789  0.4804
16459TIP3    H170868   0.680   4.874  15.578 -0.3224  1.5261 -0.1631
16459TIP3    H270869   0.557   4.798  15.531  0.6959 -1.2891  1.5553
16460TIP3   OH270870   3.387   0.929   5.304  0.5424  0.3810  0.0491
16460TIP3    H170871   3.375   0.851   5.251  1.6345 -0.7326  1.3990
16460TIP3    H270872   3.478   0.926   5.331  0.1137  1.1251  1.6502
16461TIP3   OH270873   1.937   4.778  13.353 -0.8138  0.2934 -0.1356
16461TIP3    H170874   1.932   4.858  13.301 -2.2721 -0.0988 -0.6149
16461TIP3    H270875   1.858   4.780  13.407  0.6477  0.6640  2.0368
16462TIP3   OH270876   5.380   3.002  16.784  0.5139  0.9410  0.4497
16462TIP3    H170877   5.286   3.004  16.768 -0.1017 -1.7533  3.3607
16462TIP3    H270878   5.410   2.920  16.743  1.3195  1.0373  0.8288
16463TIP3   OH270879   1.140   5.140  12.591 -0.2847 -0.6753  0.6374
16463TIP3    H170880   1.197   5.194  12.646 -2.2229 -0.6671  2.7178
16463TIP3    H270881   1.180   5.053  12.592  0.6891 -0.2355  0.5229
16464TIP3   OH270882   5.849   3.739   5.227 -0.6509 -0.2979  0.5120
16464TIP3    H170883   5.935   3.781   5.229 -0.7366 -0.0780 -0.4988
16464TIP3    H270884   5.800   3.782   5.297 -0.4077  0.5737  0.1513
16465TIP3   OH270885   4.966   3.263  14.539  0.0445 -0.2588 -0.0197
16465TIP3    H170886   4.938   3.188  14.591 -1.0946 -0.7152 -1.2589
16465TIP3    H270887   5.035   3.228  14.482 -0.0629 -0.2322 -0.1689
16466TIP3   OH270888   2.662   1.048  15.877  0.0102  0.1260  0.0377
16466TIP3    H170889   2.622   1.132  15.856  1.5652  0.6713 -0.8086
16466TIP3    H270890   2.645   1.036  15.971 -0.6263  1.1558  0.0529
16467TIP3   OH270891   0.403   6.604   4.050  0.7366  0.0973 -0.1601
16467TIP3    H170892   0.379   6.523   4.095 -0.8474  0.2576 -0.6748
16467TIP3    H270893   0.494   6.619   4.074 -0.2618  0.5877  3.6504
16468TIP3   OH270894   3.730   0.022   5.451  0.0844 -0.0248  0.5633
16468TIP3    H170895   3.698   0.062   5.532  0.5406 -1.6314  1.5685
16468TIP3    H270896   3.681  -0.060   5.444 -1.0502  0.8068 -1.6063
16469TIP3   OH270897   6.274   2.910   1.329  0.2448 -0.6124  0.3747
16469TIP3    H170898   6.281   2.942   1.419 -3.7043 -0.2765  0.6462
16469TIP3    H270899   6.322   2.975   1.277 -1.1283  1.5912  1.7748
16470TIP3   OH270900   3.693   0.455  15.338  0.1494  0.0348 -0.3411
16470TIP3    H170901   3.656   0.537  15.305  1.2220  0.4375 -0.5704
16470TIP3    H270902   3.740   0.419  15.263  1.6666  0.3962  0.4201
16471TIP3   OH270903   6.764   1.768  13.441  0.0380  0.4148  0.0949
16471TIP3    H170904   6.677   1.778  13.401  0.6954  2.7020 -0.8109
16471TIP3    H270905   6.757   1.687  13.493 -2.0374 -0.4630 -1.4856
16472TIP3   OH270906   2.831   1.949   0.778 -0.3459 -0.8065  0.7528
16472TIP3    H170907   2.862   2.027   0.732  1.3161 -1.1247  1.2868
16472TIP3    H270908   2.747   1.928   0.736 -2.2674  2.8985  2.5465
16473TIP3   OH270909   3.179   1.955  11.418  0.1689 -0.0022 -0.4999
16473TIP3    H170910   3.271   1.955  11.391  0.0708 -0.9498 -0.8342
16473TIP3    H270911   3.130   1.943  11.337 -0.1949 -0.8047 -0.1673
16474TIP3   OH270912   6.032   1.709   3.871 -0.3670 -0.0968  0.5207
16474TIP3    H170913   6.009   1.617   3.856 -1.5842  0.4895 -1.2860
16474TIP3    H270914   5.987   1.731   3.953  1.3068 -1.5633  1.8848
16475TIP3   OH270915   2.049   6.682  13.015  0.4083  0.2768 -0.0695
16475TIP3    H170916   1.993   6.635  12.953  0.6634 -0.5920  0.3545
16475TIP3    H270917   2.048   6.629  13.094  0.8048  0.9234  0.3747
16476TIP3   OH270918   2.322   3.731   5.999  0.4425 -0.0710 -0.2238
16476TIP3    H170919   2.286   3.655   6.045  0.8598 -0.1773 -0.0600
16476TIP3    H270920   2.371   3.778   6.067  0.5614  0.0977 -0.4274
16477TIP3   OH270921   2.675   4.282  16.652 -0.1634  0.4684  0.3955
16477TIP3    H170922   2.611   4.238  16.708 -0.0678  0.0828  0.2074
16477TIP3    H270923   2.623   4.317  16.580  0.1188 -2.0750 -1.1380
16478TIP3   OH270924   1.268   6.767   3.255  0.3464 -0.3515 -0.1083
16478TIP3    H170925   1.290   6.777   3.348 -1.6216  0.3096  0.3072
16478TIP3    H270926   1.196   6.704   3.254  0.7665 -0.8194 -1.2475
16479TIP3   OH270927   6.583   4.693  13.820 -0.4711  0.0229  0.2553
16479TIP3    H170928   6.564   4.784  13.799 -0.4479  0.5253  2.2780
16479TIP3    H270929   6.578   4.647  13.737  0.1773  1.9856 -0.8903
16480TIP3   OH270930   1.039   2.682   5.813 -0.3816 -0.5415  0.1565
16480TIP3    H170931   1.114   2.630   5.786 -0.5546 -0.6459 -0.1183
16480TIP3    H270932   0.977   2.618   5.849  0.1395 -0.3349  1.4815
16481TIP3   OH270933   5.688   6.585  14.918 -0.3510  0.9551 -0.6044
16481TIP3    H170934   5.607   6.628  14.890 -0.7701 -0.6076 -1.9274
16481TIP3    H270935   5.699   6.610  15.009 -2.8705  0.4251 -0.1103
16482TIP3   OH270936   4.155   6.697  16.479  0.2556  0.7455 -0.5358
16482TIP3    H170937   4.239   6.728  16.513  0.7964 -0.9025 -0.3277
16482TIP3    H270938   4.179   6.644  16.403 -0.3875 -1.8313  0.9985
16483TIP3   OH270939   5.492   1.049   2.623  0.1126  0.0125  0.2863
16483TIP3    H170940   5.526   1.077   2.709  0.9162  0.3667 -0.1404
16483TIP3    H270941   5.522   0.959   2.615 -2.0004 -0.8277  1.4138
16484TIP3   OH270942   3.120   0.540  17.048 -0.2821 -0.6097  0.1227
16484TIP3    H170943   3.033   0.556  17.086  0.0593  1.7632  0.0220
16484TIP3    H270944   3.178   0.533  17.124  0.0876  2.1760  0.1639
16485TIP3   OH270945   4.352   6.159  12.393 -0.0332 -1.1066  0.2358
16485TIP3    H170946   4.315   6.109  12.465 -1.1018  0.9886  1.1795
16485TIP3    H270947   4.300   6.239  12.389  2.7010  0.7421 -0.1040
16486TIP3   OH270948   0.709   6.743   2.825  0.4952 -0.3022 -0.5618
16486TIP3    H170949   0.725   6.832   2.792  0.1929 -0.7588 -1.9914
16486TIP3    H270950   0.615   6.730   2.813 -0.0264  0.2504  2.4322
16487TIP3   OH270951   5.948   3.806  14.179 -0.1966  0.0339 -0.4576
16487TIP3    H170952   6.000   3.863  14.235 -0.9630  0.5998 -0.3038
16487TIP3    H270953   5.859   3.843  14.183 -0.4866 -0.5625 -1.1725
16488TIP3   OH270954   0.199   5.349   5.538  0.4795  0.6020 -0.4301
16488TIP3    H170955   0.196   5.259   5.572 -0.6875  0.5534 -0.6464
16488TIP3    H270956   0.132   5.352   5.471  0.0166  1.8467  0.0766
16489TIP3   OH270957   3.673   2.070   1.577 -0.3784  0.4418  0.1491
16489TIP3    H170958   3.706   2.151   1.540 -0.1563  0.2993  0.0354
16489TIP3    H270959   3.692   2.003   1.511 -0.1128  0.2123  0.4561
16490TIP3   OH270960   0.570   2.970  13.507  0.4156  0.6465 -0.2358
16490TIP3    H170961   0.483   2.994  13.477  0.7328  0.6786 -1.1334
16490TIP3    H270962   0.555   2.917  13.585 -0.4267 -0.0494 -0.8734
16491TIP3   OH270963   1.761   2.887  17.199 -0.0967  0.1731 -0.2459
16491TIP3    H170964   1.780   2.799  17.230 -1.3607  0.8084  2.4789
16491TIP3    H270965   1.706   2.874  17.122 -0.9876 -1.4263  0.6358
16492TIP3   OH270966   5.633   4.948   4.230  0.5975  0.2768  0.5725
16492TIP3    H170967   5.659   4.857   4.219  1.7101  0.4943  1.4344
16492TIP3    H270968   5.704   4.998   4.191  1.4766  0.8677  2.9017
16493TIP3   OH270969   0.847   4.376  12.282  0.2472 -0.3509 -0.0811
16493TIP3    H170970   0.780   4.346  12.344  0.1745 -0.5463 -0.2522
16493TIP3    H270971   0.929   4.368  12.331 -0.0070  1.3415  0.6455
16494TIP3   OH270972   4.227   1.327  16.177  0.0905 -0.1395  0.2840
16494TIP3    H170973   4.149   1.271  16.176 -0.6809  0.8787 -1.9832
16494TIP3    H270974   4.300   1.267  16.165 -0.7732 -0.6834 -2.6956
16495TIP3   OH270975   2.589   5.316   3.417  0.1714 -0.3445 -0.3188
16495TIP3    H170976   2.576   5.411   3.422 -0.6760 -0.4982  0.3994
16495TIP3    H270977   2.572   5.284   3.505  0.5808 -1.1519 -0.5283
16496TIP3   OH270978   5.752   1.424   1.962  0.3460  0.4371  0.1654
16496TIP3    H170979   5.755   1.432   2.057  0.6473  1.0626  0.1060
16496TIP3    H270980   5.835   1.382   1.939 -0.5844 -1.5628  0.3452
16497TIP3   OH270981   5.032   5.671  13.590  0.5083 -0.3352  0.1443
16497TIP3    H170982   5.098   5.687  13.522 -0.0871 -0.4377 -0.4653
16497TIP3    H270983   5.051   5.735  13.658  1.6468 -0.7971  0.2674
16498TIP3   OH270984   5.878   4.764  15.882  0.1268 -0.2653  0.3864
16498TIP3    H170985   5.864   4.772  15.787  0.7553  0.6361  0.3692
16498TIP3    H270986   5.970   4.739  15.890  0.1132 -0.1897  0.7717
16499TIP3   OH270987   6.588   3.561   3.712 -0.0195 -0.5270 -0.0133
16499TIP3    H170988   6.583   3.636   3.771 -1.8815 -1.5332  1.1609
16499TIP3    H270989   6.534   3.586   3.637  1.9423  0.5498 -1.1172
16500TIP3   OH270990   4.052   1.778   2.874  0.2031 -0.3358  0.6684
16500TIP3    H170991   4.036   1.714   2.944  1.2849 -0.9484  0.3656
16500TIP3    H270992   4.136   1.818   2.897  0.7543 -0.8105 -0.4752
16501TIP3   OH270993   4.146   0.736  10.732 -0.0428 -0.2987 -0.7155
16501TIP3    H170994   4.107   0.662  10.686 -0.8514 -0.1914 -0.2123
16501TIP3    H270995   4.077   0.801  10.737  0.4514  0.2205 -0.5317
16502TIP3   OH270996   6.423   3.971   2.562  0.2086 -0.0816  0.3738
16502TIP3    H170997   6.414   4.065   2.578 -1.9028 -0.1669 -0.2361
16502TIP3    H270998   6.391   3.929   2.642 -2.3641 -0.3279 -0.7384
16503TIP3   OH270999   6.361   1.032  16.238  0.0336 -0.6801  0.6909
16503TIP3    H171000   6.430   1.033  16.172 -1.5306  0.1770 -0.9564
16503TIP3    H271001   6.381   1.108  16.294 -0.4655  0.5270 -0.7428
16504TIP3   OH271002   0.811   4.600   0.813  0.6155  0.2660  0.4730
16504TIP3    H171003   0.722   4.582   0.842  0.3467 -1.3207 -1.2714
16504TIP3    H271004   0.866   4.548   0.872  0.3934  1.0764  1.4092
16505TIP3   OH271005   2.922   5.248  16.166 -0.3327  0.4318 -0.2202
16505TIP3    H171006   2.847   5.202  16.201  0.5411 -0.1691  0.8768
16505TIP3    H271007   2.898   5.341  16.171 -0.5176  0.3076  1.2471
16506TIP3   OH271008   1.559   2.341  15.499 -0.1051 -0.4989 -0.1285
16506TIP3    H171009   1.561   2.247  15.483  1.2006 -0.7659  1.4829
16506TIP3    H271010   1.626   2.376  15.440  1.9077 -1.0211  1.7809
16507TIP3   OH271011   2.024   6.508   5.195 -0.7964 -0.1851 -0.0092
16507TIP3    H171012   2.017   6.535   5.104 -1.2171  0.2900  0.1596
16507TIP3    H271013   2.019   6.589   5.245  1.8331 -0.2205  0.3514
16508TIP3   OH271014   3.856   4.209   1.980 -0.1924 -0.2057  0.2313
16508TIP3    H171015   3.793   4.147   2.018  1.4140 -1.1076  1.4812
16508TIP3    H271016   3.873   4.174   1.892  0.1935 -1.1651  0.6827
16509TIP3   OH271017   0.200   5.204  16.859  0.1209 -0.0756 -1.1211
16509TIP3    H171018   0.118   5.229  16.900  0.2998  0.4833 -1.0951
16509TIP3    H271019   0.249   5.159  16.928 -0.0223 -0.1042 -1.0393
16510TIP3   OH271020   0.168   4.397   0.002  0.5781  0.2806  0.1228
16510TIP3    H171021   0.233   4.340  -0.039  1.3331  2.2199 -1.4473
16510TIP3    H271022   0.096   4.401  -0.062 -0.9196 -1.4703  1.6404
16511TIP3   OH271023   6.054   5.102   3.746 -0.0355  0.4745  0.1257
16511TIP3    H171024   6.038   5.080   3.655  0.2506 -1.8930  0.6211
16511TIP3    H271025   6.095   5.188   3.743 -0.3073  0.5447 -1.9530
16512TIP3   OH271026   0.420   1.789   6.183 -0.2342 -0.1837 -0.1140
16512TIP3    H171027   0.472   1.743   6.117  1.7461 -0.2930  1.4458
16512TIP3    H271028   0.454   1.756   6.267 -2.2403  0.4185  0.9674
16513TIP3   OH271029   2.499   0.737   5.368  0.3972 -0.7258  0.1373
16513TIP3    H171030   2.483   0.809   5.429  0.2916 -0.2849 -0.4095
16513TIP3    H271031   2.469   0.770   5.283  2.4392 -0.5775 -0.5551
16514TIP3   OH271032   3.954   6.137  12.318 -0.0287 -0.4634 -0.0998
16514TIP3    H171033   3.892   6.209  12.332  0.5076  0.1464 -0.7834
16514TIP3    H271034   4.006   6.133  12.398  1.6053  1.5798 -1.0164
16515TIP3   OH271035   0.090   2.558   4.245 -0.4836 -0.1030 -0.0827
16515TIP3    H171036   0.002   2.577   4.277 -0.7276 -0.0841 -0.7519
16515TIP3    H271037   0.107   2.468   4.272 -0.6308 -0.0394  0.2206
16516TIP3   OH271038   4.724   5.314   2.263 -0.4747  0.3081 -0.5653
16516TIP3    H171039   4.810   5.310   2.220 -0.0134  1.0189  0.2817
16516TIP3    H271040   4.676   5.381   2.215 -1.1692 -1.2643 -2.1183
16517TIP3   OH271041   0.536   3.370   4.953  0.5257 -0.1425 -0.0572
16517TIP3    H171042   0.499   3.316   5.023  1.0337 -0.6305 -0.1560
16517TIP3    H271043   0.517   3.460   4.978 -0.3602 -0.3719  0.1030
16518TIP3   OH271044   6.104   4.997  15.162 -0.2406  0.2157 -0.2895
16518TIP3    H171045   6.164   4.926  15.139 -1.4592 -1.2539  1.0136
16518TIP3    H271046   6.160   5.075  15.167  1.3753 -0.9354 -0.1756
16519TIP3   OH271047   6.534   2.225  15.745 -0.1650  0.3196  0.2874
16519TIP3    H171048   6.510   2.218  15.652 -0.5739  0.2722  0.3955
16519TIP3    H271049   6.508   2.141  15.782 -0.6382  0.5947  0.5858
16520TIP3   OH271050   2.250   1.252   5.876 -0.2595 -0.4409 -0.5808
16520TIP3    H171051   2.246   1.308   5.953  0.0855 -0.5270 -0.5019
16520TIP3    H271052   2.214   1.306   5.806 -0.4506 -0.3169 -0.3884
16521TIP3   OH271053   2.972   1.366  15.403 -0.0012 -0.1853 -0.0391
16521TIP3    H171054   2.935   1.290  15.357  1.4998 -0.6606 -0.4733
16521TIP3    H271055   2.981   1.337  15.494  2.3158 -1.1901 -0.5599
16522TIP3   OH271056   1.478   1.393  14.579  0.2540  0.3811  0.9429
16522TIP3    H171057   1.398   1.386  14.632  0.0006  1.4530  0.7165
16522TIP3    H271058   1.488   1.487  14.564 -0.1123  0.0452 -1.5851
16523TIP3   OH271059   3.681   5.866   5.235 -0.5532  0.5885 -0.1410
16523TIP3    H171060   3.706   5.847   5.145 -0.1970  0.5929 -0.0432
16523TIP3    H271061   3.615   5.935   5.228  1.1509  2.2503 -0.2914
16524TIP3   OH271062   1.282   4.232  12.801  0.8986 -0.7528  0.0150
16524TIP3    H171063   1.349   4.240  12.868  1.5775 -0.1652 -0.7249
16524TIP3    H271064   1.306   4.153  12.751  0.9330 -0.6528 -0.1283
16525TIP3   OH271065   0.659   5.696   5.214 -0.1268 -0.6796 -0.6962
16525TIP3    H171066   0.629   5.639   5.143  0.1168 -3.0732  1.0837
16525TIP3    H271067   0.613   5.779   5.199 -1.2203 -1.6332 -2.7754
16526TIP3   OH271068   3.261   0.194   5.913 -0.5645 -0.3081 -0.3514
16526TIP3    H171069   3.222   0.276   5.945  0.4663 -0.4413  1.2635
16526TIP3    H271070   3.186   0.139   5.891 -1.2815  0.1888  0.8266
16527TIP3   OH271071   5.031   4.188   4.313 -1.0081  0.3238  0.1658
16527TIP3    H171072   5.009   4.095   4.317 -0.0516  0.0097 -1.5624
16527TIP3    H271073   5.069   4.200   4.226 -1.2103  2.3541  0.3488
16528TIP3   OH271074   4.976   4.623  13.362  0.6617 -0.2664 -0.1298
16528TIP3    H171075   4.890   4.582  13.370  0.7087  0.0674  2.4048
16528TIP3    H271076   5.024   4.566  13.302 -0.6767 -1.5378 -0.0298
16529TIP3   OH271077   4.543   2.759   3.934 -0.3631  0.1056  0.2675
16529TIP3    H171078   4.476   2.690   3.941 -1.6536  1.3251  0.1001
16529TIP3    H271079   4.520   2.821   4.003 -0.2307  1.2363 -0.6948
16530TIP3   OH271080   6.234   0.594   3.040  0.0905  0.1350  0.2795
16530TIP3    H171081   6.171   0.522   3.041  0.9663 -0.6899 -1.5918
16530TIP3    H271082   6.246   0.616   3.133 -0.9902 -1.4150  0.8207
16531TIP3   OH271083   5.976   5.112   5.818  0.0274 -0.2876 -0.2915
16531TIP3    H171084   5.917   5.078   5.750 -0.4632  0.9040 -0.4835
16531TIP3    H271085   5.983   5.206   5.798  1.8675 -0.3910 -0.1625
16532TIP3   OH271086   0.385   2.142   2.035 -0.1324  0.0974  0.4820
16532TIP3    H171087   0.316   2.086   2.001  0.5330  0.3265 -1.2883
16532TIP3    H271088   0.455   2.138   1.970  2.0596 -1.0818  2.8100
16533TIP3   OH271089   6.564   4.767   3.770 -0.1392 -0.3524  0.2125
16533TIP3    H171090   6.505   4.701   3.806  0.5636 -0.3561  1.4186
16533TIP3    H271091   6.530   4.850   3.803  1.5683 -0.5004  2.4955
16534TIP3   OH271092   6.735   6.254   2.049 -0.2554 -0.2971  0.3390
16534TIP3    H171093   6.708   6.276   2.139  0.0648 -1.0233  0.6117
16534TIP3    H271094   6.748   6.339   2.007 -0.5816  0.0494  0.9289
16535TIP3   OH271095   5.734   5.153   4.086  0.0300 -0.0602  0.1420
16535TIP3    H171096   5.820   5.161   4.046  0.6453 -1.8677  1.0526
16535TIP3    H271097   5.678   5.211   4.034  1.3857 -0.2684 -1.5992
16536TIP3   OH271098   4.829   0.099  12.366 -0.0433 -0.4184  0.8224
16536TIP3    H171099   4.788   0.154  12.433 -0.5192  1.6415 -1.0899
16536TIP3    H271100   4.760   0.081  12.303  0.3939 -2.3516  0.8767
16537TIP3   OH271101   3.921   1.064   0.717 -0.7384 -0.6806 -0.1388
16537TIP3    H171102   3.864   1.012   0.773 -0.4184 -1.0415 -0.1466
16537TIP3    H271103   3.867   1.139   0.691 -0.3349  0.4473  2.0968
16538TIP3   OH271104   6.470   1.433   2.278 -0.3805 -0.3452  0.5006
16538TIP3    H171105   6.512   1.509   2.238  1.5261 -1.1613  0.8973
16538TIP3    H271106   6.419   1.470   2.351 -0.6140  0.6944 -0.1697
16539TIP3   OH271107   6.244   2.539  13.461  0.0141  0.0833  0.4090
16539TIP3    H171108   6.269   2.630  13.442 -0.1011 -0.2766 -1.5770
16539TIP3    H271109   6.152   2.534  13.433 -0.0826 -0.5662  0.8329
16540TIP3   OH271110   5.363   2.050  15.387 -0.2920  0.1450  0.3309
16540TIP3    H171111   5.368   1.996  15.466 -0.9068 -0.0060  0.2737
16540TIP3    H271112   5.304   2.121  15.410 -0.2744  0.2387  0.0912
16541TIP3   OH271113   2.115   4.639   3.020  0.0516 -0.2567 -0.0440
16541TIP3    H171114   2.036   4.586   3.026 -0.6463  1.0092  2.5081
16541TIP3    H271115   2.180   4.580   2.981 -2.2098 -1.1553 -2.5883
16542TIP3   OH271116   1.222   6.191  10.510  0.0832 -0.0145  0.5984
16542TIP3    H171117   1.170   6.205  10.431  0.6121  1.4360  0.4886
16542TIP3    H271118   1.172   6.127  10.561  0.2913 -1.8640 -1.4165
16543TIP3   OH271119   5.963   2.251  10.939 -0.0040  0.1604  0.0657
16543TIP3    H171120   6.052   2.284  10.956  0.4735  0.4799 -2.7631
16543TIP3    H271121   5.911   2.330  10.924 -1.2569  0.0905  3.4373
16544TIP3   OH271122   3.881   2.669   0.841 -0.1818 -0.0693 -0.6209
16544TIP3    H171123   3.925   2.659   0.926 -0.0767  0.6144 -0.5958
16544TIP3    H271124   3.788   2.669   0.862 -0.1584 -0.0220 -0.5186
16545TIP3   OH271125   1.073   3.680   4.535 -0.4421 -0.6964 -0.6358
16545TIP3    H171126   1.069   3.769   4.502 -0.4810 -0.4594 -0.0034
16545TIP3    H271127   1.030   3.627   4.468 -0.6693 -0.1983 -0.8804
16546TIP3   OH271128   3.815   1.036  14.316 -0.5702  0.0168 -0.2655
16546TIP3    H171129   3.864   0.955  14.307 -1.4767 -0.4712 -0.9447
16546TIP3    H271130   3.743   1.027  14.254 -0.9358  1.1467 -0.0140
16547TIP3   OH271131   0.762   0.741   4.306  0.1105  0.2122 -0.0824
16547TIP3    H171132   0.855   0.723   4.320  0.5814  1.8828 -0.9114
16547TIP3    H271133   0.717   0.671   4.352  1.7423  0.4506  1.9796
16548TIP3   OH271134   0.500   6.374  14.248 -0.5794 -0.7087 -0.4494
16548TIP3    H171135   0.569   6.432  14.282 -0.3646 -0.7839 -0.7585
16548TIP3    H271136   0.489   6.401  14.157  0.1200 -1.7249 -0.8427
16549TIP3   OH271137   5.914   4.112  15.164 -0.0698 -0.5468  0.3311
16549TIP3    H171138   5.872   4.032  15.132  0.5312 -0.5739 -0.3947
16549TIP3    H271139   6.007   4.092  15.165  0.1462  0.3338 -0.4391
16550TIP3   OH271140   3.148   2.008  16.792 -0.1876  0.1032  0.5113
16550TIP3    H171141   3.130   2.047  16.877  1.7717  0.5233  0.7549
16550TIP3    H271142   3.184   1.922  16.812  1.7321  0.7950  0.1973
16551TIP3   OH271143   3.142   0.415  15.269  0.5444 -0.5965 -0.1738
16551TIP3    H171144   3.123   0.355  15.341  1.3475 -0.6233  0.0217
16551TIP3    H271145   3.056   0.442  15.236  0.1488  1.0406  2.1340
16552TIP3   OH271146   4.488   3.026   3.794 -0.2105 -0.4779 -0.2721
16552TIP3    H171147   4.498   2.932   3.806 -0.9866 -0.3861  1.3581
16552TIP3    H271148   4.569   3.055   3.753  0.2912 -1.7596 -0.1915
16553TIP3   OH271149   1.556   1.416   5.114 -0.3058  0.3849 -0.6636
16553TIP3    H171150   1.615   1.358   5.163 -0.1285  0.7275 -0.4684
16553TIP3    H271151   1.606   1.497   5.103 -0.3977  0.3615 -1.2933
16554TIP3   OH271152   6.505   3.712  17.217  0.0944 -0.4717  0.5306
16554TIP3    H171153   6.411   3.699  17.206 -0.2513 -0.2672  2.9057
16554TIP3    H271154   6.511   3.790  17.273  1.7138  0.2298 -0.5973
16555TIP3   OH271155   2.681   1.505  11.628 -0.0022 -0.2998 -0.2024
16555TIP3    H171156   2.682   1.432  11.689 -1.8773 -1.7616 -1.8445
16555TIP3    H271157   2.761   1.494  11.577  0.6000 -0.1910  0.7186
16556TIP3   OH271158   5.764   6.199   6.334 -0.0350 -0.1692 -0.0756
16556TIP3    H171159   5.829   6.268   6.347 -1.7682  1.7941 -1.4707
16556TIP3    H271160   5.815   6.123   6.305  1.7229  1.0988 -0.3918
16557TIP3   OH271161   0.872   2.716  15.474 -0.0338 -0.1218  0.1800
16557TIP3    H171162   0.866   2.803  15.433 -0.4091 -0.1261  0.2229
16557TIP3    H271163   0.898   2.658  15.402 -1.3037 -0.2338 -0.2062
16558TIP3   OH271164   4.501   3.789  12.281 -0.0100 -0.1871  0.3594
16558TIP3    H171165   4.429   3.793  12.217  1.7478 -2.9775 -1.9393
16558TIP3    H271166   4.564   3.853  12.251 -0.6519  0.8868  1.2674
16559TIP3   OH271167   5.322   3.593  14.713 -0.1026  0.4892  0.0612
16559TIP3    H171168   5.294   3.566  14.801 -0.0142  1.7456  0.4833
16559TIP3    H271169   5.404   3.641  14.728  0.4431 -0.1591 -0.8112
16560TIP3   OH271170   2.394   0.963  10.682  0.4739  0.2170 -0.3562
16560TIP3    H171171   2.343   1.034  10.643  0.5685  1.2826  1.3967
16560TIP3    H271172   2.470   0.953  10.624 -0.7326 -0.0716 -1.9103
16561TIP3   OH271173   0.435   4.803   2.162  0.6405  0.0723 -0.6985
16561TIP3    H171174   0.404   4.734   2.103 -0.9321 -2.3186  2.7924
16561TIP3    H271175   0.522   4.774   2.189  0.8200  0.5097 -0.8045
16562TIP3   OH271176   0.506   5.322  14.484 -0.3228  0.1313  0.1587
16562TIP3    H171177   0.419   5.297  14.452  0.1978 -2.1370  0.4316
16562TIP3    H271178   0.517   5.271  14.564  1.3939  0.1786 -0.0427
16563TIP3   OH271179   4.268   0.188  15.804 -0.0169  0.6376 -0.3135
16563TIP3    H171180   4.280   0.177  15.710 -0.4079 -2.1944 -0.0951
16563TIP3    H271181   4.178   0.217  15.814  0.0010  0.8677 -0.8176
16564TIP3   OH271182   5.102   6.297   0.030 -0.1135 -0.2057  0.1594
16564TIP3    H171183   5.009   6.283   0.051 -0.3908  0.9107 -0.3020
16564TIP3    H271184   5.110   6.272  -0.062 -0.1568  0.6323 -0.0686
16565TIP3   OH271185   2.168   0.105   3.976  0.2190 -0.4710 -0.6357
16565TIP3    H171186   2.143   0.098   3.884 -1.6106 -0.6164 -0.1474
16565TIP3    H271187   2.150   0.196   3.999 -0.6258 -0.7679 -0.0770
16566TIP3   OH271188   1.291   5.292  11.774  0.7546 -0.0087  0.4421
16566TIP3    H171189   1.294   5.373  11.826  1.0463 -0.8399  1.7480
16566TIP3    H271190   1.358   5.236  11.813  0.9974 -0.6387 -0.8719
16567TIP3   OH271191   3.982   1.562  13.957  0.3501  0.2104  0.1794
16567TIP3    H171192   3.950   1.499  13.892 -2.0956  1.4250  0.1332
16567TIP3    H271193   3.946   1.532  14.040 -0.1669  1.0902  0.2810
16568TIP3   OH271194   4.583   4.634   0.869  0.5678 -0.3115 -0.1667
16568TIP3    H171195   4.635   4.570   0.822 -1.0282 -1.6571 -0.1223
16568TIP3    H271196   4.581   4.602   0.960  2.4910  1.5441  0.5834
16569TIP3   OH271197   6.628   4.216   1.816  0.1203 -0.0722  0.1744
16569TIP3    H171198   6.667   4.198   1.730  1.1932  1.3842  0.3318
16569TIP3    H271199   6.588   4.133   1.842  0.7083 -0.8267 -1.2567
16570TIP3   OH271200   0.599   5.667  17.226 -0.4786 -0.3082 -0.9033
16570TIP3    H171201   0.640   5.713  17.153  1.3713 -1.3471 -0.5369
16570TIP3    H271202   0.519   5.717  17.244  1.3243  2.5760 -0.7077
16571TIP3   OH271203   1.253   2.893  11.895  0.1573  0.6860  0.4435
16571TIP3    H171204   1.253   2.852  11.809 -1.5099  1.4485  0.0447
16571TIP3    H271205   1.216   2.827  11.953  1.1085  0.2371  0.5371
16572TIP3   OH271206   2.473   1.066   0.653  0.5275 -0.4576  0.6493
16572TIP3    H171207   2.521   1.140   0.615  0.0919 -0.7733 -0.5641
16572TIP3    H271208   2.509   1.057   0.741  0.8815  0.9297  0.6649
16573TIP3   OH271209   5.951   3.736  11.118  0.2684 -0.1250 -0.0384
16573TIP3    H171210   5.860   3.741  11.091  0.4823 -0.2317 -0.7946
16573TIP3    H271211   5.962   3.646  11.149  0.5235 -0.5914 -1.4524
16574TIP3   OH271212   5.042   2.909   1.050 -0.2547  0.1236  0.0025
16574TIP3    H171213   5.105   2.860   1.103  1.2891  1.6620 -0.3707
16574TIP3    H271214   5.041   2.864   0.966  1.2229  0.7732 -0.3707
16575TIP3   OH271215   3.896   0.968  14.778  0.0307  0.1857  0.4324
16575TIP3    H171216   3.811   0.938  14.744 -0.5853  2.2137  0.1607
16575TIP3    H271217   3.877   1.050  14.824  2.0103  1.2129 -0.5206
16576TIP3   OH271218   2.112   3.420  13.108 -0.2699 -0.4067  0.2744
16576TIP3    H171219   2.128   3.358  13.180 -2.1542  0.2261  1.2445
16576TIP3    H271220   2.132   3.506  13.145  1.3688 -0.2931 -0.7852
16577TIP3   OH271221   5.663   4.505  11.868  0.0445  0.2993 -0.6902
16577TIP3    H171222   5.637   4.547  11.786 -0.4724 -2.0344 -1.7653
16577TIP3    H271223   5.720   4.433  11.841  2.9007  1.7068  1.2688
16578TIP3   OH271224   4.478   2.426   3.621  0.6232  0.2718  0.2755
16578TIP3    H171225   4.399   2.430   3.676  0.5455  1.9563  0.0618
16578TIP3    H271226   4.445   2.426   3.531  0.8324 -0.2870  0.1953
16579TIP3   OH271227   5.097   5.507  14.391 -0.0803  0.6127  0.1773
16579TIP3    H171228   5.009   5.544  14.384 -0.1392  0.0707 -2.4279
16579TIP3    H271229   5.085   5.427  14.442 -1.0408  0.6781  0.0697
16580TIP3   OH271230   0.515   1.056   1.270  0.1124 -0.2630  0.3004
16580TIP3    H171231   0.484   1.146   1.274 -2.6984 -1.2557  2.5267
16580TIP3    H271232   0.526   1.038   1.177 -0.2747  2.0426 -0.2141
16581TIP3   OH271233   5.428   6.573  16.574 -0.2191  0.2901 -0.0990
16581TIP3    H171234   5.350   6.543  16.528  0.4857  0.0108 -1.1321
16581TIP3    H271235   5.425   6.528  16.659 -0.2879 -1.0540 -0.7982
16582TIP3   OH271236   5.059   5.779   3.698  0.4680 -0.2264 -0.0148
16582TIP3    H171237   5.092   5.869   3.704 -0.5572  0.3958 -2.8267
16582TIP3    H271238   5.009   5.766   3.778 -0.0221  1.9945  0.0762
16583TIP3   OH271239   5.919   2.131  15.380  0.9943 -0.6963  0.2667
16583TIP3    H171240   5.925   2.210  15.327  0.8747 -0.7513  0.1700
16583TIP3    H271241   5.877   2.067  15.322 -0.8387 -0.2193  1.0122
16584TIP3   OH271242   4.404   0.556   2.614  0.1116  0.0491  0.1495
16584TIP3    H171243   4.479   0.504   2.644 -0.8174 -1.3137  0.1494
16584TIP3    H271244   4.343   0.491   2.580 -1.9582  0.9347  2.0593
16585TIP3   OH271245   2.106   2.716  16.660  0.1011  0.1116  0.0443
16585TIP3    H171246   2.150   2.801  16.671  2.2624 -0.7956 -1.1861
16585TIP3    H271247   2.033   2.735  16.600  0.1192  1.2383  0.3631
16586TIP3   OH271248   6.693   6.238   0.508  0.0574  0.2087  0.0839
16586TIP3    H171249   6.660   6.188   0.433  0.8672  2.1141 -1.6207
16586TIP3    H271250   6.672   6.329   0.486  1.2245  0.8872  1.6905
16587TIP3   OH271251   3.761   4.328  11.985 -0.0266  0.3120 -0.5001
16587TIP3    H171252   3.717   4.393  12.039  0.7305  2.3014 -2.2386
16587TIP3    H271253   3.854   4.347  11.996  0.4324 -2.7122  1.7118
16588TIP3   OH271254   4.125   4.530   1.480  0.2038 -0.0168  0.4937
16588TIP3    H171255   4.051   4.503   1.425 -0.3158  1.2846  0.5309
16588TIP3    H271256   4.142   4.621   1.455  0.4698  0.3419  1.9266
16589TIP3   OH271257   0.118   5.978   0.358 -0.0942  0.5123  0.0310
16589TIP3    H171258   0.068   6.052   0.323  0.5668  0.8313 -0.2612
16589TIP3    H271259   0.168   6.014   0.431 -1.3168 -0.1126  1.1881
16590TIP3   OH271260   2.441   0.930   1.331 -0.3463  0.2238  0.0261
16590TIP3    H171261   2.500   0.934   1.407 -1.2857  0.4510  0.7460
16590TIP3    H271262   2.438   1.020   1.299 -0.3985  0.2378  0.0695
16591TIP3   OH271263   1.792   1.758   3.736  0.0015 -0.1108  0.8029
16591TIP3    H171264   1.853   1.688   3.712  1.4140  0.6589  2.0535
16591TIP3    H271265   1.712   1.738   3.687  1.0097 -1.5432 -0.3095
16592TIP3   OH271266   5.935   2.584   3.600  0.3140 -0.2290 -0.0638
16592TIP3    H171267   5.919   2.523   3.528  1.3143 -0.0636 -0.4330
16592TIP3    H271268   5.940   2.529   3.678 -1.1185 -0.3754 -0.0642
16593TIP3   OH271269   4.973   3.674   4.826  0.0361  0.1995  0.2156
16593TIP3    H171270   4.898   3.732   4.818 -0.0209  0.0681 -0.2009
16593TIP3    H271271   5.029   3.697   4.752 -0.2404 -0.6479 -0.2627
16594TIP3   OH271272   3.917   3.480  16.222 -0.0035  0.0067 -0.2883
16594TIP3    H171273   3.861   3.431  16.283  2.2789 -0.2181  1.7147
16594TIP3    H271274   3.996   3.426  16.216 -0.5042 -0.3997 -4.1658
16595TIP3   OH271275   0.251   4.812   5.341  0.4044 -0.4280  0.2033
16595TIP3    H171276   0.261   4.770   5.255 -0.9280  1.3940 -0.8657
16595TIP3    H271277   0.326   4.872   5.347  0.7853 -0.9281  0.5612
16596TIP3   OH271278   2.247   3.846  15.024  0.1126 -0.2791 -0.0077
16596TIP3    H171279   2.189   3.782  14.982  0.8178 -0.6419 -0.4390
16596TIP3    H271280   2.287   3.894  14.951  1.2637 -0.8454  0.2400
16597TIP3   OH271281   5.244   6.282  16.712 -0.1466 -0.4571  0.2136
16597TIP3    H171282   5.321   6.298  16.656  0.1069 -0.4647  0.5653
16597TIP3    H271283   5.278   6.232  16.786  0.0564  1.9016  1.7829
16598TIP3   OH271284   4.638   3.899  14.552  0.3765 -0.1176 -0.1037
16598TIP3    H171285   4.682   3.928  14.472  1.0579  1.3244  0.7894
16598TIP3    H271286   4.593   3.976  14.584  0.1860 -0.6706  0.9681
16599TIP3   OH271287   2.858   3.281  12.630  0.2589 -0.2418 -0.1548
16599TIP3    H171288   2.840   3.187  12.634  0.9928 -0.3829 -0.0309
16599TIP3    H271289   2.885   3.297  12.540 -0.2562 -0.0774 -0.2789
16600TIP3   OH271290   1.849   0.519  13.095 -0.2290  0.0233 -0.7509
16600TIP3    H171291   1.758   0.496  13.074  0.2875 -0.8143 -2.1681
16600TIP3    H271292   1.901   0.451  13.052  1.0737  0.5986 -0.0882
16601TIP3   OH271293   0.368   2.971  16.433  0.4008  0.5915  0.2465
16601TIP3    H171294   0.290   3.023  16.415 -0.8614 -0.6056  2.0655
16601TIP3    H271295   0.361   2.896  16.373 -0.1219  0.2324  0.7475
16602TIP3   OH271296   3.571   4.713   3.536  0.3647 -0.1027  0.0179
16602TIP3    H171297   3.574   4.769   3.459  0.4079  0.7980  0.6664
16602TIP3    H271298   3.589   4.625   3.503  3.3029  0.6862 -0.6198
16603TIP3   OH271299   5.625   0.636   4.532 -0.0071  0.4418 -0.2197
16603TIP3    H171300   5.550   0.598   4.579 -0.1395  0.9588 -0.0088
16603TIP3    H271301   5.694   0.640   4.598  0.9455 -2.1587 -0.9874
16604TIP3   OH271302   3.378   1.117  11.617 -0.0183 -0.3698  0.5141
16604TIP3    H171303   3.385   1.068  11.535  0.6959  0.5957  0.0007
16604TIP3    H271304   3.468   1.139  11.639 -0.3974  1.3199  0.3813
16605TIP3   OH271305   0.472   1.814   1.260 -0.9030 -0.3315 -0.2946
16605TIP3    H171306   0.413   1.775   1.324 -1.0918 -0.2185 -0.3986
16605TIP3    H271307   0.454   1.908   1.266  1.3244  0.0037  1.7452
16606TIP3   OH271308   6.763   4.127   0.318 -0.0065 -0.2817  0.1855
16606TIP3    H171309   6.729   4.212   0.346  2.2092  0.7270 -0.0908
16606TIP3    H271310   6.727   4.065   0.381 -0.3509  1.0880  1.3582
16607TIP3   OH271311   2.377   0.927   5.151  0.0610  0.4700  0.0298
16607TIP3    H171312   2.314   0.910   5.081  0.3399  1.0577 -0.3673
16607TIP3    H271313   2.324   0.939   5.229 -0.3041  0.6808 -0.2509
16608TIP3   OH271314   2.147   5.606  11.870 -0.6051 -0.0713 -0.7553
16608TIP3    H171315   2.073   5.548  11.853 -1.2882  1.0388 -1.7214
16608TIP3    H271316   2.111   5.676  11.925 -0.6904  1.2795 -2.4622
16609TIP3   OH271317   1.212   4.825  16.239  0.3944  0.2355  0.4776
16609TIP3    H171318   1.224   4.806  16.332 -0.1315  0.9004  0.6862
16609TIP3    H271319   1.118   4.842  16.230  0.7508  2.0992  0.1898
16610TIP3   OH271320   2.772   5.377  14.503 -0.7357  0.4459  0.1491
16610TIP3    H171321   2.812   5.427  14.575  2.3735 -1.3394 -0.2315
16610TIP3    H271322   2.816   5.409  14.424 -2.3541  0.6544 -0.6803
16611TIP3   OH271323   6.809   4.775  15.540 -0.4929  0.3678  0.3818
16611TIP3    H171324   6.794   4.681  15.536  0.9646  0.0255  2.4447
16611TIP3    H271325   6.735   4.810  15.589 -1.7925  0.5224 -1.6190
16612TIP3   OH271326   1.561   6.280  12.936 -0.2643 -0.7259  0.8571
16612TIP3    H171327   1.551   6.238  13.021 -0.0355  0.3706  1.4316
16612TIP3    H271328   1.476   6.271  12.894 -0.3688 -1.2841  1.1864
16613TIP3   OH271329   3.560   2.853  16.386 -0.1737  0.3162  0.2256
16613TIP3    H171330   3.594   2.792  16.321  0.0461  0.8347 -0.1508
16613TIP3    H271331   3.501   2.800  16.441 -1.0807  0.0745 -0.9577
16614TIP3   OH271332   0.729   2.261   0.106 -0.0594 -0.0903 -0.0597
16614TIP3    H171333   0.648   2.269   0.156 -0.3972  0.0962 -0.6353
16614TIP3    H271334   0.738   2.345   0.061  1.3900  0.5732  1.3993
16615TIP3   OH271335   0.870   0.416   2.006 -0.2425  0.3102  0.3970
16615TIP3    H171336   0.929   0.345   1.983 -0.1067  0.3383  0.6585
16615TIP3    H271337   0.917   0.466   2.073  0.2215  1.4351 -0.7630
16616TIP3   OH271338   4.708   5.567   4.589  0.0341  0.2113 -0.2137
16616TIP3    H171339   4.729   5.602   4.502  0.7782  1.1504  0.3392
16616TIP3    H271340   4.752   5.482   4.592 -0.4976 -0.0987 -0.9769
16617TIP3   OH271341   1.869   5.942   6.844 -0.2713  0.3000  0.2503
16617TIP3    H171342   1.864   5.860   6.796  0.6959 -0.1546  0.9136
16617TIP3    H271343   1.783   5.950   6.887 -0.8324  0.2941 -0.8493
16618TIP3   OH271344   5.986   0.685   3.730 -0.5805 -0.3313  0.4223
16618TIP3    H171345   5.969   0.591   3.740 -0.6838 -0.5186 -1.2846
16618TIP3    H271346   6.081   0.692   3.726 -0.5956 -0.4639 -0.2436
16619TIP3   OH271347   4.175   6.586   4.038  0.3970 -0.0392  0.2179
16619TIP3    H171348   4.141   6.634   4.114  2.0652  0.3773  0.7347
16619TIP3    H271349   4.198   6.655   3.975  0.1075 -0.3169 -0.1884
16620TIP3   OH271350   2.064   0.841  16.213  0.4137 -0.9190 -0.4241
16620TIP3    H171351   2.054   0.773  16.147 -0.3976 -0.3849 -0.8645
16620TIP3    H271352   2.157   0.862  16.213 -0.0892  1.6113 -3.9531
16621TIP3   OH271353   1.850   0.286   0.578  0.0384 -0.4132  0.0025
16621TIP3    H171354   1.809   0.341   0.512  0.2954  2.5387  2.2195
16621TIP3    H271355   1.927   0.335   0.607 -0.6206 -1.1082  3.1939
16622TIP3   OH271356   5.216   2.668  16.300  0.1630  0.2307 -0.9130
16622TIP3    H171357   5.225   2.724  16.377 -1.3066 -0.9027  0.1248
16622TIP3    H271358   5.266   2.589  16.322 -1.0328 -0.4845 -0.7180
16623TIP3   OH271359   6.149   0.143   0.074  0.6176  0.8020  0.0527
16623TIP3    H171360   6.186   0.072   0.022  1.2205 -0.3249  1.9556
16623TIP3    H271361   6.221   0.206   0.084  1.2752 -0.1568  1.5653
16624TIP3   OH271362   5.716   5.784   3.043 -0.3873 -0.1757  0.6392
16624TIP3    H171363   5.668   5.777   3.125 -2.4485 -0.3024 -0.5409
16624TIP3    H271364   5.745   5.695   3.025 -1.2744 -0.4360  0.4624
16625TIP3   OH271365   4.044   6.456   3.314 -0.3313 -0.0805 -0.9809
16625TIP3    H171366   3.990   6.535   3.311  1.0451  0.9177 -0.0492
16625TIP3    H271367   4.009   6.400   3.245 -1.1878  1.4370 -1.7921
16626TIP3   OH271368   6.802   4.051  11.666  0.3095 -0.0601 -0.0720
16626TIP3    H171369   6.718   4.005  11.659 -0.2511  0.7285  1.2268
16626TIP3    H271370   6.865   3.992  11.625 -1.3002  0.5440 -3.6645
16627TIP3   OH271371   2.501   2.862   1.854 -0.8139  0.0217  0.1661
16627TIP3    H171372   2.516   2.921   1.928 -0.0956 -0.4629  0.4177
16627TIP3    H271373   2.407   2.846   1.854 -0.7250 -0.5979  1.4697
16628TIP3   OH271374   1.702   3.162  14.104  0.6136  0.3644  0.1947
16628TIP3    H171375   1.715   3.126  14.192  3.7199  2.0791  0.5170
16628TIP3    H271376   1.659   3.247  14.119  1.5996  0.8825  0.1029
16629TIP3   OH271377   2.914   2.326  15.233  0.0192  0.2364  0.2712
16629TIP3    H171378   2.826   2.302  15.263 -0.9622  0.9312 -1.8892
16629TIP3    H271379   2.948   2.246  15.194 -0.5540  0.5215 -0.8500
16630TIP3   OH271380   5.591   2.085  16.354 -0.0725 -0.3079 -0.2976
16630TIP3    H171381   5.671   2.068  16.405  0.5206 -2.0093 -1.7424
16630TIP3    H271382   5.523   2.098  16.419  0.4684 -3.4436  0.9633
16631TIP3   OH271383   4.728   0.462   1.338  0.1444 -0.3605  0.6033
16631TIP3    H171384   4.808   0.478   1.288 -0.5019  1.5432  0.1001
16631TIP3    H271385   4.758   0.428   1.422  1.3657 -1.6210 -0.3301
16632TIP3   OH271386   5.796   2.734  13.454 -0.0856  0.7042  0.3553
16632TIP3    H171387   5.714   2.757  13.496 -0.2478  0.4611  0.1715
16632TIP3    H271388   5.833   2.817  13.425  0.3277  0.9480  1.5209
16633TIP3   OH271389   1.861   4.750   6.213  0.5818  0.1071  0.5098
16633TIP3    H171390   1.770   4.763   6.242  0.6395 -0.2120  0.8441
16633TIP3    H271391   1.909   4.823   6.253  0.7393 -0.5818  1.6017
16634TIP3   OH271392   2.538   6.278   1.362 -0.2567  0.5820  0.4340
16634TIP3    H171393   2.463   6.223   1.338  0.0247  0.6507 -0.6369
16634TIP3    H271394   2.586   6.225   1.425  0.4915 -0.8148 -1.2425
16635TIP3   OH271395   3.507   4.330   1.952  0.2564  0.0753 -0.0434
16635TIP3    H171396   3.544   4.346   1.865 -0.0457 -1.5153 -0.4761
16635TIP3    H271397   3.413   4.342   1.940  0.0853 -1.3977 -0.2421
16636TIP3   OH271398   5.441   4.214   4.062  0.1413  0.1371  0.1172
16636TIP3    H171399   5.351   4.203   4.094 -0.3863  0.4687 -1.2107
16636TIP3    H271400   5.495   4.163   4.122 -0.9884 -0.4126  0.6733
16637TIP3   OH271401   2.056   2.428  15.164  0.1933  0.1300  1.2279
16637TIP3    H171402   2.008   2.353  15.130  0.6642 -0.5138  1.9764
16637TIP3    H271403   2.101   2.464  15.087 -0.5039  0.0005  0.7591
16638TIP3   OH271404   4.981   5.694  11.897  0.3562 -0.4971 -0.4005
16638TIP3    H171405   4.945   5.606  11.908 -0.6341 -0.3327 -2.1721
16638TIP3    H271406   4.998   5.702  11.803 -1.9112  2.0701 -0.6665
16639TIP3   OH271407   5.143   3.684   3.928 -0.0799  0.1585 -0.2390
16639TIP3    H171408   5.237   3.689   3.910 -0.0969  0.1291 -0.3356
16639TIP3    H271409   5.106   3.637   3.854 -0.0542 -0.5712  0.2078
16640TIP3   OH271410   3.225   3.381  16.753  0.4386  0.0272  0.1128
16640TIP3    H171411   3.171   3.405  16.677  0.9315 -0.4026 -0.3811
16640TIP3    H271412   3.241   3.465  16.798  3.5339  0.9767 -2.5303
16641TIP3   OH271413   6.791   4.425   1.106  0.6534  0.1446  0.4726
16641TIP3    H171414   6.861   4.450   1.167  0.3179  0.7104  0.6235
16641TIP3    H271415   6.824   4.452   1.020  1.3341 -1.0847  0.3387
16642TIP3   OH271416   2.009   4.478  14.596  0.1650 -0.6835 -0.2693
16642TIP3    H171417   1.923   4.518  14.587  0.9759  0.6406 -2.5648
16642TIP3    H271418   1.992   4.384  14.593 -1.2190 -0.4316 -0.4664
16643TIP3   OH271419   4.087   2.057  16.979  0.2339 -0.8130 -0.4687
16643TIP3    H171420   4.006   2.093  16.944  0.7734  0.3016 -0.5879
16643TIP3    H271421   4.156   2.110  16.940  1.1455 -2.8696 -1.7849
16644TIP3   OH271422   0.871   4.926  15.929 -0.0823 -0.2156  0.0326
16644TIP3    H171423   0.876   4.928  15.834 -1.5290  0.0505 -0.0463
16644TIP3    H271424   0.848   4.835  15.950 -2.1438  0.2731 -0.0157
16645TIP3   OH271425   1.566   2.543  13.953 -0.1885 -0.5960  0.2669
16645TIP3    H171426   1.637   2.584  13.904 -0.1700 -0.1659  0.6459
16645TIP3    H271427   1.487   2.587  13.921 -0.3002 -1.1556 -0.2386
16646TIP3   OH271428   3.601   0.623  12.102  0.1971  0.2046 -0.4034
16646TIP3    H171429   3.532   0.660  12.046 -0.1489 -0.1875 -0.2380
16646TIP3    H271430   3.584   0.661  12.189 -1.2693 -1.7515  0.1903
16647TIP3   OH271431   5.670   6.138   3.900 -0.3383  0.1344 -0.1024
16647TIP3    H171432   5.669   6.228   3.933  1.0941  0.2000 -0.2193
16647TIP3    H271433   5.757   6.127   3.863  0.3039 -2.0118  1.9047
16648TIP3   OH271434   4.884   4.747   4.931  0.4473 -1.1554  0.4576
16648TIP3    H171435   4.940   4.777   5.003 -0.4752  1.0651  0.3007
16648TIP3    H271436   4.815   4.697   4.973  0.7943 -1.2176  0.9620
16649TIP3   OH271437   1.534   5.272   4.241  0.0787 -0.6387  0.0507
16649TIP3    H171438   1.586   5.319   4.175 -2.6749 -0.5454 -2.1530
16649TIP3    H271439   1.553   5.179   4.225  0.7923 -0.5484  0.3432
16650TIP3   OH271440   0.010   4.720   4.475 -0.2663  0.7493 -0.1910
16650TIP3    H171441  -0.048   4.650   4.506 -0.7464  1.0772 -0.3422
16650TIP3    H271442  -0.031   4.800   4.506 -1.1730  1.1383 -2.2982
16651TIP3   OH271443   2.719   3.570  13.915  0.4730  0.1076  0.6811
16651TIP3    H171444   2.666   3.494  13.938  1.5182 -0.4460  1.3325
16651TIP3    H271445   2.809   3.536  13.912  1.0940  1.5344  2.1072
16652TIP3   OH271446   3.135   6.259  14.768  0.2934 -0.4047  0.0470
16652TIP3    H171447   3.211   6.260  14.711 -0.0878  1.6126 -0.4418
16652TIP3    H271448   3.062   6.239  14.710  0.2755 -1.1447  0.3162
16653TIP3   OH271449   2.043   3.235  15.699 -0.2496  0.2993 -0.2977
16653TIP3    H171450   2.040   3.281  15.783 -0.1140 -0.1998 -0.0211
16653TIP3    H271451   2.020   3.144  15.720  0.5439  0.0008 -0.6771
16654TIP3   OH271452   4.592   2.505   4.759  0.4553  0.2328 -1.1302
16654TIP3    H171453   4.663   2.440   4.763  0.1511 -0.0170  0.3904
16654TIP3    H271454   4.515   2.458   4.791  0.2082  1.2989 -0.1114
16655TIP3   OH271455   0.498   1.636   5.386  0.2730 -0.5702 -0.3701
16655TIP3    H171456   0.495   1.731   5.382  0.3551 -0.5666 -0.3344
16655TIP3    H271457   0.522   1.608   5.298 -2.3710 -0.6548 -1.1160
16656TIP3   OH271458   3.508   0.103   4.612  0.1254  0.1918 -0.6266
16656TIP3    H171459   3.470   0.025   4.572 -2.8767  1.3510 -0.1516
16656TIP3    H271460   3.519   0.164   4.539 -0.4582  0.4423 -0.5046
16657TIP3   OH271461   4.276   0.103   0.956 -0.1205  0.1046 -0.7537
16657TIP3    H171462   4.335   0.140   0.891 -1.2905 -1.0158 -2.5216
16657TIP3    H271463   4.260   0.014   0.926 -2.9946  0.5009 -0.5551
16658TIP3   OH271464   1.232   6.741  11.276 -0.0886  0.3417 -0.8574
16658TIP3    H171465   1.290   6.812  11.248  2.1516 -1.8358 -1.9477
16658TIP3    H271466   1.216   6.758  11.369  3.2331  0.3873 -0.2461
16659TIP3   OH271467   3.615   3.475  13.427 -0.0707 -0.4608  0.7093
16659TIP3    H171468   3.591   3.561  13.460  0.9721 -0.5701  1.7749
16659TIP3    H271469   3.540   3.419  13.448  0.7342 -0.6371  3.3584
16660TIP3   OH271470   2.805   4.363   0.837 -0.8307 -0.1174 -0.0726
16660TIP3    H171471   2.748   4.418   0.890 -2.4188 -1.3575 -0.4823
16660TIP3    H271472   2.772   4.274   0.849  0.5738 -0.7678 -0.8631
16661TIP3   OH271473   3.779   5.310   1.342  0.2836  0.3426  0.0048
16661TIP3    H171474   3.824   5.226   1.347  0.6155  0.5456  0.3633
16661TIP3    H271475   3.823   5.356   1.271  0.3373  0.3583  0.0482
16662TIP3   OH271476   6.450   6.632   3.603 -0.4267 -0.1736  0.7995
16662TIP3    H171477   6.363   6.600   3.579 -0.1591 -0.4425  0.2044
16662TIP3    H271478   6.447   6.726   3.584  0.3046 -0.6466 -1.8031
16663TIP3   OH271479   1.568   6.088  16.056 -0.0778 -0.2974 -0.5129
16663TIP3    H171480   1.546   6.181  16.065 -0.5872 -0.4072 -0.6122
16663TIP3    H271481   1.535   6.048  16.136  2.4150  0.0168  0.7314
16664TIP3   OH271482   0.296   6.534  13.628  0.1345  0.1585  0.5593
16664TIP3    H171483   0.271   6.591  13.555  1.7498 -0.0083 -0.1455
16664TIP3    H271484   0.228   6.548  13.694 -1.4506  0.1855 -1.0384
16665TIP3   OH271485   5.494   3.992  11.710  0.4858  0.1845  0.1945
16665TIP3    H171486   5.436   3.927  11.670 -0.0429  0.6539  0.1915
16665TIP3    H271487   5.576   3.945  11.724  0.0332 -0.5500  0.4141
16666TIP3   OH271488   2.737   4.128  16.206 -0.3579  0.0462 -0.1374
16666TIP3    H171489   2.801   4.188  16.243 -0.8476  0.1851  0.4991
16666TIP3    H271490   2.669   4.185  16.169 -1.0012 -0.1008  0.7856
16667TIP3   OH271491   0.498   1.277  10.570  0.3153 -0.3960 -0.2023
16667TIP3    H171492   0.493   1.184  10.545  1.1398 -1.1611  2.2815
16667TIP3    H271493   0.592   1.296  10.567  0.2773 -0.0690  0.7403
16668TIP3   OH271494   3.521   3.600  15.666 -0.1323 -0.3637  0.1429
16668TIP3    H171495   3.570   3.682  15.672  0.7310 -0.9096  0.6524
16668TIP3    H271496   3.429   3.627  15.663  0.1646  0.6349 -0.0892
16669TIP3   OH271497   3.819   2.172   5.520 -0.0562 -0.2745 -0.3818
16669TIP3    H171498   3.883   2.101   5.515  1.2894  1.0032 -1.5443
16669TIP3    H271499   3.796   2.176   5.613  0.5954 -1.5610 -0.1467
16670TIP3   OH271500   4.008   6.280   3.066 -0.4377  0.3655 -0.1655
16670TIP3    H171501   4.008   6.226   2.987 -3.2826 -0.6474  0.4843
16670TIP3    H271502   3.953   6.233   3.128  1.3387  1.4119  2.2856
16671TIP3   OH271503   5.536   4.025  16.927 -0.4754 -0.5726 -0.6635
16671TIP3    H171504   5.609   3.974  16.963 -1.0215 -0.1377  1.0980
16671TIP3    H271505   5.488   3.962  16.872 -0.9251 -1.8793  1.1730
16672TIP3   OH271506   1.685   0.114  12.149  0.2033 -0.3010  0.4790
16672TIP3    H171507   1.743   0.040  12.130  0.3108 -0.5541  1.7300
16672TIP3    H271508   1.726   0.158  12.224 -0.1099  0.7571  0.0352
16673TIP3   OH271509   3.384   6.406  16.089  0.3727  0.0262 -0.2499
16673TIP3    H171510   3.456   6.383  16.029  1.4408  1.1814  0.5581
16673TIP3    H271511   3.424   6.403  16.176 -0.3761  1.3896  0.1486
16674TIP3   OH271512   4.816   4.488   1.904  0.2755  0.0587 -0.4080
16674TIP3    H171513   4.867   4.441   1.969 -1.0006 -0.2570  0.3841
16674TIP3    H271514   4.731   4.502   1.946 -0.5409 -0.0879 -1.9664
16675TIP3   OH271515   0.286   6.018  13.327 -0.3082 -0.5557 -0.1957
16675TIP3    H171516   0.195   6.041  13.310 -0.3925 -1.0907 -0.4803
16675TIP3    H271517   0.312   5.966  13.251  0.1717 -0.5932 -0.0101
16676TIP3   OH271518   0.365   2.501   4.118  0.5164 -0.4715  0.1971
16676TIP3    H171519   0.324   2.430   4.167 -0.3232 -0.3951 -0.3945
16676TIP3    H271520   0.305   2.575   4.126 -0.0910 -0.7343 -1.7193
16677TIP3   OH271521   5.609   2.052  15.556 -0.0721  0.2385  0.1377
16677TIP3    H171522   5.644   2.141  15.561 -0.6948  0.6710 -2.6172
16677TIP3    H271523   5.583   2.032  15.646  0.3013  2.7453  0.8499
16678TIP3   OH271524   4.344   0.604   4.113  0.3297 -0.1014  0.1020
16678TIP3    H171525   4.432   0.640   4.117 -0.1498  1.1127 -0.2304
16678TIP3    H271526   4.333   0.558   4.196  3.2223 -4.8714 -1.9149
16679TIP3   OH271527   0.252   2.417   0.388  0.4469 -0.4206 -0.1646
16679TIP3    H171528   0.263   2.446   0.479 -0.0098 -2.0129  0.4157
16679TIP3    H271529   0.241   2.497   0.338 -1.6003  0.3673  1.5118
16680TIP3   OH271530   0.007   3.229   1.841 -0.3710  0.0661 -0.0351
16680TIP3    H171531  -0.042   3.295   1.792 -0.7098  0.2829  0.5878
16680TIP3    H271532  -0.058   3.162   1.864  0.1180 -0.8764 -1.3094
16681TIP3   OH271533   3.115   3.899  11.633 -0.5368  0.1250 -0.1341
16681TIP3    H171534   3.145   3.973  11.580 -0.4290  0.3435  0.2276
16681TIP3    H271535   3.063   3.845  11.573  2.6785 -1.6129 -1.4590
16682TIP3   OH271536   6.330   6.740  16.006 -0.2264  0.2835 -0.7934
16682TIP3    H171537   6.250   6.793  16.004 -1.0287 -0.9145 -1.2744
16682TIP3    H271538   6.338   6.712  16.097  0.4864  1.6317 -0.4248
16683TIP3   OH271539   6.386   5.908   6.179  0.2091  0.1813  0.1795
16683TIP3    H171540   6.428   5.993   6.194 -1.0557  0.3844  2.7511
16683TIP3    H271541   6.383   5.867   6.265 -0.4236 -1.9320 -0.8166
16684TIP3   OH271542   2.236   1.833   5.860  0.2615 -0.3990 -0.2405
16684TIP3    H171543   2.234   1.744   5.895  0.2341 -0.2338  0.1890
16684TIP3    H271544   2.321   1.839   5.816 -0.1452 -0.9470 -1.1101
16685TIP3   OH271545   1.930   5.452  11.847 -0.5002  0.7575  0.0762
16685TIP3    H171546   1.930   5.449  11.943  0.0353 -1.4829  0.0413
16685TIP3    H271547   1.875   5.378  11.821  1.0261  0.0903 -1.3377
16686TIP3   OH271548   1.352   4.165  16.525 -0.2193 -0.4628 -0.1448
16686TIP3    H171549   1.420   4.215  16.571  0.7127 -2.6680  0.9565
16686TIP3    H271550   1.271   4.212  16.544  0.4968  0.1097  1.6697
16687TIP3   OH271551   6.262   3.840   0.181  0.0510  0.0385 -0.1283
16687TIP3    H171552   6.220   3.923   0.156 -1.2903 -0.7793 -0.6414
16687TIP3    H271553   6.355   3.854   0.162 -0.0047  1.7829  0.7607
16688TIP3   OH271554   6.634   6.232  16.693 -0.5018 -0.5147 -0.4958
16688TIP3    H171555   6.549   6.222  16.650 -0.9765 -1.9140  0.6975
16688TIP3    H271556   6.697   6.234  16.621 -1.3662 -1.7669 -1.3208
16689TIP3   OH271557   3.721   2.136  12.352  0.2757  0.2427  0.4700
16689TIP3    H171558   3.806   2.117  12.392  0.4823 -1.6638 -0.8121
16689TIP3    H271559   3.657   2.092  12.409  0.3416 -0.2183  0.1877
16690TIP3   OH271560   2.418   0.446  12.702  0.0085  0.2829 -0.0608
16690TIP3    H171561   2.402   0.539  12.685 -0.5489  0.5958  2.0488
16690TIP3    H271562   2.511   0.442  12.724  0.0789  0.2981 -0.3451
16691TIP3   OH271563   4.562   5.038   1.909 -0.8269 -0.5097  0.3438
16691TIP3    H171564   4.625   5.006   1.975  0.4011 -0.3033 -0.7030
16691TIP3    H271565   4.484   4.985   1.924  0.1181 -1.8611  0.6891
16692TIP3   OH271566   5.088   5.584   1.792 -0.2865 -0.4851  0.2632
16692TIP3    H171567   5.020   5.524   1.820 -0.4975 -0.9623 -1.2445
16692TIP3    H271568   5.134   5.537   1.722 -1.1678  1.5219 -1.7178
16693TIP3   OH271569   5.355   5.938   0.595  0.0908  0.9086  0.4065
16693TIP3    H171570   5.436   5.990   0.599 -0.4458  1.6977  1.0091
16693TIP3    H271571   5.344   5.921   0.501  0.8121  1.0243  0.2902
16694TIP3   OH271572   0.517   3.661  14.206 -0.4024 -0.0134 -0.7502
16694TIP3    H171573   0.432   3.623  14.225  0.5618 -1.3016  1.1676
16694TIP3    H271574   0.530   3.728  14.274  0.5820 -0.6003 -0.3444
16695TIP3   OH271575   0.493   5.375   1.097 -0.2335  0.1816  0.6708
16695TIP3    H171576   0.488   5.468   1.121 -1.9026 -0.0744  1.3026
16695TIP3    H271577   0.532   5.333   1.174 -0.6174  0.1625  0.8519
16696TIP3   OH271578   4.524   0.641  16.428 -0.3253 -0.2367 -0.1934
16696TIP3    H171579   4.512   0.553  16.393  0.3623  0.4320 -2.1650
16696TIP3    H271580   4.615   0.643  16.460 -0.0362  0.0596 -1.0359
16697TIP3   OH271581   3.282   4.703  15.260 -0.6794  0.1321 -0.1682
16697TIP3    H171582   3.323   4.618  15.243 -2.2464 -0.6957  0.0829
16697TIP3    H271583   3.330   4.764  15.204 -1.2947 -1.3771 -2.4301
16698TIP3   OH271584   1.037   2.835   4.334  0.1922 -0.0440  0.4898
16698TIP3    H171585   1.009   2.805   4.421 -0.8413  0.4107  0.3163
16698TIP3    H271586   1.046   2.755   4.283  2.2804 -0.4579  1.4229
16699TIP3   OH271587   2.201   5.704  10.962 -0.5471  0.1890  0.0574
16699TIP3    H171588   2.242   5.630  11.007  0.4097  0.2001 -0.7846
16699TIP3    H271589   2.163   5.666  10.883  2.7311  1.0764 -2.0401
16700TIP3   OH271590   1.815   3.556  13.805 -0.2228  0.3218  0.1160
16700TIP3    H171591   1.857   3.629  13.850 -0.6575  1.3836 -1.1650
16700TIP3    H271592   1.887   3.503  13.771  0.1062 -0.5201  2.0975
16701TIP3   OH271593   1.616   6.643  15.526  0.1262  0.0993  0.1135
16701TIP3    H171594   1.529   6.658  15.489  0.0800 -1.0471 -0.2848
16701TIP3    H271595   1.603   6.573  15.590  0.8522 -0.5523 -0.4326
16702TIP3   OH271596   3.681   3.758  12.255 -0.0079  0.3290 -0.8469
16702TIP3    H171597   3.675   3.783  12.347  1.4268 -0.4161 -0.5450
16702TIP3    H271598   3.625   3.822  12.210 -0.1397  1.1570  0.4499
16703TIP3   OH271599   3.112   6.397   5.184  0.3760 -0.0670 -0.2069
16703TIP3    H171600   3.110   6.304   5.159  2.1298 -0.2822  0.3804
16703TIP3    H271601   3.089   6.396   5.277  1.8134 -0.0751  0.1631
16704TIP3   OH271602   0.792   1.310   2.056  0.0293  0.8502 -0.2323
16704TIP3    H171603   0.807   1.331   1.964 -0.8331 -0.5667 -0.7208
16704TIP3    H271604   0.702   1.277   2.059  0.5488 -0.5240  0.8422
16705TIP3   OH271605   1.041   4.155  14.146  0.1095  0.3192 -0.6292
16705TIP3    H171606   1.075   4.068  14.129 -2.9176 -0.8075 -1.2397
16705TIP3    H271607   0.996   4.180  14.065 -0.4546  1.7507  0.1054
16706TIP3   OH271608   4.002   0.723   3.706 -0.2320 -0.6441 -0.2288
16706TIP3    H171609   3.994   0.797   3.645  0.2402 -1.0766 -0.8201
16706TIP3    H271610   3.958   0.753   3.786 -0.5042  0.0786 -0.6441
16707TIP3   OH271611   1.544   6.518   5.576 -0.0537 -0.1411 -0.1814
16707TIP3    H171612   1.513   6.459   5.506 -1.1820 -0.8840  0.9154
16707TIP3    H271613   1.476   6.585   5.582 -0.6633 -0.8638  1.1447
16708TIP3   OH271614   5.731   6.323   3.081 -0.4495  0.1612 -0.6534
16708TIP3    H171615   5.675   6.279   3.145 -0.1709  0.0203 -0.5067
16708TIP3    H271616   5.671   6.350   3.012 -0.8938  1.1173  0.0925
16709TIP3   OH271617   1.574   1.905  14.123 -0.4894  0.2287 -0.6391
16709TIP3    H171618   1.635   1.932  14.055 -0.6909  0.6047 -0.6741
16709TIP3    H271619   1.488   1.907  14.081 -0.3770 -1.7923 -1.0296
16710TIP3   OH271620   3.497   4.460  11.058  0.1226 -0.3696  0.5262
16710TIP3    H171621   3.562   4.423  10.999  0.2163  0.6996 -0.0635
16710TIP3    H271622   3.438   4.509  11.001 -0.5473 -0.4202  1.1758
16711TIP3   OH271623   4.566   4.962   5.876  0.0043 -0.1026  0.4962
16711TIP3    H171624   4.498   4.933   5.937  0.9356  1.9216  2.5842
16711TIP3    H271625   4.633   4.893   5.880 -1.3566 -1.5379 -0.7027
16712TIP3   OH271626   3.163   1.384  13.392 -0.4733 -0.3285 -0.1393
16712TIP3    H171627   3.211   1.435  13.327 -2.0750  0.8548 -0.4205
16712TIP3    H271628   3.222   1.380  13.468  1.5342 -1.9846 -1.7314
16713TIP3   OH271629   3.124   1.471   1.847 -0.0798 -0.3694  0.6978
16713TIP3    H171630   3.178   1.515   1.912  0.3221  0.5552 -0.2515
16713TIP3    H271631   3.122   1.379   1.876  0.4564 -0.0526  1.7601
16714TIP3   OH271632   3.659   2.195  12.714  0.2235 -1.0876 -0.0686
16714TIP3    H171633   3.591   2.253  12.681  0.6034 -0.4633  0.2292
16714TIP3    H271634   3.704   2.247  12.782  2.1914 -0.7768 -1.5472
16715TIP3   OH271635   2.904   4.854  13.982 -0.3246  0.5791 -0.5807
16715TIP3    H171636   2.821   4.898  13.999  0.2101  1.1415  0.6523
16715TIP3    H271637   2.970   4.922  13.994  0.3649 -0.0299 -0.8584
16716TIP3   OH271638   0.141   1.411   0.110  0.5622  0.9738 -0.1306
16716TIP3    H171639   0.063   1.366   0.077 -0.3009  1.5313  1.1128
16716TIP3    H271640   0.191   1.343   0.155 -0.7278  1.2198  1.7254
16717TIP3   OH271641   6.245   4.156  15.118  0.3416 -0.2138 -0.1662
16717TIP3    H171642   6.254   4.165  15.023  0.6744 -1.1813 -0.2357
16717TIP3    H271643   6.303   4.083  15.141  1.3931  0.9549  0.9829
16718TIP3   OH271644   1.575   5.820  14.843 -0.2315 -0.3281 -0.9091
16718TIP3    H171645   1.498   5.866  14.876 -0.2510 -2.2019  1.7851
16718TIP3    H271646   1.555   5.802  14.751 -1.5512  2.1406 -1.1629
16719TIP3   OH271647   5.124   2.499   1.083  0.2672  0.0708 -0.2515
16719TIP3    H171648   5.117   2.583   1.128 -0.5082 -0.1622  0.0563
16719TIP3    H271649   5.046   2.494   1.028 -0.0213 -0.7444  0.2285
16720TIP3   OH271650   5.902   0.519  14.539  0.0005  0.6504  0.1879
16720TIP3    H171651   5.827   0.460  14.536 -0.2695  0.8417  2.3859
16720TIP3    H271652   5.960   0.488  14.469  0.1004 -2.5226  1.6119
16721TIP3   OH271653   6.429   2.938  11.626  0.0603 -0.7792 -0.1476
16721TIP3    H171654   6.348   2.988  11.635 -0.1485 -0.7656 -1.8988
16721TIP3    H271655   6.424   2.870  11.693 -1.7247 -1.2191 -0.7127
16722TIP3   OH271656   2.300   1.401   0.034  0.1307 -0.2738 -0.2398
16722TIP3    H171657   2.242   1.394   0.109 -0.1177 -1.2463 -0.5113
16722TIP3    H271658   2.250   1.365  -0.039  0.5783  0.1267 -0.7563
16723TIP3   OH271659   6.225   2.743   5.099 -0.1038  0.3151 -0.4701
16723TIP3    H171660   6.240   2.828   5.140  0.7358  0.8955 -1.9350
16723TIP3    H271661   6.220   2.682   5.172  1.6180  1.2921  0.5110
16724TIP3   OH271662   0.103   5.867  13.842  0.1198 -0.0719  0.2475
16724TIP3    H171663   0.154   5.791  13.870  1.1141  1.0161  1.4731
16724TIP3    H271664   0.159   5.912  13.779 -0.6060 -0.5244 -0.7315
16725TIP3   OH271665   4.382   1.812   4.407  0.0886 -0.3696  0.1544
16725TIP3    H171666   4.334   1.817   4.490  0.5251  2.2619  0.2937
16725TIP3    H271667   4.426   1.727   4.410 -0.2625 -0.5108  2.4079
16726TIP3   OH271668   3.460   4.640  11.541 -0.0133  0.0798  0.6998
16726TIP3    H171669   3.548   4.620  11.572 -0.4984 -1.2609  1.2424
16726TIP3    H271670   3.439   4.724  11.582  1.2910  0.7901 -0.0326
16727TIP3   OH271671   1.751   5.141   5.844  0.1354  0.1223  0.3478
16727TIP3    H171672   1.736   5.059   5.798  1.0622  0.9518 -1.5195
16727TIP3    H271673   1.790   5.116   5.927 -0.8748 -1.3842  0.3774
16728TIP3   OH271674   3.392   3.897  12.703 -0.2040 -0.4077  0.0755
16728TIP3    H171675   3.480   3.882  12.739 -0.0329 -1.0290 -0.5639
16728TIP3    H271676   3.367   3.812  12.667 -1.7306 -0.6378  1.6349
16729TIP3   OH271677   1.313   0.622   2.312 -0.2951  0.1065 -0.4049
16729TIP3    H171678   1.345   0.536   2.286  0.6936  0.4159 -0.2207
16729TIP3    H271679   1.313   0.619   2.408 -2.9674 -0.6764 -0.3669
16730TIP3   OH271680   4.143   5.701   6.575 -0.3385 -0.5920 -0.1286
16730TIP3    H171681   4.221   5.754   6.555  0.7900 -1.7574  1.0831
16730TIP3    H271682   4.074   5.765   6.589  0.2179  0.4437 -1.9255
16731TIP3   OH271683   5.406   5.137  15.331 -0.3305 -0.2287 -0.5890
16731TIP3    H171684   5.450   5.063  15.289 -0.4020 -1.1107  0.8293
16731TIP3    H271685   5.461   5.213  15.312  0.3093 -0.8378 -1.1712
16732TIP3   OH271686   6.531   1.670   6.762  0.1855 -0.0581  0.2889
16732TIP3    H171687   6.524   1.755   6.804  0.2945  0.0569  0.0776
16732TIP3    H271688   6.623   1.664   6.734  0.0490 -0.0164 -0.1697
16733TIP3   OH271689   0.633   1.564   4.446  1.0180 -0.1334 -0.4228
16733TIP3    H171690   0.668   1.476   4.440 -1.6324 -1.2263 -0.6759
16733TIP3    H271691   0.632   1.583   4.540  0.6562 -0.7889 -0.2904
16734TIP3   OH271692   6.054   3.302  17.030  0.2017 -0.2629 -0.6137
16734TIP3    H171693   6.046   3.344  16.945  0.5205  0.2865 -0.3758
16734TIP3    H271694   6.058   3.208  17.011 -2.6754 -0.3458 -0.9897
16735TIP3   OH271695   0.972   0.620  14.089 -0.3767 -0.2629 -0.3102
16735TIP3    H171696   0.968   0.715  14.090  2.5050 -0.0743 -1.2590
16735TIP3    H271697   0.986   0.595  14.180 -1.1146  0.1953 -0.0619
16736TIP3   OH271698   5.589   5.164  11.898 -0.2477 -0.9765 -0.0480
16736TIP3    H171699   5.507   5.115  11.910 -1.4246  0.6570 -1.1434
16736TIP3    H271700   5.629   5.125  11.821 -0.6025 -0.9711 -0.2361
16737TIP3   OH271701   1.011   1.419  13.098 -0.7377  0.4828 -0.3236
16737TIP3    H171702   1.056   1.336  13.084 -0.3910  0.3788  1.3452
16737TIP3    H271703   1.051   1.478  13.033  0.5046 -0.0945 -0.1057
16738TIP3   OH271704   4.486   3.928  14.193  0.3602  0.0626 -0.2029
16738TIP3    H171705   4.449   3.854  14.144  2.2531 -0.1042 -1.4445
16738TIP3    H271706   4.499   3.996  14.126 -0.5955  1.2250  0.7796
16739TIP3   OH271707   5.101   2.461   5.480  0.7300 -0.0430 -0.7371
16739TIP3    H171708   5.056   2.436   5.400 -0.0660 -0.4888 -0.1573
16739TIP3    H271709   5.191   2.430   5.468 -0.2157 -3.1896 -0.0358
16740TIP3   OH271710   3.015   6.755  15.839  0.2057 -0.5592  0.0263
16740TIP3    H171711   2.992   6.839  15.877  0.5938 -0.0817 -0.7699
16740TIP3    H271712   3.094   6.772  15.788  1.0359 -1.6904  0.9086
16741TIP3   OH271713   1.723   6.415  14.380  0.7018 -0.1109 -0.2217
16741TIP3    H171714   1.736   6.394  14.288  0.9340 -2.3139  0.2834
16741TIP3    H271715   1.702   6.331  14.421  0.6796  0.8235  1.7451
16742TIP3   OH271716   1.638   2.669   2.058  0.5813  0.0493 -0.4949
16742TIP3    H171717   1.579   2.639   2.127 -0.2244 -0.1943 -1.2787
16742TIP3    H271718   1.581   2.685   1.983  1.5953 -0.8648 -1.4849
16743TIP3   OH271719   0.350   4.952   2.383 -0.8455  0.8136 -0.3731
16743TIP3    H171720   0.383   4.924   2.298 -2.3030 -0.6347 -0.4884
16743TIP3    H271721   0.272   5.004   2.364 -1.4683  0.0662  0.0658
16744TIP3   OH271722   6.171   2.989  15.259 -0.3503 -0.4144  0.4406
16744TIP3    H171723   6.219   2.929  15.202 -1.2256  1.2611 -2.1680
16744TIP3    H271724   6.236   3.052  15.289  0.0828 -1.1935  1.1235
16745TIP3   OH271725   3.747   1.630  10.637  0.2409 -0.3296 -0.1812
16745TIP3    H171726   3.672   1.582  10.602 -0.1875  0.3453 -0.1989
16745TIP3    H271727   3.735   1.628  10.732  0.4108 -0.5528 -0.1637
16746TIP3   OH271728   0.127   0.074   2.336  0.0627 -0.1532  0.4414
16746TIP3    H171729   0.217   0.044   2.348  0.9549  1.9857 -0.6626
16746TIP3    H271730   0.077  -0.007   2.321  1.6516 -1.4307  1.7816
16747TIP3   OH271731   6.536   4.325  12.934  0.1382 -0.0269 -0.0388
16747TIP3    H171732   6.505   4.372  12.857 -1.6576  0.0724  0.7214
16747TIP3    H271733   6.602   4.383  12.973  2.1255 -0.7256 -2.2753
16748TIP3   OH271734   0.403   4.345   2.428  0.2305  0.2339  0.3439
16748TIP3    H171735   0.327   4.345   2.370  1.1379 -2.0582 -0.9032
16748TIP3    H271736   0.408   4.256   2.463  2.4032  0.2877  0.2825
16749TIP3   OH271737   0.282   6.219   5.136 -0.1571 -0.2040 -0.2467
16749TIP3    H171738   0.226   6.174   5.199 -1.9879  0.9845 -0.9768
16749TIP3    H271739   0.316   6.295   5.183 -0.9868  0.3193 -0.4958
16750TIP3   OH271740   0.808   2.405   1.303 -0.2763  0.3857 -0.0169
16750TIP3    H171741   0.747   2.479   1.307 -0.7073 -0.0143  0.9265
16750TIP3    H271742   0.867   2.427   1.232 -1.0981  1.1120 -0.4890
16751TIP3   OH271743   5.768   2.486  12.601 -0.1303 -0.0137  0.1855
16751TIP3    H171744   5.790   2.514  12.512 -2.5442 -0.1348 -0.5059
16751TIP3    H271745   5.790   2.393  12.603 -1.0243 -0.2584 -0.6548
16752TIP3   OH271746   1.772   5.853   2.429 -0.1677 -0.3780  0.2489
16752TIP3    H171747   1.846   5.902   2.464 -1.7111  0.8288  1.9131
16752TIP3    H271748   1.751   5.789   2.498 -0.3479 -1.0564 -0.4310
16753TIP3   OH271749   3.308   4.036   5.493  0.3388  0.0739 -0.0241
16753TIP3    H171750   3.261   4.041   5.576  1.5787  1.4331  0.6115
16753TIP3    H271751   3.383   4.094   5.504  0.8846 -0.2494 -1.8613
16754TIP3   OH271752   0.139   4.284   3.596  0.0295  0.2526  0.1420
16754TIP3    H171753   0.082   4.310   3.669 -0.2078  0.1053  0.0094
16754TIP3    H271754   0.105   4.332   3.520 -0.5500 -0.6112 -0.1492
16755TIP3   OH271755   0.588   3.163  13.794 -0.0294  0.1374  0.0389
16755TIP3    H171756   0.666   3.217  13.797  0.1094 -0.0683  0.1721
16755TIP3    H271757   0.564   3.149  13.886 -0.7485  0.9498 -0.0155
16756TIP3   OH271758   0.999   5.292   7.139  0.2966 -0.6180  0.0640
16756TIP3    H171759   0.957   5.376   7.120 -1.4225 -0.9843  2.0187
16756TIP3    H271760   1.088   5.302   7.108  0.3344  2.2310  0.9485
16757TIP3   OH271761   5.101   6.197   5.197 -0.3993  0.4752 -0.1529
16757TIP3    H171762   5.069   6.218   5.284  1.6562  0.9354  0.5375
16757TIP3    H271763   5.081   6.275   5.145  0.2028  1.0310  0.4353
16758TIP3   OH271764   6.793   1.231   0.019 -0.2856 -0.9909 -0.4344
16758TIP3    H171765   6.727   1.214  -0.049 -0.7052  1.6035 -0.6921
16758TIP3    H271766   6.762   1.180   0.094 -3.8885  1.9325  0.2078
16759TIP3   OH271767   1.407   1.353  16.162  0.2161 -0.1284  0.0541
16759TIP3    H171768   1.372   1.310  16.240 -3.6877  0.8496 -1.0510
16759TIP3    H271769   1.363   1.309  16.089  1.0541  1.3895 -1.3853
16760TIP3   OH271770   1.463   3.014  12.016  0.2184 -0.2196 -0.2360
16760TIP3    H171771   1.460   3.110  12.018 -0.9675 -0.2669  2.7316
16760TIP3    H271772   1.390   2.988  11.960 -2.5455  0.5558  2.8829
16761TIP3   OH271773   5.277   4.731   0.890  0.1708 -0.7305 -0.0180
16761TIP3    H171774   5.192   4.704   0.925  0.4077 -0.1731  0.9884
16761TIP3    H271775   5.316   4.784   0.959  0.4500  0.7696 -1.3040
16762TIP3   OH271776   5.992   2.795  15.288 -0.0980 -0.1347 -0.3632
16762TIP3    H171777   5.964   2.847  15.213  0.1216  1.3259  0.5369
16762TIP3    H271778   6.071   2.840  15.320  1.2707 -2.1864 -0.7741
16763TIP3   OH271779   0.285   1.413   3.817  0.5688 -0.8248  0.2328
16763TIP3    H171780   0.310   1.492   3.864 -0.8721  0.1273 -0.5777
16763TIP3    H271781   0.363   1.358   3.820  1.0878 -0.0404  2.1522
16764TIP3   OH271782   5.266   5.166  13.092 -0.1357 -0.5090 -0.7423
16764TIP3    H171783   5.173   5.174  13.072 -0.2553  0.1739  0.0646
16764TIP3    H271784   5.269   5.119  13.175  0.0537  2.8046  1.2128
16765TIP3   OH271785   2.381   4.361   3.560 -0.0357 -0.3832 -0.3413
16765TIP3    H171786   2.452   4.298   3.569  1.1502  1.0694  0.7795
16765TIP3    H271787   2.318   4.337   3.629  1.1083  0.5279  1.0483
16766TIP3   OH271788   1.599   0.344   1.645 -0.2066 -0.3194 -0.2543
16766TIP3    H171789   1.659   0.418   1.646 -1.0688  0.3864  1.2119
16766TIP3    H271790   1.653   0.269   1.672  0.1044  0.2542  0.7503
16767TIP3   OH271791   5.736   2.677  15.966 -0.2714 -0.2545  0.3171
16767TIP3    H171792   5.789   2.607  16.005 -1.6381 -0.8869  1.0943
16767TIP3    H271793   5.772   2.758  16.002  0.5480 -0.6343  0.3591
16768TIP3   OH271794   5.470   2.514  13.619  0.0058 -0.2866  0.2312
16768TIP3    H171795   5.395   2.518  13.678  0.3405 -1.8262  0.7968
16768TIP3    H271796   5.505   2.602  13.618 -0.3227 -0.1303  1.9270
16769TIP3   OH271797   3.810   2.339   4.727 -0.2647  0.4306  0.3138
16769TIP3    H171798   3.868   2.278   4.683 -0.1832 -0.5334  1.7188
16769TIP3    H271799   3.778   2.291   4.803 -1.6509  1.5031  0.4273
16770TIP3   OH271800   2.364   2.738   5.129 -0.1699 -0.1421  0.0408
16770TIP3    H171801   2.429   2.740   5.058 -2.8582  1.2510 -2.4887
16770TIP3    H271802   2.409   2.780   5.203  1.7923  0.9024 -1.6760
16771TIP3   OH271803   5.686   4.927  13.632 -1.1439 -0.6399  0.2610
16771TIP3    H171804   5.668   4.940  13.539 -1.8183 -1.9285  0.1926
16771TIP3    H271805   5.629   4.854  13.658 -0.1672 -1.0172  1.4184
16772TIP3   OH271806   0.467   3.268  13.205 -0.0781 -0.3015 -0.1532
16772TIP3    H171807   0.489   3.327  13.277  0.5987 -1.4162  0.5568
16772TIP3    H271808   0.375   3.287  13.187 -0.0286  0.5560  0.4646
16773TIP3   OH271809   2.822   0.863   3.765 -0.5782 -0.3915  0.2276
16773TIP3    H171810   2.847   0.949   3.797  0.0596 -0.1081 -0.9995
16773TIP3    H271811   2.904   0.821   3.739 -1.0621 -0.6098 -1.0108
16774TIP3   OH271812   0.023   1.025   1.542 -0.5073 -0.4901  0.3265
16774TIP3    H171813  -0.027   0.946   1.563 -0.3015 -0.1906  2.0142
16774TIP3    H271814   0.003   1.042   1.450 -1.1729 -2.0536  0.1595
16775TIP3   OH271815   5.094   3.290  16.737 -0.7032 -0.0576 -0.1826
16775TIP3    H171816   5.012   3.335  16.718 -0.3171 -0.5108 -3.0744
16775TIP3    H271817   5.153   3.358  16.770 -1.7111  0.5669  0.3366
16776TIP3   OH271818   4.271   1.061   5.240 -0.4115  0.1235 -0.0746
16776TIP3    H171819   4.185   1.092   5.214 -1.1843 -2.3743 -0.6397
16776TIP3    H271820   4.323   1.065   5.159 -1.0825 -1.8838 -0.6307
16777TIP3   OH271821   5.780   6.161   2.859  0.0114 -0.1059  0.9417
16777TIP3    H171822   5.740   6.201   2.937 -2.8626  2.1113 -1.5632
16777TIP3    H271823   5.825   6.234   2.816  1.4947 -1.3012  0.4251
16778TIP3   OH271824   5.163   0.704   3.706 -0.5962  0.1065  0.4240
16778TIP3    H171825   5.192   0.789   3.672 -1.4084  0.4748  0.6479
16778TIP3    H271826   5.233   0.677   3.765 -0.6558  0.9396  0.8712
16779TIP3   OH271827   0.860   6.656  16.118  0.0463  0.6106  0.5481
16779TIP3    H171828   0.847   6.570  16.158 -0.9425 -0.9520 -2.9403
16779TIP3    H271829   0.952   6.677  16.135  0.2122 -0.9806  1.7125
16780TIP3   OH271830   4.735   1.441   6.043  0.3871  0.0290 -0.3492
16780TIP3    H171831   4.684   1.364   6.021  2.0012 -1.6630  1.5866
16780TIP3    H271832   4.675   1.515   6.031 -1.6630 -1.6729 -0.6972
16781TIP3   OH271833   0.295   0.895  14.450  1.1616 -0.3273 -0.1757
16781TIP3    H171834   0.221   0.839  14.429  0.8715  0.7255 -2.0219
16781TIP3    H271835   0.370   0.835  14.458  0.4672 -1.1814 -0.0564
16782TIP3   OH271836   1.158   4.651  13.345 -0.2934 -0.4156 -0.1160
16782TIP3    H171837   1.069   4.675  13.370 -1.7591 -2.9558 -2.5516
16782TIP3    H271838   1.148   4.607  13.261  3.1636 -1.6583  0.0451
16783TIP3   OH271839   0.515   6.569  15.734 -0.4073 -0.3415 -1.0437
16783TIP3    H171840   0.469   6.496  15.693 -2.4954 -0.4585  1.4243
16783TIP3    H271841   0.446   6.632  15.755  1.0736  1.2814 -0.9348
16784TIP3   OH271842   4.235   4.570  11.269 -0.3096  0.1697  0.0364
16784TIP3    H171843   4.254   4.653  11.311 -1.4667 -0.6232  2.2077
16784TIP3    H271844   4.182   4.522  11.333 -0.3117 -1.9247 -1.4767
16785TIP3   OH271845   4.028   0.038   4.582  0.1625  0.4550 -0.2504
16785TIP3    H171846   3.987   0.118   4.616 -0.0050  0.2117  0.1237
16785TIP3    H271847   4.117   0.039   4.619  0.4828  0.9558 -1.0188
16786TIP3   OH271848   1.729   3.478   3.719 -0.2452  0.5979  0.0149
16786TIP3    H171849   1.651   3.454   3.669  1.2853 -2.3389 -1.0762
16786TIP3    H271850   1.795   3.413   3.693  1.6773  1.2148  3.1375
16787TIP3   OH271851   5.212   3.171  14.065  0.3127  0.3549 -0.1174
16787TIP3    H171852   5.131   3.217  14.091 -0.8461 -0.5086 -2.1115
16787TIP3    H271853   5.280   3.210  14.121 -1.4956  0.9876  1.7238
16788TIP3   OH271854   4.470   2.010  15.751 -0.7074 -0.1113 -0.2795
16788TIP3    H171855   4.420   1.929  15.759  0.3706 -0.9157 -1.5075
16788TIP3    H271856   4.489   2.036  15.841 -1.9502 -0.6517  0.1487
16789TIP3   OH271857   1.500   4.357   1.010 -0.5141 -0.2687  0.2312
16789TIP3    H171858   1.588   4.341   0.977 -1.3365 -1.2401 -1.5511
16789TIP3    H271859   1.469   4.432   0.958 -0.1182  1.2143  2.0729
16790TIP3   OH271860   1.368   3.961   0.800 -0.3274  0.4403 -0.0689
16790TIP3    H171861   1.286   3.979   0.846 -1.1015 -3.3807  0.2159
16790TIP3    H271862   1.350   3.986   0.709 -1.4133  0.7165  0.2162
16791TIP3   OH271863   3.837   0.246   4.055 -0.0700  0.2194 -0.0968
16791TIP3    H171864   3.825   0.152   4.042 -0.8446  0.4367 -1.0900
16791TIP3    H271865   3.779   0.286   3.990  0.8795  1.3748 -0.2561
16792TIP3   OH271866   4.814   1.714   4.363 -0.4478  0.2853 -0.5135
16792TIP3    H171867   4.780   1.643   4.307 -1.4855  1.7850 -1.8372
16792TIP3    H271868   4.751   1.785   4.352  1.1475  1.8076 -0.0446
16793TIP3   OH271869   3.784   4.811  15.063  0.3324  1.1153 -0.3368
16793TIP3    H171870   3.720   4.797  15.132  2.0372  0.3058  1.1263
16793TIP3    H271871   3.758   4.894  15.022 -1.6329  0.7844  0.2108
16794TIP3   OH271872   5.018   1.077   3.287 -0.6953 -0.1778  0.4778
16794TIP3    H171873   4.990   1.144   3.350 -0.9586  1.8550 -1.7378
16794TIP3    H271874   4.951   1.079   3.219  0.0877 -1.6787 -0.3564
16795TIP3   OH271875   0.614   6.604   2.202 -0.3480 -0.0520 -0.2564
16795TIP3    H171876   0.561   6.539   2.248 -0.3390  0.5271  0.5859
16795TIP3    H271877   0.557   6.635   2.131 -0.7443 -0.2098 -0.0117
16796TIP3   OH271878   4.295   5.655  12.341 -0.2134  0.3269 -0.5808
16796TIP3    H171879   4.299   5.570  12.385 -0.3350  1.8230  2.3916
16796TIP3    H271880   4.204   5.683  12.351  0.4169  1.9623  0.7348
16797TIP3   OH271881   2.236   1.660  15.052  0.5173  0.3656  0.2013
16797TIP3    H171882   2.225   1.576  15.008  0.1509 -0.2543  1.4681
16797TIP3    H271883   2.227   1.641  15.145  0.0292  1.8609  0.4843
16798TIP3   OH271884   1.575   5.196   7.110 -0.2281  0.3663 -0.2193
16798TIP3    H171885   1.639   5.126   7.103  1.2790  1.6609  0.3540
16798TIP3    H271886   1.500   5.155   7.154  1.6033 -0.3022  2.4305
16799TIP3   OH271887   2.188   1.600   0.411  0.0714  0.2804  0.2251
16799TIP3    H171888   2.274   1.601   0.453 -0.1401 -0.2106  0.6691
16799TIP3    H271889   2.142   1.675   0.450  1.0366  1.8737 -1.5835
16800TIP3   OH271890   2.678   1.708   4.310  0.0383 -0.3877 -0.2840
16800TIP3    H171891   2.722   1.783   4.269 -2.6147  1.4184 -0.0048
16800TIP3    H271892   2.689   1.722   4.404 -2.5361  1.0812 -0.1369
16801TIP3   OH271893   6.434   2.952   1.076 -0.5840 -0.4863  0.3834
16801TIP3    H171894   6.361   2.905   1.036  0.2607 -1.1088 -0.4403
16801TIP3    H271895   6.483   2.989   1.003 -0.8116  1.0819  0.9851
16802TIP3   OH271896   3.193   3.239  12.554  0.0532  0.1191 -0.5293
16802TIP3    H171897   3.119   3.232  12.494  1.6778 -0.2730 -2.5845
16802TIP3    H271898   3.264   3.275  12.500  1.7511 -0.8317  0.9860
16803TIP3   OH271899   6.797   5.236  15.694 -0.1041  0.5968 -0.2838
16803TIP3    H171900   6.717   5.196  15.659 -1.8099  2.2108  1.6178
16803TIP3    H271901   6.766   5.291  15.766  3.0317 -0.5990  2.0599
16804TIP3   OH271902   5.407   0.647  11.288  0.4591  1.0915 -0.4898
16804TIP3    H171903   5.444   0.559  11.291 -2.1869 -0.0357 -0.2253
16804TIP3    H271904   5.484   0.705  11.294  2.1374 -1.1607  0.5204
16805TIP3   OH271905   4.235   1.001   0.272  0.3417 -0.3304  0.1219
16805TIP3    H171906   4.271   1.077   0.318  0.4916  0.5066 -1.3453
16805TIP3    H271907   4.143   1.021   0.259  0.2330 -0.6938  0.3234
16806TIP3   OH271908   5.032   0.982   1.701 -0.6396 -0.4718 -0.1121
16806TIP3    H171909   5.005   1.074   1.710 -1.0125 -0.7831  2.2465
16806TIP3    H271910   5.001   0.957   1.614 -0.9532  1.4989 -0.6075
16807TIP3   OH271911   5.381   4.496   3.951 -0.0955 -0.3041  0.0048
16807TIP3    H171912   5.388   4.401   3.948  0.8847 -0.2129 -0.8356
16807TIP3    H271913   5.470   4.526   3.971 -0.5419  0.4041  0.9555
16808TIP3   OH271914   0.064   4.972  12.450  0.1559  0.2944  0.6312
16808TIP3    H171915   0.045   4.906  12.516  1.1665  1.6955  2.3518
16808TIP3    H271916   0.157   4.960  12.430 -0.0532  0.1170 -0.2736
16809TIP3   OH271917   4.754   4.650  12.987  0.3396  0.2755 -0.3399
16809TIP3    H171918   4.778   4.572  12.937  0.5234 -0.1720  0.4362
16809TIP3    H271919   4.659   4.656  12.977  0.4425  0.5488 -1.2459
16810TIP3   OH271920   4.042   5.933  14.836 -0.4453 -0.3220 -0.6380
16810TIP3    H171921   4.011   6.023  14.828 -1.6311 -0.7251 -0.6995
16810TIP3    H271922   3.988   5.883  14.774  2.0954 -0.6306 -2.7187
16811TIP3   OH271923   5.733   6.747  12.832 -0.0813  0.1756 -0.1935
16811TIP3    H171924   5.763   6.656  12.828 -1.1351 -0.2415  0.7939
16811TIP3    H271925   5.724   6.765  12.926  0.1357  1.3045 -0.3821
16812TIP3   OH271926   2.040   5.874   4.352 -1.0083 -0.6316 -0.3403
16812TIP3    H171927   1.965   5.932   4.368 -2.2754 -2.1356 -0.6568
16812TIP3    H271928   2.079   5.862   4.438 -0.2943  1.2542 -0.3785
16813TIP3   OH271929   1.965   0.064   0.711 -0.1773 -0.1857 -0.2485
16813TIP3    H171930   1.979  -0.005   0.646  1.3332 -0.3749  0.2569
16813TIP3    H271931   1.933   0.139   0.661 -0.8866 -0.9423 -0.9328
16814TIP3   OH271932   6.072   0.246   5.786  0.3559 -0.1134  0.0600
16814TIP3    H171933   5.996   0.229   5.731  1.7756 -2.9597 -1.1274
16814TIP3    H271934   6.037   0.295   5.861 -2.2011  0.6974 -1.6151
16815TIP3   OH271935   3.224   3.954  14.925  0.1464  0.7459 -0.4845
16815TIP3    H171936   3.285   3.958  14.998 -0.6161  1.9616  0.0953
16815TIP3    H271937   3.160   3.888  14.950 -0.3984  1.5137  0.1878
16816TIP3   OH271938   2.668   4.592  12.091 -0.5513 -0.8430 -0.1488
16816TIP3    H171939   2.602   4.653  12.124  0.6864  0.1823  0.5260
16816TIP3    H271940   2.736   4.592  12.159  1.3027  0.0797 -1.9321
16817TIP3   OH271941   6.145   5.382   0.802 -0.6926 -0.3015  0.0092
16817TIP3    H171942   6.050   5.386   0.789 -0.9915 -0.1751  2.0293
16817TIP3    H271943   6.158   5.316   0.869  0.6297 -0.0738  0.0042
16818TIP3   OH271944   5.859   1.509   3.205  0.7071  0.2903  0.1835
16818TIP3    H171945   5.803   1.583   3.183  0.6432  0.1353 -0.1786
16818TIP3    H271946   5.803   1.452   3.258  1.2469  1.2672  1.8317
16819TIP3   OH271947   2.370   4.081  16.344 -0.1318 -0.5166 -0.1574
16819TIP3    H171948   2.376   4.066  16.250  2.0285 -0.0318 -0.1068
16819TIP3    H271949   2.346   4.173  16.352 -0.0690 -0.4938 -0.2295
16820TIP3   OH271950   4.596   6.800   1.170 -0.1307  0.0330 -0.1118
16820TIP3    H171951   4.596   6.763   1.081  1.8886 -0.8499  0.2138
16820TIP3    H271952   4.616   6.725   1.227  0.9784  1.0373  0.8469
16821TIP3   OH271953   6.448   2.560   0.824 -0.4748  0.5357  0.3433
16821TIP3    H171954   6.399   2.520   0.897  0.2275  0.0948  0.5795
16821TIP3    H271955   6.535   2.521   0.830 -1.0240 -1.1305 -2.0376
16822TIP3   OH271956   2.908   4.175  16.575  0.0659 -0.6234 -0.1849
16822TIP3    H171957   2.900   4.232  16.498 -1.7161 -2.1844 -1.2247
16822TIP3    H271958   2.820   4.175  16.614  0.1242 -2.3594 -0.0133
16823TIP3   OH271959   5.970   3.375  12.237  0.5643 -0.2101  0.1694
16823TIP3    H171960   6.063   3.364  12.219  0.2858 -0.1462 -1.4226
16823TIP3    H271961   5.928   3.360  12.152 -0.7733  0.9391  0.6172
16824TIP3   OH271962   3.925   4.730   4.755 -0.4031  0.2997 -0.2946
16824TIP3    H171963   3.991   4.663   4.739  0.0238  0.4597  0.7400
16824TIP3    H271964   3.845   4.696   4.714  0.5235  0.5199 -2.3700
16825TIP3   OH271965   2.816   0.701  16.100 -0.5247 -0.5239 -0.2895
16825TIP3    H171966   2.905   0.734  16.105 -1.6202  2.5136  0.1666
16825TIP3    H271967   2.826   0.607  16.086  2.7234 -0.2372 -0.2418
16826TIP3   OH271968   0.818   2.312  11.052 -0.5509  0.3569  0.3436
16826TIP3    H171969   0.758   2.329  10.979  2.1780 -0.1897 -2.1116
16826TIP3    H271970   0.837   2.218  11.047 -0.4595  0.2827  1.8668
16827TIP3   OH271971   6.755   3.057   3.000 -0.2309  0.1071  0.4293
16827TIP3    H171972   6.776   3.000   2.927 -0.2016  0.9018 -0.1809
16827TIP3    H271973   6.705   3.128   2.962 -1.0587  0.0310  1.3301
16828TIP3   OH271974   3.124   1.958   0.057 -0.4497  0.2031 -0.6126
16828TIP3    H171975   3.139   1.924   0.145 -1.3169 -1.1011 -0.9590
16828TIP3    H271976   3.088   2.046   0.071 -0.2428  0.1386  0.3310
16829TIP3   OH271977   2.067   5.606  11.392  0.0802  0.2022  0.0179
16829TIP3    H171978   2.088   5.546  11.463  0.6050 -0.0599 -0.3503
16829TIP3    H271979   2.088   5.556  11.312  2.7109  1.6442 -0.2588
16830TIP3   OH271980   4.111   3.225  14.106  0.3475 -0.2050 -0.5654
16830TIP3    H171981   4.110   3.319  14.125  0.2978 -0.6645  1.8409
16830TIP3    H271982   4.181   3.190  14.161  0.2493 -1.6082 -1.3124
16831TIP3   OH271983   3.240   2.354  16.548  0.2476 -0.0436  0.2935
16831TIP3    H171984   3.248   2.445  16.519  0.2708 -0.6536 -1.7073
16831TIP3    H271985   3.304   2.346  16.619 -0.8604  1.9024  1.5756
16832TIP3   OH271986   0.852   3.187   3.414  0.1056  0.4555 -0.1202
16832TIP3    H171987   0.795   3.179   3.337  1.5190 -0.4155 -1.1247
16832TIP3    H271988   0.880   3.097   3.432  0.5425  0.7764  0.8264
16833TIP3   OH271989   2.648   1.201   4.815  0.3792 -0.7007 -0.4056
16833TIP3    H171990   2.654   1.113   4.851  2.1829  1.2205  4.3665
16833TIP3    H271991   2.712   1.202   4.743  0.6535 -3.0891 -0.2293
16834TIP3   OH271992   6.249   1.784   0.467 -0.0036 -0.1253 -0.6021
16834TIP3    H171993   6.293   1.837   0.401 -0.8122  1.1520 -0.1413
16834TIP3    H271994   6.156   1.789   0.444 -0.3529  0.7673  0.9275
16835TIP3   OH271995   2.193   2.499   4.785 -0.4070 -0.5727  0.4379
16835TIP3    H171996   2.178   2.431   4.852 -0.7584 -0.8693  0.0624
16835TIP3    H271997   2.249   2.457   4.720 -1.0173 -0.6603 -0.0367
16836TIP3   OH271998   4.852   5.323   4.607  0.2944  0.3181 -0.0244
16836TIP3    H171999   4.779   5.262   4.590  2.6304 -2.3976 -0.6271
16836TIP3    H272000   4.901   5.324   4.525  1.0903  1.9384  0.4628
16837TIP3   OH272001   3.584   2.503   2.409  0.1438  0.5527 -0.4826
16837TIP3    H172002   3.658   2.552   2.374 -1.0844  2.5819 -0.3056
16837TIP3    H272003   3.605   2.490   2.501  0.9886 -0.2727 -0.7794
16838TIP3   OH272004   2.129   2.776  15.639  0.1846 -0.0088  0.3773
16838TIP3    H172005   2.171   2.692  15.620  2.4355  1.5425 -1.7879
16838TIP3    H272006   2.069   2.757  15.711 -0.9493 -3.9131 -1.4859
16839TIP3   OH272007   4.434   0.076  12.698 -0.0198 -0.2353 -0.1211
16839TIP3    H172008   4.508   0.130  12.726  0.6482 -0.2346 -1.7822
16839TIP3    H272009   4.395   0.045  12.779  1.4163  0.2948  0.8056
16840TIP3   OH272010   4.922   5.366  11.347 -0.6212 -0.9109 -0.1870
16840TIP3    H172011   4.995   5.409  11.303 -0.3070  0.1020  1.2882
16840TIP3    H272012   4.868   5.332  11.276  1.2376 -1.6060 -1.2852
16841TIP3   OH272013   3.131   6.615   1.594  0.4927  0.4858  0.2260
16841TIP3    H172014   3.088   6.668   1.527  1.3736 -0.5699 -1.1965
16841TIP3    H272015   3.192   6.561   1.545 -1.6149 -3.1204  1.4329
16842TIP3   OH272016   1.303   6.319   3.425 -0.5149  0.1195 -0.4154
16842TIP3    H172017   1.251   6.377   3.481 -0.8825  0.3799 -1.0143
16842TIP3    H272018   1.390   6.359   3.422 -0.1935 -0.4732  0.8248
16843TIP3   OH272019   3.805   2.573  12.936 -0.6283 -0.0976 -0.0434
16843TIP3    H172020   3.894   2.546  12.962 -0.3925 -0.5590 -1.2844
16843TIP3    H272021   3.762   2.491  12.913 -1.9186 -0.0600  2.1153
16844TIP3   OH272022   3.476   3.798   3.265  0.4296 -0.2567  0.3147
16844TIP3    H172023   3.568   3.824   3.257  0.7622 -1.8421 -1.2581
16844TIP3    H272024   3.453   3.761   3.180 -2.3065  2.0446 -0.0378
16845TIP3   OH272025   4.943   3.495  12.603 -0.2358 -0.6425 -0.8207
16845TIP3    H172026   4.950   3.439  12.680  3.4159  1.4556  0.5329
16845TIP3    H272027   4.852   3.524  12.602 -0.7552 -2.0215  1.7192
16846TIP3   OH272028   3.090   2.683   4.628  0.1329 -0.5509 -0.2573
16846TIP3    H172029   3.099   2.718   4.716 -0.2932  0.8230 -0.7455
16846TIP3    H272030   3.045   2.599   4.640 -0.4475 -0.1061  0.7836
16847TIP3   OH272031   5.259   4.324  13.938  0.7253 -0.1017 -0.2389
16847TIP3    H172032   5.288   4.325  14.030  0.0550 -1.2621 -0.0077
16847TIP3    H272033   5.206   4.245  13.931 -1.1551  1.2026 -1.0490
16848TIP3   OH272034   5.940   1.398  11.244  0.2852 -0.1251 -0.1937
16848TIP3    H172035   5.854   1.392  11.285 -0.4849 -0.1596 -1.7884
16848TIP3    H272036   5.954   1.492  11.231  1.2870  0.0252  1.6576
16849TIP3   OH272037   5.631   1.754   6.168  0.1027  0.4543  0.0818
16849TIP3    H172038   5.553   1.709   6.202 -0.2237  1.7222  1.0569
16849TIP3    H272039   5.605   1.785   6.081 -0.0513 -0.2484 -0.1243
16850TIP3   OH272040   5.544   0.517   4.126 -0.2646 -0.4036 -0.4536
16850TIP3    H172041   5.480   0.577   4.165 -1.4642 -1.9863  0.0697
16850TIP3    H272042   5.628   0.562   4.135 -0.9799  0.6622  1.0446
16851TIP3   OH272043   4.931   2.543  15.974  0.1235  0.0638  0.2064
16851TIP3    H172044   4.995   2.472  15.978 -0.7612 -0.7078  1.0193
16851TIP3    H272045   4.907   2.558  16.065  1.8209  2.8445  0.2461
16852TIP3   OH272046   5.346   4.779   3.961  0.0238 -0.0083 -0.0051
16852TIP3    H172047   5.334   4.685   3.944 -2.2821  0.5039 -1.4630
16852TIP3    H272048   5.417   4.805   3.903 -0.0469 -0.6437 -0.3832
16853TIP3   OH272049   5.904   4.937  11.824  0.0751 -0.4185  0.0537
16853TIP3    H172050   5.809   4.935  11.814 -0.2507 -0.9612  2.9320
16853TIP3    H272051   5.935   4.866  11.767 -1.2225 -0.2492 -0.8866
16854TIP3   OH272052   4.251   2.224  12.843 -0.0868 -0.5169  0.0435
16854TIP3    H172053   4.326   2.165  12.834  0.5029  0.1978  0.1890
16854TIP3    H272054   4.282   2.294  12.900 -1.4037 -1.0686  1.4831
16855TIP3   OH272055   2.227   5.285  14.869  0.1969 -0.8529 -0.1781
16855TIP3    H172056   2.220   5.343  14.945  0.3009 -1.3455  0.2093
16855TIP3    H272057   2.321   5.275  14.854  0.1691 -0.3291 -0.7005
16856TIP3   OH272058   0.691   0.380  16.427  0.6260 -0.2929  0.0955
16856TIP3    H172059   0.642   0.336  16.358  0.7136 -1.4349  0.7349
16856TIP3    H272060   0.624   0.421  16.482  0.5287  0.1964 -0.3883
16857TIP3   OH272061   1.573   1.530  12.264 -0.7191  0.5565  1.0711
16857TIP3    H172062   1.540   1.574  12.185  1.4060 -0.2211 -0.2932
16857TIP3    H272063   1.600   1.601  12.322  1.9228  1.1338 -0.7763
16858TIP3   OH272064   1.391   5.194   5.004 -0.1111  0.8927  0.1622
16858TIP3    H172065   1.433   5.190   5.090  0.8041  0.5541 -0.2849
16858TIP3    H272066   1.445   5.256   4.955  0.2242 -0.0039 -0.6141
16859TIP3   OH272067   5.590   1.100   3.241 -0.0873 -0.4808 -0.0777
16859TIP3    H172068   5.548   1.025   3.199 -0.6163  1.1188 -2.4970
16859TIP3    H272069   5.669   1.115   3.190  0.8322 -0.3361  1.3536
16860TIP3   OH272070   6.567   3.088  15.536  0.4173  0.2398 -0.1052
16860TIP3    H172071   6.546   3.051  15.450  2.5691  1.7744 -1.3256
16860TIP3    H272072   6.500   3.154  15.551 -0.5274 -0.6901 -0.1441
16861TIP3   OH272073   2.911   0.883  13.609 -0.1011 -0.1983 -0.3353
16861TIP3    H172074   2.824   0.859  13.576 -0.4604  1.4015 -0.5662
16861TIP3    H272075   2.972   0.837  13.550 -0.7658  0.9371 -1.9612
16862TIP3   OH272076   1.507   4.013  14.830 -0.1282  0.4556  0.4514
16862TIP3    H172077   1.575   3.979  14.887 -0.5689  0.1255  0.7868
16862TIP3    H272078   1.468   4.085  14.880 -0.0813  0.5915  0.2937
16863TIP3   OH272079   6.729   1.253  10.709  0.2530  1.0097  0.1254
16863TIP3    H172080   6.799   1.290  10.655  1.2245  0.6386  1.1122
16863TIP3    H272081   6.754   1.274  10.799 -0.8169  0.7172  0.5093
16864TIP3   OH272082   0.385   4.779  14.191  0.3836 -0.4935 -0.3854
16864TIP3    H172083   0.355   4.870  14.181 -0.2065 -0.7598 -1.1377
16864TIP3    H272084   0.304   4.729  14.197  0.7199 -0.9002  0.6720
16865TIP3   OH272085   4.919   0.681  10.216 -0.1829  0.4011 -0.2171
16865TIP3    H172086   4.939   0.593  10.182  1.0519  0.2647  0.8306
16865TIP3    H272087   4.969   0.740  10.159 -0.3766  0.3734 -0.4176
16866TIP3   OH272088   6.304   4.706   2.036  0.3265  0.2547 -0.2171
16866TIP3    H172089   6.347   4.784   2.002 -2.3807  2.1776  0.6436
16866TIP3    H272090   6.311   4.715   2.131  0.0705 -0.6135 -0.1136
16867TIP3   OH272091   3.190   2.520   2.718  0.1325 -0.0429 -0.1981
16867TIP3    H172092   3.168   2.502   2.627  0.8264  1.5096 -0.6874
16867TIP3    H272093   3.270   2.469   2.733  0.3810  0.2072 -0.6543
16868TIP3   OH272094   3.074   3.066  13.433 -0.3601 -0.3289  0.2770
16868TIP3    H172095   3.137   2.997  13.454 -1.8102 -1.6045  0.4577
16868TIP3    H272096   3.011   3.064  13.504 -1.7124 -0.3638 -0.9088
16869TIP3   OH272097   2.124   4.976  15.874 -0.6302  0.4132  0.3456
16869TIP3    H172098   2.106   4.889  15.909 -0.0771  0.0789 -0.1939
16869TIP3    H272099   2.165   4.960  15.789 -1.2664  1.2161 -0.1114
16870TIP3   OH272100   2.128   6.226   0.888 -0.4228  0.0253  0.5204
16870TIP3    H172101   2.034   6.212   0.896 -0.4323  0.0515  0.4581
16870TIP3    H272102   2.136   6.316   0.857 -0.3950 -0.1631 -0.0101
16871TIP3   OH272103   2.079   4.330   4.486 -0.3691  0.4639  0.1700
16871TIP3    H172104   2.152   4.323   4.425 -1.6512 -0.9713 -1.2125
16871TIP3    H272105   2.063   4.240   4.514 -1.5523  0.7931  0.5510
16872TIP3   OH272106   3.753   3.843   2.259 -0.1854  0.2779 -0.5229
16872TIP3    H172107   3.677   3.786   2.249  0.0043 -0.0921  0.1514
16872TIP3    H272108   3.776   3.867   2.169 -1.1259  0.4342 -0.7318
16873TIP3   OH272109   5.774   3.008  11.733 -0.2149  0.1792 -0.0231
16873TIP3    H172110   5.738   3.044  11.652 -0.3230  1.0397  0.4041
16873TIP3    H272111   5.811   3.084  11.779 -0.6075 -0.2238  0.9731
16874TIP3   OH272112   5.541   5.838   4.360 -0.0560 -0.3034  0.1836
16874TIP3    H172113   5.561   5.932   4.355  0.3456 -0.3452  0.9085
16874TIP3    H272114   5.460   5.828   4.310 -0.8482  0.6538  1.2448
16875TIP3   OH272115   2.255   4.496  13.311  0.0521 -0.8519  0.6188
16875TIP3    H172116   2.168   4.534  13.300 -0.1179 -1.5554 -0.5970
16875TIP3    H272117   2.257   4.466  13.402 -0.5368  0.2457  0.9899
16876TIP3   OH272118   2.585   3.005   3.676 -0.6301  0.2838  0.0357
16876TIP3    H172119   2.516   2.950   3.714 -1.2727  0.3098 -1.0649
16876TIP3    H272120   2.604   2.964   3.591  0.1488  0.7365 -0.0071
16877TIP3   OH272121   4.806   1.186  11.584 -0.2185  0.1114  0.2040
16877TIP3    H172122   4.834   1.250  11.650 -0.1134 -1.4637  1.7311
16877TIP3    H272123   4.721   1.155  11.616  0.4127 -1.5877  0.2771
16878TIP3   OH272124   5.632   0.785   2.491  0.3136  0.2669 -0.3452
16878TIP3    H172125   5.607   0.840   2.417  0.6941  0.6993 -0.1535
16878TIP3    H272126   5.727   0.776   2.482  0.4622  0.9188  0.5009
16879TIP3   OH272127   2.873   2.294   3.711  0.6490 -0.3277  0.7488
16879TIP3    H172128   2.814   2.324   3.780  1.0484 -2.2153  1.9545
16879TIP3    H272129   2.920   2.373   3.684 -0.7556  0.7619  1.3954
16880TIP3   OH272130   5.255   5.527  14.149  0.2617 -0.2921 -0.4243
16880TIP3    H172131   5.210   5.448  14.120 -0.5926  0.9388 -2.5726
16880TIP3    H272132   5.225   5.541  14.238 -1.1030 -1.2946 -0.7143
16881TIP3   OH272133   0.387   6.791  16.084 -0.6300  0.0871 -0.7904
16881TIP3    H172134   0.375   6.704  16.045 -0.2931  0.3459 -1.4694
16881TIP3    H272135   0.477   6.815  16.061 -0.3877  0.1938  0.2409
16882TIP3   OH272136   3.865   1.842   1.445 -0.2920 -0.2337 -0.2746
16882TIP3    H172137   3.853   1.786   1.522  1.2601 -0.4671 -0.1953
16882TIP3    H272138   3.830   1.789   1.372 -0.9386 -0.3705  0.1280
16883TIP3   OH272139   0.735   2.471   0.934  0.1111  0.2099 -0.0831
16883TIP3    H172140   0.730   2.507   0.846 -0.9018  0.2623 -0.0094
16883TIP3    H272141   0.803   2.523   0.977 -1.1160  1.8458 -0.0703
16884TIP3   OH272142   4.907   5.875   0.112 -0.0808  0.0526 -0.1885
16884TIP3    H172143   4.904   5.789   0.068 -0.3066 -0.3596  0.6226
16884TIP3    H272144   4.816   5.902   0.117  0.0090  0.4427 -0.6335
16885TIP3   OH272145   5.706   4.456   3.615  0.3963 -0.0214  0.5061
16885TIP3    H172146   5.631   4.514   3.629  0.6424  0.8574 -1.7680
16885TIP3    H272147   5.711   4.404   3.696 -0.3666  2.4792  2.2206
16886TIP3   OH272148   5.592   2.485   0.566  0.2019  0.4655  0.0410
16886TIP3    H172149   5.668   2.484   0.624 -0.1113 -0.7777  0.4407
16886TIP3    H272150   5.614   2.423   0.496  0.0944  1.0817 -0.5417
16887TIP3   OH272151   2.051   3.742  14.611  0.3329 -0.2450  0.5815
16887TIP3    H172152   2.093   3.663  14.576 -0.4819  0.0921 -1.2138
16887TIP3    H272153   1.969   3.710  14.649 -0.1782 -0.2427 -0.4844
16888TIP3   OH272154   4.036   6.075   6.147  0.0072  0.4598 -0.6684
16888TIP3    H172155   4.068   6.121   6.070  0.6672  0.4565 -0.4073
16888TIP3    H272156   4.059   6.133   6.220  0.0049  0.1462 -0.4178
16889TIP3   OH272157   0.266   3.636  12.156  0.6698 -0.3489 -0.0689
16889TIP3    H172158   0.361   3.643  12.155  0.5489  1.4349 -0.8257
16889TIP3    H272159   0.236   3.713  12.205 -0.5208  1.5603 -3.5928
16890TIP3   OH272160   5.152   6.148  11.336  0.2490 -0.2020 -0.5699
16890TIP3    H172161   5.234   6.125  11.379  0.4141 -0.3103 -0.9451
16890TIP3    H272162   5.098   6.186  11.406  0.6511 -0.0429 -0.3471
16891TIP3   OH272163   2.549   1.765   0.201  0.2075 -0.3523  0.4339
16891TIP3    H172164   2.564   1.688   0.146  0.1796  0.2738 -0.4749
16891TIP3    H272165   2.631   1.776   0.249  0.6090 -0.3082 -0.2543
16892TIP3   OH272166   0.457   5.480   0.718  0.1038 -0.2186  0.2196
16892TIP3    H172167   0.551   5.476   0.735  0.4133  2.1391 -0.6411
16892TIP3    H272168   0.417   5.484   0.805  0.9009  0.1384  0.5780
16893TIP3   OH272169   6.663   2.645  14.150 -0.5117 -0.2910 -0.0813
16893TIP3    H172170   6.637   2.737  14.156  0.8444  0.1142 -0.1231
16893TIP3    H272171   6.582   2.598  14.133 -1.5001  0.7021  1.7489
16894TIP3   OH272172   2.295   2.624  13.934  0.3608 -0.2631 -0.1584
16894TIP3    H172173   2.271   2.601  13.844  0.4051 -0.2068 -0.1854
16894TIP3    H272174   2.371   2.681  13.924 -0.5485  0.9697 -0.1586
16895TIP3   OH272175   0.267   3.250   4.717 -0.0387  0.1132  0.2329
16895TIP3    H172176   0.274   3.258   4.622  1.5960 -1.0442  0.2434
16895TIP3    H272177   0.329   3.315   4.750 -1.2025  1.0934  0.5412
16896TIP3   OH272178   1.007   2.093  11.034  0.1657  0.1694 -0.2443
16896TIP3    H172179   1.098   2.114  11.053  0.0288 -0.0037  0.6313
16896TIP3    H272180   0.972   2.061  11.117 -0.6578  0.1108 -0.6077
16897TIP3   OH272181   4.087   5.459   1.756  0.4239 -0.5733  0.0753
16897TIP3    H172182   4.008   5.453   1.702 -0.2578 -1.8511  1.1813
16897TIP3    H272183   4.080   5.544   1.800 -0.0699 -0.4624 -0.2162
16898TIP3   OH272184   0.987   4.593  15.345  0.2495 -0.5343 -0.0691
16898TIP3    H172185   0.905   4.637  15.322 -0.2174 -1.1544  0.3902
16898TIP3    H272186   1.054   4.640  15.296 -0.5784 -1.0759 -1.7325
16899TIP3   OH272187   0.966   0.194   1.890 -0.1484  0.0576 -0.2411
16899TIP3    H172188   0.941   0.110   1.852  0.4758 -0.6377  0.8577
16899TIP3    H272189   1.057   0.181   1.919 -0.4121  0.7536  0.9377
16900TIP3   OH272190   5.787   4.005  11.371  0.6795 -0.0775  0.5855
16900TIP3    H172191   5.729   3.975  11.301  0.7114  0.0775  0.4922
16900TIP3    H272192   5.811   3.925  11.418  1.7028 -0.3573 -0.3918
16901TIP3   OH272193   6.481   5.119   2.676  0.4155 -0.0912  0.0075
16901TIP3    H172194   6.563   5.095   2.720  0.2530 -0.2025  0.2489
16901TIP3    H272195   6.509   5.167   2.598  0.6661  1.5189  1.0628
16902TIP3   OH272196   2.041   6.465   4.708 -0.5976  0.2488  0.0970
16902TIP3    H172197   2.083   6.391   4.753 -0.1386  0.8250  0.6308
16902TIP3    H272198   2.114   6.519   4.677 -0.9289  1.0233  0.6370
16903TIP3   OH272199   4.591   2.121   4.993 -0.2967 -0.0480 -0.2308
16903TIP3    H172200   4.574   2.058   4.922  1.4795  1.5907 -2.1896
16903TIP3    H272201   4.521   2.185   4.985 -1.3790 -1.0647  0.9527
16904TIP3   OH272202   2.501   5.183   5.012 -0.1913  0.3676  0.1791
16904TIP3    H172203   2.548   5.101   4.998 -0.9167  0.3358 -2.3482
16904TIP3    H272204   2.565   5.242   5.051  1.4769 -0.1624 -1.7129
16905TIP3   OH272205   6.574   4.396   3.501  0.1200 -0.0396  0.0293
16905TIP3    H172206   6.550   4.316   3.549 -1.5412  0.3643 -0.1081
16905TIP3    H272207   6.521   4.465   3.541  0.3065  0.6899 -0.9610
16906TIP3   OH272208   2.395   4.589  12.862 -0.0259  0.1337  0.7966
16906TIP3    H172209   2.392   4.651  12.790  1.0858  0.2444  0.8405
16906TIP3    H272210   2.412   4.643  12.939 -1.7751  0.0860  1.2474
16907TIP3   OH272211   3.537   5.449  16.989 -0.3382  0.0794  0.4139
16907TIP3    H172212   3.570   5.435  17.077  2.4477 -1.3566 -0.7905
16907TIP3    H272213   3.587   5.525  16.957  1.7030 -1.9055 -1.3079
16908TIP3   OH272214   4.494   0.202  15.367  0.2527  0.3026 -0.3213
16908TIP3    H172215   4.556   0.252  15.420 -1.9713  1.6066  1.1689
16908TIP3    H272216   4.545   0.131  15.330  2.5329  1.1072  1.1677
16909TIP3   OH272217   0.534   5.173  14.714  0.2356  0.2632 -0.1659
16909TIP3    H172218   0.490   5.175  14.799 -0.5028 -1.6589 -0.4908
16909TIP3    H272219   0.551   5.081  14.697  0.5462  0.6352 -2.0313
16910TIP3   OH272220   5.735   4.056  13.192  0.2849  0.4056 -0.0668
16910TIP3    H172221   5.718   4.118  13.263  2.9407  1.2022 -0.1031
16910TIP3    H272222   5.809   4.093  13.144  2.9426 -3.4681  0.7744
16911TIP3   OH272223   3.556   6.471   1.717 -0.5668  0.0595 -0.3059
16911TIP3    H172224   3.474   6.423   1.725 -1.0282  0.9592  0.5323
16911TIP3    H272225   3.612   6.435   1.786 -0.7875  0.4746  0.0922
16912TIP3   OH272226   0.104   1.237   6.719  0.6334  0.0933 -0.3901
16912TIP3    H172227   0.190   1.278   6.725  1.6762 -1.9790 -0.7746
16912TIP3    H272228   0.118   1.147   6.749 -1.1292 -0.6415 -1.6990
16913TIP3   OH272229   3.543   2.160  13.713  0.1116 -0.2559  0.0333
16913TIP3    H172230   3.616   2.103  13.739 -1.4402 -1.6528  1.4082
16913TIP3    H272231   3.529   2.217  13.788 -1.4328 -1.2587  0.5168
16914TIP3   OH272232   5.663   6.479  15.414  0.2140 -0.1908  0.6389
16914TIP3    H172233   5.603   6.404  15.413 -1.4912  1.1469  0.4643
16914TIP3    H272234   5.655   6.515  15.502  0.8827 -0.0815  0.6589
16915TIP3   OH272235   6.543   6.038   2.072  0.4376 -0.6870  0.9753
16915TIP3    H172236   6.618   6.096   2.060  0.1204  0.4153  3.8597
16915TIP3    H272237   6.467   6.092   2.049  0.4631 -1.7212 -1.6919
16916TIP3   OH272238   5.201   6.667  12.173  0.2207 -0.5056  0.3361
16916TIP3    H172239   5.134   6.710  12.119 -0.8947 -2.3564  0.2210
16916TIP3    H272240   5.226   6.734  12.237  0.0100  1.0061 -1.1149
16917TIP3   OH272241   2.805   4.069   3.114 -0.6041  0.1823  0.3064
16917TIP3    H172242   2.784   3.976   3.121  0.5376 -0.0220  1.2795
16917TIP3    H272243   2.896   4.075   3.143 -0.6531  1.5991  0.2108
16918TIP3   OH272244   0.917   3.410   3.557 -0.4186  0.4573  0.5403
16918TIP3    H172245   0.845   3.464   3.524 -0.7899 -0.7329 -0.6373
16918TIP3    H272246   0.892   3.320   3.533  0.1985 -0.2363  2.4384
16919TIP3   OH272247   4.462   2.592  12.285  0.0630 -0.7386 -0.9085
16919TIP3    H172248   4.496   2.569  12.199  0.7168  1.0834 -1.1627
16919TIP3    H272249   4.368   2.604  12.271 -0.2350 -2.7724 -0.8436
16920TIP3   OH272250   5.780   2.680  14.968  0.0898 -0.2105  0.6251
16920TIP3    H172251   5.833   2.760  14.962  4.2020 -2.8098  0.3432
16920TIP3    H272252   5.727   2.681  14.888  1.5113  1.3219 -0.3450
16921TIP3   OH272253   5.445   3.845  16.737  0.5227 -0.5065  0.1232
16921TIP3    H172254   5.458   3.753  16.714  2.6779 -0.3485  0.6209
16921TIP3    H272255   5.380   3.877  16.674 -0.2667 -2.3600 -0.0276
16922TIP3   OH272256   4.976   3.240  12.152 -0.4416  0.0458 -0.1281
16922TIP3    H172257   5.027   3.307  12.198  1.1095 -0.4821 -1.0472
16922TIP3    H272258   4.916   3.206  12.219 -0.9838  2.0543  0.4467
16923TIP3   OH272259   3.938   5.807   4.643  0.5142  0.4064 -0.0376
16923TIP3    H172260   4.008   5.829   4.704  0.3912 -1.3500  0.7650
16923TIP3    H272261   3.862   5.854   4.677  0.7244  0.3795  0.4756
16924TIP3   OH272262   2.626   0.551  13.992  0.2807  0.4482 -0.0096
16924TIP3    H172263   2.697   0.510  13.943 -0.0837  1.0884 -1.1210
16924TIP3    H272264   2.669   0.607  14.056  0.7795  1.2543 -1.0423
16925TIP3   OH272265   1.790   1.965   1.440 -0.3625  0.2031  0.0878
16925TIP3    H172266   1.707   1.968   1.487 -0.5497 -1.4482 -0.0892
16925TIP3    H272267   1.779   2.024   1.366 -1.7517 -0.7876 -0.5091
16926TIP3   OH272268   1.653   1.444  16.305 -0.0126 -0.2916 -0.0084
16926TIP3    H172269   1.573   1.463  16.256  0.8231  1.4040 -0.7915
16926TIP3    H272270   1.713   1.408  16.240  0.8493  1.2702 -0.1224
16927TIP3   OH272271   4.441   6.704  11.425  0.3326  0.3976 -0.0024
16927TIP3    H172272   4.436   6.797  11.445 -0.8209  0.2592  0.4236
16927TIP3    H272273   4.533   6.682  11.436  0.4120  1.2293  1.1372
16928TIP3   OH272274   6.193   0.056   0.325  0.3944 -0.2625 -0.1825
16928TIP3    H172275   6.162   0.033   0.238 -0.6782  0.4940 -0.0063
16928TIP3    H272276   6.240   0.138   0.313 -0.1198  0.0615  0.0226
16929TIP3   OH272277   1.943   6.712  16.176  0.1553 -0.0155  0.1434
16929TIP3    H172278   1.896   6.770  16.235 -0.1786 -0.7425  0.6095
16929TIP3    H272279   2.016   6.679  16.228 -0.2397 -0.7937  0.2169
16930TIP3   OH272280   4.361   2.154  15.259  0.2738  0.0428  0.2981
16930TIP3    H172281   4.391   2.127  15.345  0.6370 -0.0772  0.1333
16930TIP3    H272282   4.432   2.207  15.224  0.1208  0.1042  0.0812
16931TIP3   OH272283   2.312   1.539   4.131  0.1303  0.0294 -0.3553
16931TIP3    H172284   2.293   1.602   4.200  0.9977 -1.2976  1.1126
16931TIP3    H272285   2.395   1.569   4.093  1.4906 -1.2265  1.5590
16932TIP3   OH272286   1.297   2.822   1.369 -0.1536  0.0673  0.0591
16932TIP3    H172287   1.209   2.815   1.333 -0.3590  0.3815  0.4992
16932TIP3    H272288   1.343   2.745   1.335  0.0272  1.0129 -1.9374
16933TIP3   OH272289   0.019   6.606  15.905  0.1737 -0.0349 -0.4061
16933TIP3    H172290  -0.076   6.608  15.896  0.3823  1.9547 -2.6423
16933TIP3    H272291   0.041   6.690  15.946  0.8142 -1.3830  2.0816
16934TIP3   OH272292   0.177   6.471   2.219  0.5083  0.0369 -0.0544
16934TIP3    H172293   0.100   6.524   2.240 -0.5701 -1.1289 -0.9921
16934TIP3    H272294   0.174   6.462   2.124  2.2233  0.5890 -0.1835
16935TIP3   OH272295   2.388   3.565  12.180 -0.0745 -0.0305  0.5953
16935TIP3    H172296   2.354   3.610  12.103 -0.6380  0.4185  1.0952
16935TIP3    H272297   2.467   3.615  12.203  0.3406 -0.4306  0.0589
16936TIP3   OH272298   4.118   6.727   2.101  0.3686 -0.4842  0.3199
16936TIP3    H172299   4.095   6.644   2.060  0.6324  0.0090 -0.8434
16936TIP3    H272300   4.114   6.709   2.195 -0.9236 -1.4423  0.0975
16937TIP3   OH272301   2.046   3.213   1.626 -0.8066  0.0024 -0.0613
16937TIP3    H172302   2.141   3.203   1.635 -0.8695  0.1855  0.8609
16937TIP3    H272303   2.014   3.123   1.614 -0.5752 -0.1206  0.2182
16938TIP3   OH272304   5.390   3.741  17.032  0.0285  0.0383 -0.3483
16938TIP3    H172305   5.371   3.829  17.063 -0.5504 -0.6499  1.3154
16938TIP3    H272306   5.480   3.724  17.060 -0.1971 -0.2523  0.2262
16939TIP3   OH272307   4.371   4.927  14.321  0.0447  0.1425 -0.2998
16939TIP3    H172308   4.423   4.887  14.251  1.6490  2.0597 -0.2557
16939TIP3    H272309   4.384   4.869  14.396 -0.4462 -1.1020 -1.1516
16940TIP3   OH272310   1.405   5.421  13.337 -0.8840 -0.0177  0.4466
16940TIP3    H172311   1.392   5.411  13.242  0.2976 -1.0970  0.3837
16940TIP3    H272312   1.372   5.509  13.356  4.0406  2.6277 -2.0361
16941TIP3   OH272313   1.374   6.710   2.352 -0.4785  0.1810  0.3553
16941TIP3    H172314   1.280   6.713   2.338 -0.3317 -1.5967 -1.1046
16941TIP3    H272315   1.384   6.659   2.432 -0.7725  1.1549  1.0317
16942TIP3   OH272316   4.244   4.751   1.411  0.3495 -0.3387  0.5775
16942TIP3    H172317   4.330   4.749   1.370  0.3303 -1.7449  0.5848
16942TIP3    H272318   4.185   4.781   1.342  0.5302 -1.3640 -0.0338
16943TIP3   OH272319   3.055   4.358  14.171 -0.6256  0.2304  0.6305
16943TIP3    H172320   3.013   4.432  14.128 -1.7931  0.3963  1.9997
16943TIP3    H272321   3.139   4.393  14.202 -0.3705  0.4695 -0.3156
16944TIP3   OH272322   6.280   3.616  14.895  0.5405 -0.3276  0.5737
16944TIP3    H172323   6.374   3.599  14.887  0.3516 -1.3892  0.4889
16944TIP3    H272324   6.244   3.533  14.925 -0.7315 -0.7166 -1.9545
16945TIP3   OH272325   0.700   3.357   2.707 -0.1823 -0.3607  0.0993
16945TIP3    H172326   0.742   3.282   2.667  1.9214  0.8085  0.0195
16945TIP3    H272327   0.666   3.408   2.634 -1.4397 -1.1162  0.1441
16946TIP3   OH272328   1.162   0.757  16.524  0.3139  0.0600 -0.4185
16946TIP3    H172329   1.168   0.817  16.450 -0.0694  0.3375 -0.2255
16946TIP3    H272330   1.182   0.810  16.600 -1.8601  0.4043 -0.0406
16947TIP3   OH272331   4.531   2.103  11.927  0.2442 -0.0130 -0.0870
16947TIP3    H172332   4.519   2.101  12.022  2.4484  0.5338  0.2286
16947TIP3    H272333   4.622   2.128  11.915  0.4796 -1.7616 -2.3309
16948TIP3   OH272334   1.287   2.827  14.761 -0.3422 -0.3243  0.0839
16948TIP3    H172335   1.215   2.822  14.698 -0.7225  0.1620  0.4817
16948TIP3    H272336   1.353   2.882  14.717 -0.4890 -0.2209 -0.0085
16949TIP3   OH272337   1.855   1.513   6.208  0.1656  0.5005 -0.3680
16949TIP3    H172338   1.889   1.471   6.128  1.5740  1.8328 -0.4876
16949TIP3    H272339   1.901   1.469   6.279  0.3508  0.6418 -0.3997
16950TIP3   OH272340   0.042   4.235  14.518  0.0146 -0.2212 -0.3633
16950TIP3    H172341   0.120   4.192  14.481 -1.0788 -1.8569 -0.8415
16950TIP3    H272342  -0.027   4.169  14.510 -1.0848  0.6816  1.3829
16951TIP3   OH272343   4.530   1.444   1.398 -0.0442  0.2393 -0.2706
16951TIP3    H172344   4.598   1.420   1.334 -0.4709  1.0532 -1.0551
16951TIP3    H272345   4.524   1.540   1.390  1.0648  0.5361  2.1881
16952TIP3   OH272346   1.500   3.597   2.348  0.1657 -0.1501  0.1869
16952TIP3    H172347   1.525   3.557   2.264 -1.0965  0.3825 -0.4550
16952TIP3    H272348   1.578   3.586   2.403  1.3765  0.3522 -1.3624
16953TIP3   OH272349   6.704   6.529   5.892  0.3787  0.0632  0.5501
16953TIP3    H172350   6.648   6.457   5.862  0.0885  1.4579 -2.4184
16953TIP3    H272351   6.657   6.566   5.967 -0.8609 -1.0944  0.3677
16954TIP3   OH272352   0.813   6.347  10.859 -0.9772  0.0785  0.2853
16954TIP3    H172353   0.830   6.270  10.913 -0.6480  0.0164  0.0974
16954TIP3    H272354   0.745   6.319  10.798 -1.2140  0.0898  0.5450
16955TIP3   OH272355   0.753   1.064  16.136 -0.1595  0.1400 -0.2057
16955TIP3    H172356   0.670   1.016  16.131  0.5048 -0.9492 -1.0840
16955TIP3    H272357   0.780   1.056  16.227 -0.3089 -0.7626 -0.2346
16956TIP3   OH272358   1.855   5.152   1.589  0.3607 -0.4348  0.1186
16956TIP3    H172359   1.875   5.228   1.535  0.5196 -1.8437 -1.8781
16956TIP3    H272360   1.939   5.109   1.602  0.1577 -0.6974  0.5701
16957TIP3   OH272361   0.047   5.017  17.018  0.2125  0.1721  0.1701
16957TIP3    H172362   0.117   4.952  17.020  0.0947  0.0520  0.3585
16957TIP3    H272363   0.077   5.088  17.075  0.3498  0.2968 -0.0530
16958TIP3   OH272364   6.117   2.882   5.943 -0.1359  0.0550  0.5579
16958TIP3    H172365   6.054   2.838   5.885  0.2879 -0.5803  0.5749
16958TIP3    H272366   6.064   2.943   5.994 -0.5737  0.3397 -0.2272
16959TIP3   OH272367   2.960   2.657  14.772 -0.0140 -0.3791  0.6461
16959TIP3    H172368   2.961   2.751  14.790  0.4657 -0.3229  0.3176
16959TIP3    H272369   2.939   2.616  14.856  2.0245 -0.1076  1.3011
16960TIP3   OH272370   4.961   4.435  15.141  0.1788 -0.0156 -0.0929
16960TIP3    H172371   4.907   4.471  15.212 -0.3584 -0.8673 -0.0660
16960TIP3    H272372   5.026   4.381  15.186 -1.3283 -2.1031 -0.3225
16961TIP3   OH272373   2.286   4.690   6.118  1.2250 -0.1536  0.5085
16961TIP3    H172374   2.261   4.760   6.178 -0.7115 -0.0335 -0.3979
16961TIP3    H272375   2.330   4.626   6.173  2.3245  1.4206  1.4889
16962TIP3   OH272376   2.817   3.623  11.280 -0.5518  0.7100  0.0258
16962TIP3    H172377   2.788   3.582  11.199  0.0148  1.2034 -0.4316
16962TIP3    H272378   2.773   3.575  11.349  0.6315 -1.1235 -0.4679
16963TIP3   OH272379   5.009   0.648   1.619  0.2885 -0.2566 -0.1054
16963TIP3    H172380   5.053   0.720   1.573  2.8314 -1.7847 -0.1690
16963TIP3    H272381   5.053   0.569   1.587 -1.1284 -1.7033  1.4337
16964TIP3   OH272382   3.049   0.326   6.069  0.1169  0.1368 -0.2092
16964TIP3    H172383   3.138   0.359   6.063  0.1900 -0.3305 -2.0065
16964TIP3    H272384   3.033   0.315   6.163  2.0405 -0.0155  0.1106
16965TIP3   OH272385   0.231   4.202  13.207  0.6250  0.4920  0.1519
16965TIP3    H172386   0.191   4.194  13.294 -0.0964 -1.2073 -0.3084
16965TIP3    H272387   0.238   4.296  13.192 -1.9979  0.8247  0.8177
16966TIP3   OH272388   5.589   3.736  16.381  0.2806 -0.2496  0.4057
16966TIP3    H172389   5.565   3.688  16.460 -0.3376 -0.7759 -0.1065
16966TIP3    H272390   5.506   3.757  16.339  0.5055  1.7502  0.8992
16967TIP3   OH272391   1.240   3.185   0.661  0.1454  0.2436  0.2875
16967TIP3    H172392   1.156   3.155   0.698 -0.4219 -0.8591 -1.8088
16967TIP3    H272393   1.226   3.278   0.643 -0.0523  0.4534  1.4870
16968TIP3   OH272394   4.585   4.038  11.650 -0.2951 -0.2081  0.0675
16968TIP3    H172395   4.537   3.964  11.613 -1.8063  0.6585  0.2915
16968TIP3    H272396   4.543   4.054  11.734  1.1601 -0.2005  0.8026
16969TIP3   OH272397   4.302   4.460  15.951 -0.1314  0.3645  0.3621
16969TIP3    H172398   4.301   4.378  15.902 -1.8577  1.2956 -1.1992
16969TIP3    H272399   4.361   4.516  15.901 -2.4486  1.5569 -1.1028
16970TIP3   OH272400   0.854   0.841   6.354  0.1776  0.0612 -0.0797
16970TIP3    H172401   0.918   0.771   6.367  0.0258 -0.2940 -1.1313
16970TIP3    H272402   0.787   0.826   6.420 -0.1565 -1.1602 -0.6810
16971TIP3   OH272403   5.254   0.256  15.110 -0.5990 -0.4310 -0.4828
16971TIP3    H172404   5.244   0.179  15.055  1.8735 -1.0681 -0.0810
16971TIP3    H272405   5.263   0.222  15.199 -2.2267  0.4752  0.0579
16972TIP3   OH272406   6.382   0.498  17.260 -0.0944 -0.3743  0.0623
16972TIP3    H172407   6.361   0.417  17.214  0.5162 -0.7750  0.4891
16972TIP3    H272408   6.303   0.552  17.249 -0.1292 -0.6350 -1.0505
16973TIP3   OH272409   3.155   2.723   1.752  0.6818  0.1958  0.5387
16973TIP3    H172410   3.126   2.811   1.774 -1.1272 -0.4536  0.8716
16973TIP3    H272411   3.111   2.667   1.816  1.3941 -0.9921  0.0023
16974TIP3   OH272412   0.057   2.506   5.407  0.0854  1.0845  0.3151
16974TIP3    H172413   0.140   2.458   5.406  1.2521  3.0639  0.4593
16974TIP3    H272414   0.068   2.574   5.474 -1.8558  1.0431  0.7330
16975TIP3   OH272415   4.545   0.452  12.538 -0.0700 -0.0235 -0.2323
16975TIP3    H172416   4.522   0.545  12.543  0.0137 -0.0668  0.9067
16975TIP3    H272417   4.513   0.415  12.620 -0.0362 -0.9891 -0.6537
16976TIP3   OH272418   4.560   1.681   5.484  0.3294 -0.1732  0.6776
16976TIP3    H172419   4.651   1.653   5.493  0.5555  0.7971  1.4880
16976TIP3    H272420   4.557   1.766   5.528 -0.4367  0.8736 -1.3407
16977TIP3   OH272421   5.200   0.762  16.659 -0.1674  0.2778 -0.6351
16977TIP3    H172422   5.277   0.707  16.670  0.4193  1.4883  1.5645
16977TIP3    H272423   5.144   0.740  16.734 -0.1340  2.3016  0.0059
16978TIP3   OH272424   2.754   5.875   0.584 -0.5652  0.4043  0.0980
16978TIP3    H172425   2.741   5.845   0.673 -1.5003  0.6377  0.0394
16978TIP3    H272426   2.766   5.970   0.591  0.4394  0.2922  0.0783
16979TIP3   OH272427   3.547   2.821  11.109  0.5392  0.1685 -0.4482
16979TIP3    H172428   3.565   2.889  11.173  0.8047  2.1381 -2.5258
16979TIP3    H272429   3.566   2.862  11.024 -0.4504 -2.1084 -1.8394
16980TIP3   OH272430   4.043   1.123  16.200  0.4913 -0.0402  0.3543
16980TIP3    H172431   4.085   1.051  16.246  0.8640  0.4427  0.7840
16980TIP3    H272432   3.959   1.134  16.244  0.5150 -0.0892  0.4108
16981TIP3   OH272433   1.368   3.546   0.249 -0.2263  0.1182  0.1062
16981TIP3    H172434   1.435   3.489   0.287  0.3434  0.7035 -0.0221
16981TIP3    H272435   1.402   3.569   0.163 -0.7051  0.2303 -0.0578
16982TIP3   OH272436   5.897   1.346   5.499  0.4669 -0.2533  0.4962
16982TIP3    H172437   5.945   1.326   5.579  0.6014 -1.8690  0.0135
16982TIP3    H272438   5.963   1.382   5.440  0.4736  0.4111  0.8956
16983TIP3   OH272439   6.083   4.730  14.230 -0.3036  0.8128  0.3755
16983TIP3    H172440   6.046   4.642  14.239 -1.1329  1.1696  0.5402
16983TIP3    H272441   6.055   4.759  14.143  1.4919  0.2287 -0.4321
16984TIP3   OH272442   4.286   6.593   0.231 -0.0554 -0.5149  0.2365
16984TIP3    H172443   4.271   6.532   0.159  0.2645  1.1968 -1.2989
16984TIP3    H272444   4.267   6.542   0.310  0.2386 -2.6012 -1.0155
16985TIP3   OH272445   6.445   3.539   0.333  0.9011  0.1048  0.2255
16985TIP3    H172446   6.527   3.491   0.344  0.1413 -0.8587  1.6992
16985TIP3    H272447   6.416   3.516   0.244  1.1344 -1.2372  0.4850
16986TIP3   OH272448   3.961   2.614   1.374 -0.2769 -0.0779  0.3043
16986TIP3    H172449   4.039   2.620   1.430 -0.9797 -0.6128  1.3600
16986TIP3    H272450   3.988   2.654   1.291  0.2718  2.3168  1.5748
16987TIP3   OH272451   0.290   3.807  12.370  0.2196 -0.1302 -0.5415
16987TIP3    H172452   0.341   3.734  12.404 -0.9275 -0.8865 -0.3952
16987TIP3    H272453   0.231   3.830  12.442 -0.2474  0.1422 -1.0069
16988TIP3   OH272454   3.538   5.419  15.542  0.7998 -0.5077  0.3010
16988TIP3    H172455   3.570   5.426  15.632  0.0093  0.0074  0.5459
16988TIP3    H272456   3.587   5.487  15.494 -0.8023  1.1644  0.9446
16989TIP3   OH272457   3.760   0.874  12.954  0.1378 -0.6172 -0.0442
16989TIP3    H172458   3.777   0.959  12.913  1.0817 -1.4184 -1.3232
16989TIP3    H272459   3.770   0.891  13.048  0.4826  0.6529 -0.2957
16990TIP3   OH272460   3.136   5.018   4.353 -0.2439 -0.3975  0.1536
16990TIP3    H172461   3.135   4.940   4.409 -0.6473  0.8127  1.8480
16990TIP3    H272462   3.044   5.034   4.333 -0.1882 -0.1130  0.1304
16991TIP3   OH272463   4.408   6.089  16.721  0.3204  0.5633 -0.2323
16991TIP3    H172464   4.461   6.012  16.699  1.5539  1.8346 -1.8056
16991TIP3    H272465   4.467   6.147  16.768 -0.7428  0.3616  1.3896
16992TIP3   OH272466   0.130   0.861  16.818  0.1572  0.3221  0.0687
16992TIP3    H172467   0.111   0.863  16.912  1.2403 -1.8933  0.3643
16992TIP3    H272468   0.049   0.828  16.779  0.6645 -1.5022  0.5255
16993TIP3   OH272469   5.618   4.626   5.096  0.0489  0.3917  0.2094
16993TIP3    H172470   5.563   4.549   5.110  0.1522  0.0049 -1.4391
16993TIP3    H272471   5.556   4.698   5.086 -0.0956  0.2761  0.2708
16994TIP3   OH272472   0.310   0.281   0.736  0.3109  0.2328 -0.1064
16994TIP3    H172473   0.393   0.280   0.784  0.0217  1.7559  0.4582
16994TIP3    H272474   0.243   0.285   0.805 -0.1735  0.6943 -0.6054
16995TIP3   OH272475   2.139   5.577   4.989  0.4356 -0.3711 -0.4279
16995TIP3    H172476   2.180   5.524   4.920  2.0256  1.0634 -0.6090
16995TIP3    H272477   2.206   5.641   5.013 -0.2736 -0.5745  2.1684
16996TIP3   OH272478   6.528   3.642  15.343 -0.2670 -0.4063 -0.2547
16996TIP3    H172479   6.479   3.581  15.398 -0.7726 -0.5942 -0.9084
16996TIP3    H272480   6.511   3.728  15.380 -1.0635 -0.4750 -0.4615
16997TIP3   OH272481   3.704   6.712  16.260 -0.4971  0.0301 -0.1795
16997TIP3    H172482   3.765   6.645  16.228 -0.9120 -0.2397 -0.3968
16997TIP3    H272483   3.697   6.695  16.354 -0.3368 -0.0187 -0.1742
16998TIP3   OH272484   5.736   5.334  16.041 -0.0563 -0.3347  0.8519
16998TIP3    H172485   5.645   5.352  16.021  0.6370  2.1964 -0.2486
16998TIP3    H272486   5.777   5.317  15.956  0.9173  0.6462  1.1092
16999TIP3   OH272487   5.496   6.101   6.107  0.0396  0.0916  0.3725
16999TIP3    H172488   5.543   6.068   6.030  0.5599 -0.7867  1.0513
16999TIP3    H272489   5.427   6.157   6.071  0.0464 -0.6036 -0.7481
17000TIP3   OH272490   3.561   3.996   3.560  0.2014  0.4066  0.7709
17000TIP3    H172491   3.602   3.915   3.532 -0.8565  0.1114  0.0679
17000TIP3    H272492   3.483   3.968   3.607 -1.9654  1.0673 -2.3014
17001TIP3   OH272493   0.197   0.581   2.464  0.3935 -0.6684  0.7245
17001TIP3    H172494   0.242   0.613   2.542  1.4873 -1.6022  0.4878
17001TIP3    H272495   0.247   0.505   2.436 -1.0313 -1.4181  0.1398
17002TIP3   OH272496   3.350   5.025   4.921 -0.1710 -0.3838 -0.2936
17002TIP3    H172497   3.315   5.087   4.857 -0.7141 -0.6960 -0.3031
17002TIP3    H272498   3.436   5.000   4.885  1.0094  1.9574  0.7730
17003TIP3   OH272499   3.641   0.083   0.877  0.0997 -0.2457 -0.1261
17003TIP3    H172500   3.684  -0.002   0.874  2.6659  0.9621  0.9900
17003TIP3    H272501   3.703   0.143   0.836 -1.9311  1.0112 -1.4388
17004TIP3   OH272502   2.112   5.637   2.292  0.2313 -0.2790 -0.3845
17004TIP3    H172503   2.196   5.590   2.292  0.1974 -0.3450 -0.0103
17004TIP3    H272504   2.131   5.719   2.337  0.8093  1.0352 -2.9232
17005TIP3   OH272505   0.830   3.560   0.250  0.1655  0.1787  0.1314
17005TIP3    H172506   0.779   3.479   0.238  2.6252 -1.3748 -0.0767
17005TIP3    H272507   0.826   3.577   0.344  1.3541 -1.3600  0.4747
17006TIP3   OH272508   6.130   4.663   4.750 -0.5735  0.2548  0.1434
17006TIP3    H172509   6.122   4.713   4.669  2.1228  0.4536 -0.0525
17006TIP3    H272510   6.134   4.730   4.819  0.7291  0.2503  0.0887
17007TIP3   OH272511   5.777   6.569  15.675  0.2479  0.5865 -0.3380
17007TIP3    H172512   5.779   6.473  15.678 -2.2184  0.4858 -0.3904
17007TIP3    H272513   5.733   6.594  15.757 -0.6303  1.5786 -1.1065
17008TIP3   OH272514   2.283   4.871   3.098 -0.5869  0.4988  0.3150
17008TIP3    H172515   2.284   4.808   3.170 -1.1810  1.1321  0.8801
17008TIP3    H272516   2.241   4.825   3.026  3.1162 -1.3963 -0.8021
17009TIP3   OH272517   4.426   1.473  15.983  0.3160 -0.0477 -0.1456
17009TIP3    H172518   4.399   1.381  15.979  1.1557 -0.4082  1.8914
17009TIP3    H272519   4.354   1.517  16.028  0.8545 -0.0923  0.7605
17010TIP3   OH272520   0.531   6.421   0.668  0.1952 -0.0702 -0.2890
17010TIP3    H172521   0.497   6.406   0.757 -0.9260 -0.1836 -0.7272
17010TIP3    H272522   0.459   6.463   0.622  0.1561 -1.5485 -1.6284
17011TIP3   OH272523   3.591   6.370  14.609 -0.7004 -0.7475 -0.1838
17011TIP3    H172524   3.595   6.452  14.560  0.7137 -1.2688 -0.9617
17011TIP3    H272525   3.548   6.394  14.691  1.4453  1.2226  0.4459
17012TIP3   OH272526   3.968   3.363   1.573  0.6066 -0.0730  0.1299
17012TIP3    H172527   4.013   3.329   1.496  1.2918 -2.6143  1.5712
17012TIP3    H272528   4.038   3.389   1.633  0.1269 -0.3287  0.8190
17013TIP3   OH272529   0.633   1.721   0.421  0.2136  0.0586  0.2174
17013TIP3    H172530   0.625   1.755   0.332 -0.8738  2.7454  1.2889
17013TIP3    H272531   0.727   1.721   0.439  0.2794  1.9618 -0.0501
17014TIP3   OH272532   3.064   0.300  16.313 -0.0007 -0.2754  0.5036
17014TIP3    H172533   3.066   0.207  16.288  2.9060 -0.4570  1.3071
17014TIP3    H272534   3.091   0.301  16.404  0.4121  1.4358  0.3774
17015TIP3   OH272535   4.671   1.133  10.962  0.8657  0.3878 -0.1831
17015TIP3    H172536   4.595   1.078  10.946 -0.2423  1.3701  1.5284
17015TIP3    H272537   4.645   1.220  10.930  1.0348  0.8556  0.9075
17016TIP3   OH272538   1.886   5.140   3.622  0.5257  0.0396 -0.1483
17016TIP3    H172539   1.977   5.143   3.593  0.8641 -1.7878  0.6650
17016TIP3    H272540   1.864   5.047   3.624 -1.0128  0.3997  0.7371
17017TIP3   OH272541   6.045   1.955  12.907  0.7333 -0.1016  0.0109
17017TIP3    H172542   6.024   1.938  12.815  1.9725 -2.6094  0.1317
17017TIP3    H272543   6.064   1.868  12.943  3.7642  1.2160  1.7645
17018TIP3   OH272544   5.387   0.946  12.910 -0.6048 -0.3463  0.5726
17018TIP3    H172545   5.312   0.997  12.879 -0.7195 -1.1684 -0.5317
17018TIP3    H272546   5.406   0.885  12.839  0.8715 -0.4150  1.0060
17019TIP3   OH272547   2.583   2.552   5.366 -0.0854  0.4651  0.6464
17019TIP3    H172548   2.540   2.622   5.316 -0.9262 -0.4260  0.0953
17019TIP3    H272549   2.554   2.566   5.456 -1.7034 -0.2117  0.2594
17020TIP3   OH272550   2.241   4.867   3.948  0.6327 -0.1039 -0.2449
17020TIP3    H172551   2.180   4.896   4.016  1.5909  1.6078 -0.0826
17020TIP3    H272552   2.237   4.772   3.952 -2.0092 -0.0263 -0.2421
17021TIP3   OH272553   1.529   0.717   4.084 -0.3501  0.0530  0.4858
17021TIP3    H172554   1.613   0.697   4.127 -0.4165  0.3437  0.7536
17021TIP3    H272555   1.532   0.811   4.069 -1.2413  0.3084  1.8247
17022TIP3   OH272556   3.829   1.245   0.480  0.0272 -0.5623  0.3821
17022TIP3    H172557   3.828   1.306   0.554  0.7119 -0.5213  0.3638
17022TIP3    H272558   3.778   1.289   0.412  0.3917 -0.0722  0.4225
17023TIP3   OH272559   5.546   6.428   2.858  0.2563 -0.0618  0.1896
17023TIP3    H172560   5.564   6.406   2.767  0.9862  0.1581  0.2792
17023TIP3    H272561   5.592   6.511   2.872  0.9029 -0.5516  1.0208
17024TIP3   OH272562   0.469   2.917   1.699 -0.4304  0.3374  0.2322
17024TIP3    H172563   0.416   2.922   1.779  0.0168 -1.1710  0.6297
17024TIP3    H272564   0.444   2.834   1.659  1.4753 -0.2996  0.3151
17025TIP3   OH272565   1.348   4.748   1.474 -0.0351  0.2988 -0.4938
17025TIP3    H172566   1.316   4.799   1.548  0.6519 -0.3569  0.2747
17025TIP3    H272567   1.410   4.805   1.430  2.0778 -0.4572  1.3934
17026TIP3   OH272568   6.276   6.193  14.085 -0.4881  0.4692  0.1165
17026TIP3    H172569   6.183   6.183  14.061 -0.6030  0.0512  0.7436
17026TIP3    H272570   6.322   6.195  14.001 -0.9457 -0.5431 -0.1627
17027TIP3   OH272571   3.069   1.571   3.347 -0.2684 -0.3052  0.2683
17027TIP3    H172572   3.098   1.492   3.392  0.2268  0.5503  1.4724
17027TIP3    H272573   2.980   1.551   3.319 -0.2897 -1.1284  0.9143
17028TIP3   OH272574   2.790   1.037  16.804  0.5928  0.6155  0.3571
17028TIP3    H172575   2.832   1.080  16.878 -0.2022  0.7786  0.7196
17028TIP3    H272576   2.696   1.044  16.822  0.4021  0.4077 -0.5280
17029TIP3   OH272577   1.910   0.586   6.267  0.8643  0.2368  0.6785
17029TIP3    H172578   1.901   0.571   6.361 -1.2270 -1.3983  0.2511
17029TIP3    H272579   1.964   0.512   6.236  1.3876  0.6654  0.5639
17030TIP3   OH272580   3.603   5.521  12.193 -0.1467 -0.6078 -0.3374
17030TIP3    H172581   3.604   5.438  12.144 -0.2150 -0.1605 -1.1005
17030TIP3    H272582   3.540   5.506  12.263  1.9805 -2.2070  1.2963
17031TIP3   OH272583   5.398   3.899  14.203  0.5467  0.1429  0.0686
17031TIP3    H172584   5.324   3.955  14.226 -0.1019 -0.5369 -0.3320
17031TIP3    H272585   5.422   3.928  14.115  0.7657  0.3768  0.2055
17032TIP3   OH272586   1.253   1.456  13.935 -0.4443  0.1950  0.1786
17032TIP3    H172587   1.172   1.501  13.959 -0.5023  0.9569 -1.3320
17032TIP3    H272588   1.254   1.459  13.839  1.2859  0.0647  0.1707
17033TIP3   OH272589   3.343   1.289   6.017  0.4965 -0.0643 -0.3666
17033TIP3    H172590   3.278   1.239   6.066 -0.0635 -0.3495 -1.3732
17033TIP3    H272591   3.422   1.236   6.021 -0.0724 -1.0165 -1.3521
17034TIP3   OH272592   5.012   0.116  14.214 -0.2754 -0.7310  0.1601
17034TIP3    H172593   5.092   0.148  14.172 -0.5829  1.6251  1.2811
17034TIP3    H272594   4.944   0.177  14.187 -1.1336 -1.0730  1.4562
17035TIP3   OH272595   4.848   3.755   3.861 -0.1270 -0.1094  0.2323
17035TIP3    H172596   4.934   3.752   3.904  0.2372  2.5904 -0.2321
17035TIP3    H272597   4.867   3.749   3.768 -0.2993  2.0155  0.0405
17036TIP3   OH272598   1.107   5.413  11.311 -0.4830  0.2819  0.7854
17036TIP3    H172599   1.130   5.431  11.402 -0.4835  1.1052  0.6238
17036TIP3    H272600   1.059   5.330  11.314  0.4645 -0.2607  1.4018
17037TIP3   OH272601   6.501   2.291   3.535 -0.2966  0.6517  0.4030
17037TIP3    H172602   6.496   2.222   3.468 -1.4346  1.3308 -0.2176
17037TIP3    H272603   6.489   2.373   3.486 -0.7640  1.1790  1.3925
17038TIP3   OH272604   5.492   6.640  16.190 -0.0055 -0.4216  0.6847
17038TIP3    H172605   5.465   6.563  16.240 -0.1609  0.3961  1.8916
17038TIP3    H272606   5.504   6.708  16.257  0.6079  0.4575 -0.3150
17039TIP3   OH272607   0.423   4.142   0.921  0.2543  0.4993 -0.1396
17039TIP3    H172608   0.364   4.171   0.991  2.1465  0.0332  1.6918
17039TIP3    H272609   0.386   4.058   0.893 -1.9430  1.8692 -1.4809
17040TIP3   OH272610   2.625   6.763  16.729 -0.1916 -1.0188  0.1038
17040TIP3    H172611   2.640   6.838  16.785 -0.5143 -2.1937  1.7938
17040TIP3    H272612   2.532   6.768  16.706  0.5093  0.9619 -2.5995
17041TIP3   OH272613   2.195   0.101   6.652  0.5823  0.3197 -0.5395
17041TIP3    H172614   2.183   0.159   6.728  0.4907  0.3461 -0.5740
17041TIP3    H272615   2.147   0.021   6.676 -0.5913  0.8381 -1.1420
17042TIP3   OH272616   2.220   0.240  12.649  0.1027 -0.3585  0.5789
17042TIP3    H172617   2.295   0.299  12.654  0.5812 -0.9969  1.1512
17042TIP3    H272618   2.143   0.298  12.651  0.5509  0.2197  1.6479
17043TIP3   OH272619   5.533   1.843   1.716  0.3050  0.2001  0.2681
17043TIP3    H172620   5.490   1.763   1.747  0.7836  0.2581  1.1056
17043TIP3    H272621   5.616   1.845   1.765  0.8351  0.5733 -0.6464
17044TIP3   OH272622   2.746   1.996  14.853 -0.3280 -0.2156 -0.0743
17044TIP3    H172623   2.651   2.007  14.864 -0.2847  0.0220  0.0641
17044TIP3    H272624   2.759   1.901  14.852 -0.3569 -0.2521  1.7238
17045TIP3   OH272625   3.949   0.090  12.577  0.5197 -0.2762  0.4020
17045TIP3    H172626   3.935   0.099  12.671 -1.8025 -1.5890  0.2404
17045TIP3    H272627   4.037   0.122  12.562 -0.0101  2.3631  2.6361
17046TIP3   OH272628   1.529   2.375  12.162 -0.4657 -0.4710  0.1558
17046TIP3    H172629   1.589   2.447  12.181 -0.4264 -0.8476  1.5250
17046TIP3    H272630   1.580   2.316  12.106 -0.2093  0.1367 -0.2636
17047TIP3   OH272631   2.800   1.098  13.474 -0.2894 -0.0203 -0.3448
17047TIP3    H172632   2.807   1.060  13.562 -0.1953  0.5684 -0.0971
17047TIP3    H272633   2.747   1.035  13.425 -0.6662 -0.1634  0.2404
17048TIP3   OH272634   4.044   3.497  15.146  0.4531 -0.4951 -0.2054
17048TIP3    H172635   4.025   3.489  15.240  1.4797 -0.3504  0.0182
17048TIP3    H272636   4.096   3.578  15.139 -0.1104 -0.1947 -0.9749
17049TIP3   OH272637   3.788   3.572   2.853  0.2359 -0.5272 -0.0127
17049TIP3    H172638   3.740   3.627   2.792  1.1270  0.2653 -0.0099
17049TIP3    H272639   3.862   3.626   2.882  1.3337 -1.8370 -0.2934
17050TIP3   OH272640   4.350   5.344   5.914 -0.6204  0.1173 -0.3866
17050TIP3    H172641   4.259   5.347   5.887 -0.3155 -1.2415 -1.6185
17050TIP3    H272642   4.396   5.300   5.842  0.8506 -0.0185  0.5973
17051TIP3   OH272643   4.242   2.790  13.283  0.6863  0.9945  0.1244
17051TIP3    H172644   4.171   2.853  13.273  1.4373  1.8645  0.1960
17051TIP3    H272645   4.267   2.797  13.375  0.6348  0.4343  0.1830
17052TIP3   OH272646   2.040   1.505  16.585  0.0518  0.1278  0.3974
17052TIP3    H172647   1.967   1.466  16.537  0.6887  1.0798 -1.4044
17052TIP3    H272648   2.013   1.595  16.600  0.0665 -0.0327  1.4127
17053TIP3   OH272649   5.161   0.672   3.013 -0.2623  0.3731 -0.2135
17053TIP3    H172650   5.159   0.718   3.097  2.0814 -0.2656  0.2334
17053TIP3    H272651   5.122   0.587   3.031 -0.4627  0.5144  0.0272
17054TIP3   OH272652   4.509   1.639   1.716  0.0954  0.3896  0.5278
17054TIP3    H172653   4.521   1.716   1.659  1.0838 -1.0784 -1.3266
17054TIP3    H272654   4.594   1.628   1.758 -0.1818  0.5758  1.1308
17055TIP3   OH272655   5.566   1.695   0.392 -0.0327 -0.2702  0.0331
17055TIP3    H172656   5.482   1.652   0.383 -0.2587  0.2274 -0.2600
17055TIP3    H272657   5.548   1.772   0.447  0.6654 -1.3816  1.8707
17056TIP3   OH272658   4.002   5.037   5.214  0.4364  0.1403 -0.5534
17056TIP3    H172659   3.951   5.116   5.228  1.2009  1.0927 -2.8511
17056TIP3    H272660   3.952   4.988   5.148  0.4185 -0.8837  0.2088
17057TIP3   OH272661   2.176   4.077   3.403 -0.2132 -0.1450 -0.0776
17057TIP3    H172662   2.228   4.050   3.328  1.0957 -0.5893  0.9776
17057TIP3    H272663   2.096   4.025   3.398 -0.2232 -0.0123 -1.2750
17058TIP3   OH272664   3.195   0.905   4.637  0.2843  0.0175 -0.1490
17058TIP3    H172665   3.203   0.864   4.723 -1.6663 -0.8887 -0.3861
17058TIP3    H272666   3.170   0.995   4.656 -2.9976 -0.9157  0.1918
17059TIP3   OH272667   5.721   2.723   1.989 -0.0478  0.4442 -0.2030
17059TIP3    H172668   5.637   2.699   1.951 -0.2807  0.7013  0.1506
17059TIP3    H272669   5.714   2.817   2.005 -0.1767  0.2285  1.0451
17060TIP3   OH272670   1.831   4.600   5.735 -0.1173 -0.4577  0.2641
17060TIP3    H172671   1.788   4.516   5.719 -0.1627 -0.7621  1.9115
17060TIP3    H272672   1.786   4.635   5.812  0.9261  0.3704  0.5024
17061TIP3   OH272673   1.873   2.604   3.922  0.0699  0.1868  0.0703
17061TIP3    H172674   1.792   2.564   3.890 -0.8782  0.3258  2.2418
17061TIP3    H272675   1.927   2.531   3.950 -0.0724  0.1972  0.3745
17062TIP3   OH272676   1.761   3.175   3.228  0.1039  0.4603  0.3250
17062TIP3    H172677   1.785   3.137   3.312  4.3414  1.6938 -0.2042
17062TIP3    H272678   1.791   3.112   3.163 -2.2468 -0.0222 -0.3433
17063TIP3   OH272679   5.864   5.750  12.898  0.5062  0.1960  0.7851
17063TIP3    H172680   5.784   5.796  12.921 -1.1044 -1.6682 -0.9335
17063TIP3    H272681   5.904   5.726  12.982 -2.6524 -2.1054  1.7034
17064TIP3   OH272682   5.534   0.285   4.442 -0.1635  0.2517  0.2554
17064TIP3    H172683   5.580   0.325   4.368 -2.5195  0.5170 -1.1362
17064TIP3    H272684   5.602   0.240   4.491  1.8815  2.2609 -0.6057
17065TIP3   OH272685   5.977   1.925   2.842 -0.0772 -0.1180  0.2084
17065TIP3    H172686   5.995   2.017   2.861 -0.5354 -0.3590  1.9395
17065TIP3    H272687   5.947   1.889   2.926 -3.2900 -1.0279 -1.2714
17066TIP3   OH272688   2.268   1.136   0.383 -0.2898  0.4768  0.0899
17066TIP3    H172689   2.354   1.114   0.419 -0.8666 -0.7230  0.7420
17066TIP3    H272690   2.266   1.093   0.298  0.0263  1.1022 -0.2397
17067TIP3   OH272691   3.957   0.276   1.263  0.3170 -0.4224  0.0614
17067TIP3    H172692   3.888   0.289   1.328 -1.6114 -0.0416 -2.0017
17067TIP3    H272693   4.038   0.287   1.312 -1.0967  2.1691  1.9632
17068TIP3   OH272694   5.916   0.307   3.990 -0.0313 -0.5685  0.1558
17068TIP3    H172695   5.964   0.289   4.070  0.0417  1.9617  0.7068
17068TIP3    H272696   5.980   0.345   3.931 -1.4427  3.7662  1.2377
17069TIP3   OH272697   2.163   5.079   3.784  0.2006  0.5769 -0.0893
17069TIP3    H172698   2.084   5.103   3.831 -0.8080 -0.6613 -1.1017
17069TIP3    H272699   2.202   5.008   3.835 -1.0872 -1.0155 -1.2624
17070TIP3   OH272700   0.393   4.777  16.214  0.1031  0.3634 -0.0572
17070TIP3    H172701   0.458   4.837  16.177  0.6924  0.2642  0.7912
17070TIP3    H272702   0.430   4.690  16.200  0.4173  0.3348  0.8985
17071TIP3   OH272703   4.979   5.271   4.116  0.3752  0.1032  0.0336
17071TIP3    H172704   4.939   5.184   4.116 -0.6550  0.5602  2.4078
17071TIP3    H272705   4.907   5.330   4.094  1.0792  0.3882 -1.6082
17072TIP3   OH272706   0.109   5.474   0.881  0.4429 -0.0703 -0.4454
17072TIP3    H172707   0.053   5.523   0.941 -0.4712 -1.7977  0.1437
17072TIP3    H272708   0.188   5.456   0.931 -0.2757 -1.4158  0.2357
17073TIP3   OH272709   1.881   4.437  16.303  0.1310  0.1991 -0.3097
17073TIP3    H172710   1.896   4.517  16.353 -1.0582  0.8851 -1.0258
17073TIP3    H272711   1.838   4.377  16.364 -1.6492  1.1617 -0.6116
17074TIP3   OH272712   5.986   3.681  13.724  0.2553 -0.0282 -0.3015
17074TIP3    H172713   6.023   3.593  13.718  0.4872  0.0864 -0.5798
17074TIP3    H272714   5.893   3.669  13.706  0.2221 -0.2697  0.0343
17075TIP3   OH272715   2.701   4.621  13.770  0.0780  0.5007  0.0296
17075TIP3    H172716   2.729   4.688  13.708 -0.9667 -1.6943 -2.9539
17075TIP3    H272717   2.606   4.635  13.779 -0.0824 -0.3565 -0.3197
17076TIP3   OH272718   3.593   6.626   3.788  0.4337 -0.0841 -0.6527
17076TIP3    H172719   3.569   6.719   3.797  0.2620 -0.2585  0.8870
17076TIP3    H272720   3.645   6.622   3.708  1.6796  1.6259  0.0260
17077TIP3   OH272721   2.339   1.465   2.997 -0.1167 -0.3705 -0.0213
17077TIP3    H172722   2.386   1.520   3.060  0.1136  1.4965 -1.8001
17077TIP3    H272723   2.372   1.377   3.013  0.5462  0.2118  1.9056
17078TIP3   OH272724   5.760   0.824   1.721 -0.0258  0.1371  0.3004
17078TIP3    H172725   5.828   0.806   1.785  0.3063  2.4540  0.6630
17078TIP3    H272726   5.783   0.910   1.686 -0.7444 -0.6623 -2.2299
17079TIP3   OH272727   2.942   2.215  13.359  0.6435  0.3356  0.4337
17079TIP3    H172728   2.890   2.136  13.371 -0.0338  0.8133  0.6855
17079TIP3    H272729   2.986   2.203  13.275  3.4016 -1.9222  2.1380
17080TIP3   OH272730   3.959   4.633   5.279 -0.1227  0.0665 -0.7139
17080TIP3    H172731   4.031   4.688   5.247 -0.7446  0.5391 -1.3039
17080TIP3    H272732   3.931   4.675   5.361 -0.7020  0.7316 -1.2444
17081TIP3   OH272733   6.222   0.339   3.263  0.0604 -0.3064  0.0820
17081TIP3    H172734   6.215   0.423   3.308  1.3076  0.3605 -0.9676
17081TIP3    H272735   6.206   0.274   3.332  0.9921  0.7280  1.3014
17082TIP3   OH272736   6.011   6.699   3.158 -0.3236 -0.0043 -0.3233
17082TIP3    H172737   6.098   6.727   3.183 -0.8193  0.5770  0.7697
17082TIP3    H272738   5.952   6.747   3.216 -1.2845 -1.6833  0.1579
17083TIP3   OH272739   2.057   6.036   1.136 -0.3009 -0.0544 -0.3506
17083TIP3    H172740   2.133   6.094   1.132  0.2127 -0.7037  0.0227
17083TIP3    H272741   1.982   6.096   1.148  0.0917  0.6106 -1.1492
17084TIP3   OH272742   5.005   4.927   0.302  0.2672  0.0791  0.1742
17084TIP3    H172743   4.940   4.861   0.325 -2.2541  1.7628 -1.7626
17084TIP3    H272744   5.003   4.989   0.376  0.0927 -0.1815  0.3884
17085TIP3   OH272745   0.785   2.984  11.718  0.1649  0.1250 -0.6802
17085TIP3    H172746   0.877   3.007  11.727  0.1518 -0.0628 -0.0641
17085TIP3    H272747   0.754   3.035  11.643  0.2253  1.7845  0.4154
17086TIP3   OH272748   4.554   5.568   3.669  0.8096  0.9497 -0.5986
17086TIP3    H172749   4.508   5.604   3.593 -1.7438 -0.1442  0.3498
17086TIP3    H272750   4.612   5.502   3.633  0.8953  1.6337 -1.7505
17087TIP3   OH272751   6.767   2.266   1.988  0.4319 -0.2579  0.3775
17087TIP3    H172752   6.849   2.304   2.018  0.7655 -1.3206  0.8383
17087TIP3    H272753   6.756   2.299   1.899  0.3926  1.3948  0.9680
17088TIP3   OH272754   1.514   4.710  11.040  0.2557 -0.9501 -0.4478
17088TIP3    H172755   1.609   4.701  11.041  0.2978 -0.5330  0.9293
17088TIP3    H272756   1.487   4.681  11.127 -0.7775 -0.0293 -0.4494
17089TIP3   OH272757   2.822   1.549  12.012  0.4015  0.6249  0.1152
17089TIP3    H172758   2.816   1.600  11.931 -1.4483 -1.5994 -1.2152
17089TIP3    H272759   2.894   1.488  11.998 -1.3652 -1.3131 -0.8324
17090TIP3   OH272760   2.982   0.619   2.183  0.3852  0.6312 -0.3005
17090TIP3    H172761   2.998   0.529   2.157  0.4671  0.7090 -0.5257
17090TIP3    H272762   2.911   0.614   2.247  0.3127  0.4200 -0.3986
17091TIP3   OH272763   4.196   2.414  11.504  0.2166 -0.1077 -0.1910
17091TIP3    H172764   4.156   2.498  11.479 -2.1554 -0.8861  0.8190
17091TIP3    H272765   4.254   2.393  11.431 -0.5588  1.5267 -1.3315
17092TIP3   OH272766   3.669   1.184   4.058  0.4471 -0.0346 -0.7282
17092TIP3    H172767   3.696   1.206   3.969 -1.2098 -0.8679 -1.4504
17092TIP3    H272768   3.592   1.240   4.074  1.4959  1.0438  0.6524
17093TIP3   OH272769   1.550   1.766   0.032 -0.6731  0.2173  0.2717
17093TIP3    H172770   1.489   1.833  -0.000 -0.2522  0.2674 -0.4350
17093TIP3    H272771   1.577   1.797   0.118 -0.3297  1.0517 -0.1359
17094TIP3   OH272772   3.759   6.157   1.038  0.2718  0.6287  0.4362
17094TIP3    H172773   3.851   6.132   1.041  0.7988  2.4528  0.4394
17094TIP3    H272774   3.748   6.217   1.113 -1.4202 -1.1390  1.6554
17095TIP3   OH272775   5.922   4.894   2.156 -0.4119  0.0450  0.0972
17095TIP3    H172776   5.992   4.829   2.152  0.1477  0.5863  1.0731
17095TIP3    H272777   5.960   4.969   2.201 -1.3963  0.6284 -0.0167
17096TIP3   OH272778   2.647   4.306   4.260  0.3766  0.1619  0.6763
17096TIP3    H172779   2.611   4.376   4.315 -0.6766 -0.9836  1.4723
17096TIP3    H272780   2.582   4.236   4.266  1.2068 -0.7136 -0.4776
17097TIP3   OH272781   1.820   6.628  13.530 -0.3247 -0.0186 -0.0002
17097TIP3    H172782   1.743   6.685  13.523  0.1463  0.7247  0.6861
17097TIP3    H272783   1.852   6.620  13.441 -0.3821  0.8250 -0.1023
17098TIP3   OH272784   1.316   2.211   1.960  0.2799 -0.0740  0.6691
17098TIP3    H172785   1.276   2.268   1.894  1.3457  0.1359  0.1981
17098TIP3    H272786   1.406   2.243   1.969  0.3610 -0.5627  1.6925
17099TIP3   OH272787   1.588   5.228   0.077  0.2255 -0.2721  0.0359
17099TIP3    H172788   1.534   5.300   0.110  1.7103  0.5359  0.7794
17099TIP3    H272789   1.528   5.172   0.028 -0.6747  2.2990 -1.8915
17100TIP3   OH272790   4.937   6.428  15.164 -0.5441  0.1651 -0.0089
17100TIP3    H172791   5.016   6.476  15.189  0.0543 -0.2154 -1.1459
17100TIP3    H272792   4.898   6.481  15.094 -1.5611  0.6015  0.8683
17101TIP3   OH272793   0.716   4.060   0.542  0.6025 -0.0089  0.0087
17101TIP3    H172794   0.780   4.021   0.602 -0.2067 -2.5325 -0.6762
17101TIP3    H272795   0.641   4.000   0.547 -0.6345  1.4054 -1.2570
17102TIP3   OH272796   5.697   4.942  14.135 -0.4248 -0.4019 -0.5595
17102TIP3    H172797   5.783   4.951  14.175 -0.4393 -2.1678 -0.0996
17102TIP3    H272798   5.635   4.951  14.208 -0.5283 -1.4901 -0.4991
17103TIP3   OH272799   6.804   0.031  12.271  0.4650  0.3934  0.2335
17103TIP3    H172800   6.826   0.088  12.198  1.0485 -1.5753 -1.1577
17103TIP3    H272801   6.818  -0.057  12.238 -0.0487 -0.5622  2.4702
17104TIP3   OH272802   2.488   1.330   0.930 -0.4024  0.0686  0.1941
17104TIP3    H172803   2.512   1.410   0.977  0.5542 -1.0083  1.6284
17104TIP3    H272804   2.541   1.332   0.851 -0.0518  0.6528  0.4382
17105TIP3   OH272805   5.038   3.411  16.181 -0.0601 -0.0900  0.1414
17105TIP3    H172806   5.080   3.461  16.111 -0.5834  0.8976  0.5161
17105TIP3    H272807   4.960   3.461  16.203  0.5959  0.1336  2.0941
17106TIP3   OH272808   3.031   5.532  16.793  0.0708 -0.1996  0.7885
17106TIP3    H172809   3.078   5.584  16.727 -0.2148 -1.6126 -0.5434
17106TIP3    H272810   3.012   5.595  16.863  2.6153  0.7477  0.6887
17107TIP3   OH272811   6.648   2.742  15.605 -0.4577  0.0607  0.1329
17107TIP3    H172812   6.568   2.770  15.561  0.3132  0.0152 -1.3267
17107TIP3    H272813   6.620   2.672  15.663 -1.7535  1.1984  0.8942
17108TIP3   OH272814   2.313   2.528   4.017 -0.0030 -0.2392 -0.1617
17108TIP3    H172815   2.350   2.601   4.067 -0.0686  0.3046 -0.9028
17108TIP3    H272816   2.304   2.562   3.928 -1.9952 -0.4685 -0.0677
17109TIP3   OH272817   0.289   0.601  16.210  0.8667 -0.1020  0.1607
17109TIP3    H172818   0.253   0.643  16.133  0.7122 -1.1220 -0.3215
17109TIP3    H272819   0.314   0.673  16.268  0.0385  0.6312 -0.4077
17110TIP3   OH272820   6.649   3.277   5.484 -0.6710 -0.9404 -0.7105
17110TIP3    H172821   6.642   3.231   5.568 -1.1831 -1.5873 -1.1085
17110TIP3    H272822   6.620   3.214   5.419  2.8001 -1.5511 -1.7535
17111TIP3   OH272823   0.099   1.852   6.214 -0.3518 -0.0147 -0.2722
17111TIP3    H172824   0.058   1.799   6.283 -1.1833 -0.0844 -0.8142
17111TIP3    H272825   0.167   1.795   6.178  0.5695  0.2838  0.9718
17112TIP3   OH272826   5.607   1.046   1.976 -0.2840  0.0547 -0.2333
17112TIP3    H172827   5.537   1.103   1.944 -0.1819 -0.2779 -1.0694
17112TIP3    H272828   5.646   1.095   2.049 -0.3277  0.9733 -0.8093
17113TIP3   OH272829   5.265   6.731   3.005 -0.3903  0.1649 -0.3841
17113TIP3    H172830   5.193   6.755   2.947 -0.5248 -1.2493 -0.8128
17113TIP3    H272831   5.343   6.767   2.963 -0.7184  0.8865 -0.3934
17114TIP3   OH272832   3.075   0.705   4.473  0.3919 -0.3100  0.4595
17114TIP3    H172833   3.119   0.762   4.410 -0.7812  0.5427  0.3940
17114TIP3    H272834   3.109   0.733   4.558  2.4986 -1.9249  0.1925
17115TIP3   OH272835   0.637   5.040   6.311  0.0902 -0.1378 -1.3828
17115TIP3    H172836   0.545   5.019   6.293  0.1530 -1.0865 -0.6590
17115TIP3    H272837   0.638   5.135   6.321 -0.8446 -0.1371 -1.2201
17116TIP3   OH272838   6.690   6.333  12.894  0.1461  0.7222  0.0987
17116TIP3    H172839   6.777   6.372  12.885 -0.4131  2.3441  1.4368
17116TIP3    H272840   6.632   6.408  12.906 -1.5675 -0.2885 -1.5853
17117TIP3   OH272841   3.063   1.123  12.393  0.0693  0.2372 -0.2650
17117TIP3    H172842   3.017   1.146  12.473  0.0715 -0.6002 -0.0220
17117TIP3    H272843   3.107   1.040  12.413  0.4922  0.2887 -0.9575
17118TIP3   OH272844   4.233   1.131   4.189 -0.0555  0.5665 -0.2941
17118TIP3    H172845   4.268   1.043   4.174 -0.1729  0.6788 -1.2676
17118TIP3    H272846   4.147   1.129   4.148 -1.7755 -0.1059  3.1629
17119TIP3   OH272847   4.410   3.412  12.577  0.0211  0.0247  0.3187
17119TIP3    H172848   4.472   3.344  12.551  0.2019  0.8341 -1.4441
17119TIP3    H272849   4.374   3.445  12.494 -2.4712 -0.1470  1.2854
17120TIP3   OH272850   2.363   2.872   3.471  0.3145  0.1107  0.2625
17120TIP3    H172851   2.319   2.956   3.482  0.3083  0.2409 -0.6978
17120TIP3    H272852   2.444   2.892   3.425 -0.5673 -0.6195 -1.6583
17121TIP3   OH272853   4.334   0.139  14.937  0.2468 -0.6163  0.1323
17121TIP3    H172854   4.307   0.171  15.023  0.0746 -0.5827  0.0656
17121TIP3    H272855   4.315   0.045  14.940 -1.6761 -0.2760 -0.5878
17122TIP3   OH272856   3.067   1.529  13.631  0.1087  0.0482  0.0261
17122TIP3    H172857   3.033   1.524  13.542 -0.7656 -1.3171  0.4113
17122TIP3    H272858   3.040   1.615  13.663  0.8941  0.7615 -1.2003
17123TIP3   OH272859   3.280   1.334  12.731  0.4629 -0.2533  0.2531
17123TIP3    H172860   3.241   1.374  12.653 -0.0544  0.1678  0.7214
17123TIP3    H272861   3.340   1.400  12.765  0.6282 -0.4052  0.2554
17124TIP3   OH272862   4.535   1.568   0.854 -0.0325  0.2021 -0.0041
17124TIP3    H172863   4.513   1.637   0.791  0.0799 -1.5470 -2.0000
17124TIP3    H272864   4.454   1.519   0.864  0.5662 -0.9104 -0.5575
17125TIP3   OH272865   0.058   5.562  11.249 -0.2052  0.3988  0.2818
17125TIP3    H172866   0.149   5.574  11.220 -0.1843  0.6082  0.4306
17125TIP3    H272867   0.033   5.476  11.215 -0.4329  0.9674 -1.0425
17126TIP3   OH272868   1.240   6.778   4.526 -0.0116  0.3552  0.1513
17126TIP3    H172869   1.324   6.732   4.526  0.1356  0.6149 -0.3950
17126TIP3    H272870   1.187   6.730   4.462  0.6100  1.7574 -1.4761
17127TIP3   OH272871   1.899   4.740   0.358  0.5471  0.1712 -0.3359
17127TIP3    H172872   1.861   4.824   0.333 -0.0861  0.2237  0.7887
17127TIP3    H272873   1.836   4.702   0.419  1.3851 -0.6013  0.0592
17128TIP3   OH272874   5.835   3.974   2.739 -0.0678  0.3064  0.1155
17128TIP3    H172875   5.756   3.928   2.766 -0.5566  0.1983 -1.4623
17128TIP3    H272876   5.811   4.067   2.740 -0.1016  0.2982 -0.0342
17129TIP3   OH272877   4.189   3.805  14.401 -0.3408  0.3154  0.4721
17129TIP3    H172878   4.171   3.716  14.430 -0.3821  1.1359  3.0828
17129TIP3    H272879   4.108   3.833  14.359 -0.3528 -0.8437 -0.3010
17130TIP3   OH272880   1.715   4.145   5.464  0.4856 -0.4050  0.2177
17130TIP3    H172881   1.780   4.177   5.527  0.5160  0.1594 -0.1021
17130TIP3    H272882   1.648   4.103   5.518  1.8379 -2.3033  0.4806
17131TIP3   OH272883   6.274   6.485   0.981  0.4321  0.1953 -0.5282
17131TIP3    H172884   6.274   6.390   0.967 -2.9183  0.0251  0.3340
17131TIP3    H272885   6.361   6.513   0.953  1.8158 -3.2570  0.0628
17132TIP3   OH272886   3.610   0.903   2.328  0.2221  0.0832  0.0221
17132TIP3    H172887   3.595   0.814   2.296  1.3610 -0.0233 -0.2435
17132TIP3    H272888   3.661   0.944   2.258  1.0132  0.4704  0.8289
17133TIP3   OH272889   5.003   4.610   2.327 -0.3682 -0.3658 -0.0744
17133TIP3    H172890   4.946   4.575   2.396 -1.5045 -1.3630 -1.4998
17133TIP3    H272891   5.010   4.704   2.347 -1.8885 -0.3753  0.5334
17134TIP3   OH272892   2.786   3.024  12.601 -0.3099 -0.3954 -0.5523
17134TIP3    H172893   2.844   2.956  12.566 -1.1898 -1.5867  0.3086
17134TIP3    H272894   2.733   3.050  12.526  1.2519  0.6601 -1.3407
17135TIP3   OH272895   4.698   2.688  12.734 -0.1018 -0.4623 -0.5760
17135TIP3    H172896   4.744   2.759  12.779  0.3658 -0.3306 -1.2531
17135TIP3    H272897   4.739   2.684  12.647  0.4440 -2.1256 -0.2434
17136TIP3   OH272898   0.351   5.692  13.063  0.1863  0.6355 -0.9793
17136TIP3    H172899   0.297   5.771  13.070 -3.4486 -1.7758 -0.4524
17136TIP3    H272900   0.337   5.662  12.973  0.9314  0.1536 -0.9371
17137TIP3   OH272901   5.274   1.136  16.720  0.3163  0.7247 -0.3013
17137TIP3    H172902   5.338   1.103  16.783  0.7655  0.6300 -0.8040
17137TIP3    H272903   5.272   1.069  16.652 -0.1696  0.8274 -0.3862
17138TIP3   OH272904   4.663   1.627   3.370 -0.4945 -0.0231  0.3043
17138TIP3    H172905   4.656   1.542   3.415 -1.1763  0.0238  0.2898
17138TIP3    H272906   4.599   1.683   3.414  0.8388  0.8728  1.1621
17139TIP3   OH272907   1.227   6.001   1.286  0.2336 -0.6657  0.3276
17139TIP3    H172908   1.145   6.037   1.320 -0.6535 -0.9043 -1.5086
17139TIP3    H272909   1.245   5.925   1.341 -0.9270 -0.7718  0.5747
17140TIP3   OH272910   3.735   2.020   3.521  0.0377 -0.0921  0.1550
17140TIP3    H172911   3.677   2.077   3.573  0.0994  0.0383  0.0821
17140TIP3    H272912   3.677   1.956   3.482 -0.5793  2.1095 -2.7564
17141TIP3   OH272913   4.289   3.449  11.334  0.2747 -0.2681  0.0441
17141TIP3    H172914   4.362   3.391  11.313 -0.4909 -0.9197 -0.9200
17141TIP3    H272915   4.236   3.399  11.396  2.2633  1.4530  3.2199
17142TIP3   OH272916   0.086   6.306   3.591 -1.0066 -0.3430 -0.5430
17142TIP3    H172917   0.017   6.371   3.603 -0.3267 -0.0095  1.8665
17142TIP3    H272918   0.074   6.245   3.664  0.7188 -0.7691 -0.5939
17143TIP3   OH272919   2.512   3.666  13.764 -0.4361 -0.3862  0.1571
17143TIP3    H172920   2.596   3.659  13.811 -0.8583  0.1508  1.0001
17143TIP3    H272921   2.469   3.741  13.804 -1.6451 -1.1123  0.2289
17144TIP3   OH272922   4.070   2.063  15.288  0.2997 -0.6931  0.0390
17144TIP3    H172923   4.124   2.034  15.362  1.0785 -0.0897 -0.2929
17144TIP3    H272924   4.132   2.075  15.216  0.0858  2.3535  0.3157
17145TIP3   OH272925   2.080   0.763   3.727 -0.1251  0.3783 -0.6759
17145TIP3    H172926   2.138   0.831   3.762 -0.4640  0.6141 -0.5694
17145TIP3    H272927   2.006   0.811   3.690  1.0622  0.2349 -3.3278
17146TIP3   OH272928   2.614   2.115   4.146  0.5664  0.2908 -0.3466
17146TIP3    H172929   2.681   2.146   4.084  2.1699 -1.2387  0.5759
17146TIP3    H272930   2.598   2.024   4.121  0.0048  0.1699  0.4460
17147TIP3   OH272931   1.479   3.753  13.135 -0.3169 -0.1999 -0.2165
17147TIP3    H172932   1.488   3.669  13.180 -1.6549 -1.1713 -1.7403
17147TIP3    H272933   1.564   3.795  13.148  0.2217 -1.5876  0.9494
17148TIP3   OH272934   4.705   4.005   3.008  0.2895  0.0101  0.4614
17148TIP3    H172935   4.669   3.962   3.086 -1.2497  0.9774  0.3104
17148TIP3    H272936   4.659   3.964   2.935 -1.6568  2.2601  0.3511
17149TIP3   OH272937   1.889   0.382  15.759 -0.0801  0.1038  0.2426
17149TIP3    H172938   1.982   0.382  15.778  0.2012  0.6626 -1.1333
17149TIP3    H272939   1.872   0.299  15.715 -0.1574  0.1989  0.0934
17150TIP3   OH272940   1.560   0.446   2.177  0.1457  0.1240  0.3623
17150TIP3    H172941   1.501   0.420   2.106 -1.1925 -1.0150  1.8518
17150TIP3    H272942   1.586   0.535   2.155 -0.3888 -0.1552 -1.4746
17151TIP3   OH272943   0.556   5.184  13.812  0.1606 -0.3251  0.6896
17151TIP3    H172944   0.515   5.098  13.812 -0.6603  0.0619  0.7867
17151TIP3    H272945   0.591   5.195  13.724  0.4850 -0.8537  0.7493
17152TIP3   OH272946   4.627   2.015   1.646 -0.6731  0.2728 -0.6445
17152TIP3    H172947   4.675   1.943   1.687  1.7937  1.7915 -0.7575
17152TIP3    H272948   4.666   2.023   1.559  0.5184  3.0452  0.0963
17153TIP3   OH272949   3.422   2.874   4.637 -0.7876 -0.0037 -0.1494
17153TIP3    H172950   3.377   2.955   4.615 -0.3478  0.3292  0.1586
17153TIP3    H272951   3.488   2.900   4.702  0.0566 -0.4177 -0.8246
17154TIP3   OH272952   1.313   2.944   6.451  0.1726  0.3226 -0.3356
17154TIP3    H172953   1.327   2.950   6.546  0.0864 -1.8407 -0.1572
17154TIP3    H272954   1.219   2.958   6.440 -0.1918 -1.6208  0.1423
17155TIP3   OH272955   3.594   1.066   5.672 -0.0940 -0.0186 -0.4662
17155TIP3    H172956   3.510   1.110   5.661  0.0196  0.0108 -1.2881
17155TIP3    H272957   3.574   0.973   5.670 -0.1729 -0.0080 -0.1177
17156TIP3   OH272958   6.299   2.216  13.624 -0.2992 -0.1371  0.2232
17156TIP3    H172959   6.228   2.270  13.658 -1.3431 -2.0712  1.2317
17156TIP3    H272960   6.291   2.224  13.529 -0.6539  1.1966  0.3557
17157TIP3   OH272961   0.091   5.834  14.827  0.3978 -0.0036 -0.7770
17157TIP3    H172962   0.134   5.777  14.890 -1.2851  1.7823  2.1066
17157TIP3    H272963   0.005   5.794  14.812 -1.2921  2.2590  2.2197
17158TIP3   OH272964   3.336   0.648   5.725  0.1300  0.6097 -0.0126
17158TIP3    H172965   3.260   0.592   5.737 -0.0460  0.6476 -0.8921
17158TIP3    H272966   3.323   0.720   5.787  0.3098 -0.2620  1.0516
17159TIP3   OH272967   1.585   3.511  13.227  0.2145 -0.0424  0.1820
17159TIP3    H172968   1.584   3.448  13.155  3.5146 -0.0372  0.0376
17159TIP3    H272969   1.546   3.464  13.301 -1.5496 -0.6610 -1.1142
17160TIP3   OH272970   2.386   6.168  11.883  0.4642 -0.2069  0.4003
17160TIP3    H172971   2.450   6.205  11.822 -0.5017  2.0753  0.7059
17160TIP3    H272972   2.304   6.166  11.834  0.5961 -2.3729  0.2587
17161TIP3   OH272973   1.672   0.631   0.759 -0.3449 -0.0520  0.6616
17161TIP3    H172974   1.617   0.682   0.818 -0.9396 -0.2199  0.2564
17161TIP3    H272975   1.622   0.550   0.744 -1.4359  1.0795 -2.1497
17162TIP3   OH272976   5.667   0.055   4.304 -0.5558 -0.2852  0.1168
17162TIP3    H172977   5.661   0.094   4.391 -1.4982 -0.5880  0.1911
17162TIP3    H272978   5.684   0.129   4.245 -0.6855  0.0183  0.4609
17163TIP3   OH272979   5.571   0.041   3.908 -0.1553  0.1223  0.6576
17163TIP3    H172980   5.578   0.092   3.988 -0.3037  0.1366  0.6617
17163TIP3    H272981   5.643   0.072   3.853 -0.3337  0.4363  0.6034
17164TIP3   OH272982   1.692   1.824   4.432 -0.0052  0.4308  0.1407
17164TIP3    H172983   1.604   1.848   4.460 -0.0524  1.5155 -0.9281
17164TIP3    H272984   1.680   1.775   4.351  0.3340 -0.0394  0.3696
17165TIP3   OH272985   3.857   4.323   4.275  0.0510  0.3560  0.2010
17165TIP3    H172986   3.913   4.251   4.246  0.5327 -0.1448  2.3081
17165TIP3    H272987   3.773   4.281   4.294  0.3826  0.2962  1.5977
17166TIP3   OH272988   6.533   5.459  16.429 -0.6749 -0.3553 -0.0239
17166TIP3    H172989   6.453   5.431  16.473 -0.5723 -0.8375 -0.1437
17166TIP3    H272990   6.588   5.495  16.500 -0.7342 -0.6174  0.1536
17167TIP3   OH272991   2.653   1.127   4.080 -1.0120  0.1002  0.5880
17167TIP3    H172992   2.746   1.104   4.085 -0.7525  1.0992  0.4068
17167TIP3    H272993   2.642   1.164   3.993 -1.9574 -1.6106 -0.0344
17168TIP3   OH272994   6.413   4.188   4.810  0.2491  0.0426 -0.2606
17168TIP3    H172995   6.377   4.208   4.896 -0.7902  0.1667 -0.7200
17168TIP3    H272996   6.496   4.143   4.828 -0.3339 -0.6108  0.8044
17169TIP3   OH272997   3.108   5.788  16.277 -0.0729  0.2416 -0.1061
17169TIP3    H172998   3.106   5.713  16.336 -0.2018 -0.4998 -1.0415
17169TIP3    H272999   3.201   5.811  16.270  0.0753 -0.4979 -0.6425
17170TIP3   OH273000   0.005   5.020   3.081 -0.4137 -0.6540  0.2239
17170TIP3    H173001   0.026   5.113   3.088 -0.8863 -0.5027 -0.2659
17170TIP3    H273002   0.087   4.978   3.054  0.2760 -0.6504  2.2455
17171TIP3   OH273003   2.968   6.122  14.262  0.2416  0.5355 -0.5456
17171TIP3    H173004   3.024   6.084  14.330  0.8827  0.7412 -0.9596
17171TIP3    H273005   2.879   6.101  14.290  0.5002  0.7262  0.4241
17172TIP3   OH273006   2.911   5.757  12.151  0.4585  0.4628  0.1401
17172TIP3    H173007   2.878   5.759  12.061 -0.5768 -0.0335  0.4957
17172TIP3    H273008   2.894   5.844  12.185 -0.9588  0.0699  0.4744
17173TIP3   OH273009   2.744   4.781   1.059 -0.1920  0.5837  0.6345
17173TIP3    H173010   2.810   4.728   1.014 -0.3543 -0.6925  1.8626
17173TIP3    H273011   2.724   4.852   0.998  1.5020  0.3582 -0.2094
17174TIP3   OH273012   1.408   2.976   2.870 -0.4235 -0.1189 -0.1619
17174TIP3    H173013   1.339   3.043   2.871  0.9554  1.3644 -1.5269
17174TIP3    H273014   1.414   2.950   2.779  1.6532  0.6668 -0.2764
17175TIP3   OH273015   5.733   0.329  14.487 -0.1680 -0.1915 -0.4504
17175TIP3    H173016   5.645   0.338  14.525  0.3237 -2.2851  1.2528
17175TIP3    H273017   5.717   0.319  14.393 -1.9774 -3.2399  0.1013
17176TIP3   OH273018   1.730   5.968   0.497 -0.2900  0.2348  0.0520
17176TIP3    H173019   1.768   5.907   0.434  0.8243  1.0537 -0.0852
17176TIP3    H273020   1.801   6.030   0.517 -1.4534  1.6087  0.0379
17177TIP3   OH273021   0.417   2.970  12.160 -0.1464  0.2376  0.5819
17177TIP3    H173022   0.425   3.056  12.201  1.6302  0.5231 -0.3380
17177TIP3    H273023   0.451   2.982  12.072 -1.2314 -1.0815 -0.0415
17178TIP3   OH273024   5.589   2.312  14.444 -0.3773 -0.2140  0.3813
17178TIP3    H173025   5.671   2.360  14.443 -0.1679 -0.5586  0.9516
17178TIP3    H273026   5.593   2.257  14.366 -0.0657 -0.2348  0.4112
17179TIP3   OH273027   3.268   0.417   1.123 -0.5853  0.3050 -0.2339
17179TIP3    H173028   3.235   0.471   1.051  0.6973  1.2092 -0.1501
17179TIP3    H273029   3.363   0.425   1.117 -0.4865  1.1999  2.1797
17180TIP3   OH273030   3.337   0.526  13.901 -0.1851 -0.1883 -0.4451
17180TIP3    H173031   3.396   0.451  13.908 -0.5970 -0.5360 -0.6957
17180TIP3    H273032   3.249   0.488  13.906 -0.3876  0.3742  0.3953
17181TIP3   OH273033   2.242   1.777   1.544  0.5028 -0.2585 -0.2578
17181TIP3    H173034   2.242   1.732   1.628 -0.9170 -1.1654 -0.7240
17181TIP3    H273035   2.163   1.745   1.500  0.5770  1.1439 -1.4311
17182TIP3   OH273036   4.300   1.350  16.496  0.1577  0.6994 -0.1642
17182TIP3    H173037   4.356   1.425  16.517  0.4691  0.3856  0.1060
17182TIP3    H273038   4.359   1.285  16.458 -0.1714  0.7256 -0.7322
17183TIP3   OH273039   3.412   0.832  12.805 -0.1039 -0.2962  0.0063
17183TIP3    H173040   3.418   0.927  12.819 -0.1490 -0.0285 -1.6816
17183TIP3    H273041   3.329   0.807  12.844  0.6764  0.0518  1.9833
17184TIP3   OH273042   2.631   1.014  15.149 -0.6360 -0.3189 -0.5181
17184TIP3    H173043   2.638   0.919  15.145 -0.5417 -0.3006 -0.7968
17184TIP3    H273044   2.607   1.040  15.060 -0.0016 -0.0254 -0.6072
17185TIP3   OH273045   3.352   1.880  13.691 -0.1543  0.4329  0.4544
17185TIP3    H173046   3.397   1.917  13.616  1.2198 -1.1541  0.4661
17185TIP3    H273047   3.421   1.861  13.755 -1.3147  1.9600  2.2359
17186TIP3   OH273048   0.179   4.514   2.843 -0.6722 -0.6679 -0.2736
17186TIP3    H173049   0.184   4.562   2.760  0.6263  2.2401  1.4499
17186TIP3    H273050   0.156   4.579   2.908 -0.8201 -2.7666  1.8421
17187TIP3   OH273051   1.370   1.527  13.016  0.1068 -0.0221  0.1374
17187TIP3    H173052   1.355   1.589  13.087  1.0698 -1.0018  1.2550
17187TIP3    H273053   1.466   1.523  13.009  0.1168 -2.3970  1.0740
17188TIP3   OH273054   3.356   1.929  11.193 -0.6700  0.0652  0.2419
17188TIP3    H173055   3.333   2.016  11.159  0.5695  0.2245 -0.2167
17188TIP3    H273056   3.451   1.922  11.180 -0.5665 -0.8802  1.3867
17189TIP3   OH273057   3.473   4.269   6.316 -0.2049  0.1279 -0.2769
17189TIP3    H173058   3.452   4.343   6.373  2.0340  1.3085 -0.8921
17189TIP3    H273059   3.389   4.241   6.280 -1.2076  1.7146  0.7612
17190TIP3   OH273060   0.871   4.436   0.107 -0.3650 -0.0015 -0.7664
17190TIP3    H173061   0.781   4.407   0.120 -0.5963 -0.3636 -2.9028
17190TIP3    H273062   0.863   4.510   0.046  0.7956 -0.2795 -1.2723
17191TIP3   OH273063   2.014   3.241  11.687  0.1551 -0.5548 -0.1572
17191TIP3    H173064   2.016   3.318  11.744 -2.4858  0.6195 -1.5473
17191TIP3    H273065   2.064   3.267  11.609  1.0074 -0.9971  0.2358
17192TIP3   OH273066   2.490   2.321   1.180 -0.0159 -0.7532 -0.2800
17192TIP3    H173067   2.508   2.250   1.242 -0.3888 -0.2795  0.3770
17192TIP3    H273068   2.577   2.352   1.155  0.1328 -0.1140  0.9856
17193TIP3   OH273069   4.999   5.239  12.995 -0.2387 -0.4235 -0.3374
17193TIP3    H173070   4.905   5.222  12.989 -0.4075  0.1574  0.6147
17193TIP3    H273071   5.013   5.316  12.940  0.1158 -2.0209 -2.5742
17194TIP3   OH273072   0.395   6.644  14.273 -0.7750  0.0905 -0.1086
17194TIP3    H173073   0.336   6.577  14.238  0.7678 -1.1747 -0.3752
17194TIP3    H273074   0.394   6.630  14.367 -0.4240 -0.3300 -0.1684
17195TIP3   OH273075   3.013   0.433  12.138 -0.2329 -0.6072 -0.3539
17195TIP3    H173076   2.942   0.405  12.195  1.3613 -3.0211  0.5215
17195TIP3    H273077   3.025   0.361  12.076  1.1514 -0.0353 -0.7814
17196TIP3   OH273078   2.503   0.775  12.480  0.2354  0.0119  0.5124
17196TIP3    H173079   2.488   0.753  12.572 -4.0533 -0.2166 -0.1423
17196TIP3    H273080   2.473   0.865  12.472  1.3591  0.3028 -0.5173
17197TIP3   OH273081   2.401   3.839  13.308  0.8874 -0.0436 -0.6611
17197TIP3    H173082   2.352   3.911  13.349 -1.8327 -2.3459  0.3006
17197TIP3    H273083   2.459   3.807  13.377 -0.3571 -0.9395 -0.0143
17198TIP3   OH273084   5.868   0.099  10.857  0.0369  0.3507  0.1600
17198TIP3    H173085   5.900   0.084  10.768 -0.7919 -0.1953 -0.0559
17198TIP3    H273086   5.946   0.125  10.906  0.8527 -1.1025 -0.3209
17199TIP3   OH273087   1.688   3.440  15.803  0.0243 -0.1228 -0.1556
17199TIP3    H173088   1.627   3.507  15.833 -0.9907 -0.7317 -0.8498
17199TIP3    H273089   1.690   3.376  15.873 -0.0167 -0.0252 -0.0653
17200TIP3   OH273090   1.212   1.864  10.303 -0.2497 -0.0516  0.0734
17200TIP3    H173091   1.214   1.800  10.374 -1.4913 -1.5881 -1.2543
17200TIP3    H273092   1.140   1.923  10.326  1.1571  1.1647  1.5068
17201TIP3   OH273093   3.102   2.543   0.193  0.2693  0.2185 -0.6801
17201TIP3    H173094   3.166   2.609   0.168  0.4318 -0.5500 -2.3238
17201TIP3    H273095   3.113   2.534   0.288  1.1154  1.6258 -0.6354
17202TIP3   OH273096   5.614   3.021   2.385  0.1692 -0.2541  0.7018
17202TIP3    H173097   5.673   3.088   2.350  1.6068 -1.4324  0.8296
17202TIP3    H273098   5.607   3.042   2.478  0.5990 -0.2594  0.7376
17203TIP3   OH273099   4.445   0.053   0.712 -1.1525  0.5631  0.1712
17203TIP3    H173100   4.474  -0.038   0.716 -1.7147  0.3207 -1.0184
17203TIP3    H273101   4.396   0.059   0.629 -1.8862  1.7120  0.6738
17204TIP3   OH273102   6.245   1.749  12.966 -0.1102 -0.2250 -0.0084
17204TIP3    H173103   6.180   1.728  13.033 -1.4558 -2.0679 -1.8289
17204TIP3    H273104   6.329   1.741  13.011 -0.9353 -2.6030  1.2043
17205TIP3   OH273105   0.347   4.040   6.827  0.4731  0.3374 -0.1748
17205TIP3    H173106   0.357   4.134   6.840 -0.9980  0.2970  1.4410
17205TIP3    H273107   0.338   4.029   6.732  0.8898  1.7864 -0.3849
17206TIP3   OH273108   4.873   3.328  13.762 -0.2803  0.3804  0.2659
17206TIP3    H173109   4.911   3.400  13.813 -0.9155  0.0420  1.2399
17206TIP3    H273110   4.891   3.250  13.815 -0.7539 -0.0021 -0.1363
17207TIP3   OH273111   1.431   0.526   6.776  0.3218 -0.5333 -0.1122
17207TIP3    H173112   1.352   0.580   6.771  0.5205 -0.1899  0.5012
17207TIP3    H273113   1.399   0.441   6.805  0.1553 -0.4323  0.0064
17208TIP3   OH273114   0.254   0.988   5.710 -0.3138 -0.4288  0.1774
17208TIP3    H173115   0.340   0.959   5.680 -1.5359 -1.0257 -2.9065
17208TIP3    H273116   0.228   1.056   5.648 -1.9492 -0.0651  1.2346
17209TIP3   OH273117   2.139   3.008   5.303 -0.1059  0.6159  0.7927
17209TIP3    H173118   2.073   3.061   5.348 -1.5501 -0.9159  0.5143
17209TIP3    H273119   2.125   2.919   5.337  2.5817  0.4664  1.5931
17210TIP3   OH273120   3.002   1.046   3.304  0.3707 -0.2282  0.2921
17210TIP3    H173121   2.971   1.134   3.281  0.6925  0.0985  1.1129
17210TIP3    H273122   2.938   1.014   3.367  2.1690  0.7965  2.6792
17211TIP3   OH273123   4.010   4.072  15.060  0.2603  0.5906  0.3333
17211TIP3    H173124   4.028   4.163  15.085  1.0281  0.5160  0.0809
17211TIP3    H273125   3.946   4.079  14.989 -1.2130  0.8357  1.6743
17212TIP3   OH273126   0.557   1.709  14.100  0.4114 -0.1075  0.1716
17212TIP3    H173127   0.640   1.735  14.140  0.3469  3.2547 -1.6448
17212TIP3    H273128   0.580   1.636  14.042  1.8021 -0.2580  0.8867
17213TIP3   OH273129   0.330   1.204   3.325  0.0963 -0.5587  0.5259
17213TIP3    H173130   0.272   1.154   3.268  0.6409  0.9680 -1.3937
17213TIP3    H273131   0.271   1.267   3.368  0.0545 -0.1601 -0.1117
17214TIP3   OH273132   3.207   1.514  13.074 -0.6655 -0.2785  0.4982
17214TIP3    H173133   3.188   1.605  13.051  0.7133 -0.4768 -1.5607
17214TIP3    H273134   3.134   1.465  13.035  0.2546 -0.3460 -1.1788
17215TIP3   OH273135   4.285   1.988   5.719 -0.6787  1.1413 -0.2925
17215TIP3    H173136   4.218   2.048   5.752  0.5481  2.3561  0.0265
17215TIP3    H273137   4.310   2.024   5.634  0.2639  1.2370  0.0204
17216TIP3   OH273138   5.216   6.197   5.858 -0.5049 -0.0634  0.4253
17216TIP3    H173139   5.284   6.255   5.827  0.3813 -0.9266  0.7141
17216TIP3    H273140   5.213   6.211   5.953  0.7197 -1.5158  0.7002
17217TIP3   OH273141   2.798   5.459  11.232 -0.1384  0.0522  0.2172
17217TIP3    H173142   2.716   5.443  11.185  0.0443  0.8303 -0.3761
17217TIP3    H273143   2.818   5.551  11.215  0.5290  0.0370  0.8873
17218TIP3   OH273144   0.359   5.891   3.627  0.0659  0.1161 -0.3004
17218TIP3    H173145   0.380   5.825   3.561 -1.1042 -1.1933  0.6134
17218TIP3    H273146   0.346   5.972   3.576  1.2448 -0.4085 -1.4517
17219TIP3   OH273147   1.697   5.522   1.217  0.6841  0.1769  0.2448
17219TIP3    H173148   1.734   5.557   1.136 -0.9713 -0.0470 -0.6355
17219TIP3    H273149   1.735   5.435   1.226 -0.2079 -0.3638 -1.0699
17220TIP3   OH273150   0.881   1.613   3.764  0.5998 -0.3442  0.0311
17220TIP3    H173151   0.959   1.666   3.782  0.2501  0.6513 -1.3174
17220TIP3    H273152   0.915   1.536   3.717  0.5527  1.2645 -2.7769
17221TIP3   OH273153   1.386   2.608  15.223 -0.3571  0.2457  0.2079
17221TIP3    H173154   1.335   2.652  15.291  0.2296  1.1349  0.0829
17221TIP3    H273155   1.325   2.546  15.183 -0.7473 -0.1981  1.4505
17222TIP3   OH273156   1.089   4.266  13.693 -0.5872  0.3680 -0.1301
17222TIP3    H173157   1.108   4.308  13.777 -0.7737  0.0839  0.0535
17222TIP3    H273158   1.162   4.205  13.680 -0.5467  0.4284 -0.1863
17223TIP3   OH273159   4.808   5.488  13.596  0.3604 -0.0453  0.5390
17223TIP3    H173160   4.892   5.534  13.595  1.0542 -1.2765  0.5946
17223TIP3    H273161   4.800   5.452  13.507 -0.8585  1.3792  0.0574
17224TIP3   OH273162   2.317   4.823  15.096  0.0231 -0.2999 -0.3990
17224TIP3    H173163   2.359   4.878  15.163 -1.4750 -0.3246  0.5804
17224TIP3    H273164   2.234   4.798  15.135 -0.9347 -0.2053 -2.3414
17225TIP3   OH273165   4.090   0.362   0.716 -0.8576  0.0033 -0.1827
17225TIP3    H173166   4.183   0.380   0.726 -0.8041 -1.3460  2.1619
17225TIP3    H273167   4.087   0.277   0.672 -1.0057  0.7362 -1.6027
17226TIP3   OH273168   5.058   2.349  14.096 -0.1151  0.1989 -0.2194
17226TIP3    H173169   5.077   2.387  14.181 -1.9902 -0.6668  0.6057
17226TIP3    H273170   5.002   2.413  14.053 -4.8561 -2.3113  1.9074
17227TIP3   OH273171   4.044   6.062  12.569 -0.3143 -0.7457  0.0120
17227TIP3    H173172   3.991   5.985  12.590 -0.2655 -0.3296  1.7175
17227TIP3    H273173   4.068   6.099  12.654 -0.5204  1.2851 -0.7775
17228TIP3   OH273174   1.117   1.187   3.044  0.1389 -0.1938  0.5237
17228TIP3    H173175   1.032   1.210   3.006  0.2038  1.6188  1.4694
17228TIP3    H273176   1.174   1.260   3.021  0.9191 -0.4476  1.6671
17229TIP3   OH273177   3.251   1.429  12.147 -0.4699  0.0589  0.1266
17229TIP3    H173178   3.307   1.406  12.072 -2.4342 -1.3087 -0.9541
17229TIP3    H273179   3.187   1.358  12.151 -2.2149  1.6684  1.2614
17230TIP3   OH273180   0.019   0.728   0.262  0.7298  0.0505  0.0004
17230TIP3    H173181   0.049   0.813   0.293  1.0752  0.3282 -1.0770
17230TIP3    H273182   0.008   0.739   0.167 -4.0164  0.3809  0.4216
17231TIP3   OH273183   3.038   3.475  13.413 -0.1191 -0.3524 -0.4856
17231TIP3    H173184   3.090   3.426  13.350 -0.4078 -1.9080  0.4466
17231TIP3    H273185   2.962   3.505  13.363  0.3414 -0.3754 -1.2062
17232TIP3   OH273186   1.114   2.238  13.584  0.1086  0.6262 -0.0569
17232TIP3    H173187   1.203   2.273  13.588  0.4911 -0.0954 -1.8219
17232TIP3    H273188   1.117   2.173  13.514 -1.4428 -0.4844  0.8934
17233TIP3   OH273189   1.512   4.946   2.913 -0.1752 -0.5949  0.2036
17233TIP3    H173190   1.577   4.880   2.935  0.3079  0.3014  1.5770
17233TIP3    H273191   1.562   5.026   2.900 -0.8178 -0.3387 -0.7013
17234TIP3   OH273192   0.405   5.964   5.467 -0.0831 -0.4151 -0.1276
17234TIP3    H173193   0.474   6.016   5.425 -0.5979  0.1994 -0.2228
17234TIP3    H273194   0.328   6.021   5.466 -0.6187 -1.1271 -0.1021
17235TIP3   OH273195   3.277   0.435   4.609  0.0055 -0.1748 -0.7375
17235TIP3    H173196   3.363   0.400   4.587  0.6892  2.0667 -1.7733
17235TIP3    H273197   3.284   0.529   4.592 -1.8007  0.4821  1.7664
17236TIP3   OH273198   3.878   0.349  11.866 -0.2326 -0.4195  0.1619
17236TIP3    H173199   3.922   0.431  11.846  0.8925 -1.1432 -0.3673
17236TIP3    H273200   3.948   0.283  11.864 -1.0884 -1.3562  0.7682
17237TIP3   OH273201   4.740   0.435  10.593  0.5703  0.0384  0.6768
17237TIP3    H173202   4.699   0.505  10.643  0.7418  2.0243 -1.8453
17237TIP3    H273203   4.828   0.467  10.575  0.6166 -0.7737 -0.5885
17238TIP3   OH273204   5.836   4.653   3.934 -0.3438 -0.2093 -0.4338
17238TIP3    H173205   5.836   4.744   3.904 -1.0499 -0.4952 -1.3081
17238TIP3    H273206   5.858   4.602   3.856 -2.4935 -0.9850 -0.5525
17239TIP3   OH273207   5.861   2.107   4.323 -0.0904 -0.4431 -0.2630
17239TIP3    H173208   5.914   2.093   4.401 -1.9168  0.8443  1.2308
17239TIP3    H273209   5.774   2.075   4.347 -1.6630  3.4918 -0.3951
17240TIP3   OH273210   6.591   0.257   5.564 -0.3047 -0.2060 -0.5813
17240TIP3    H173211   6.622   0.178   5.520  0.2827  0.8949 -2.1851
17240TIP3    H273212   6.496   0.257   5.550 -0.1020  0.2369 -2.0649
17241TIP3   OH273213   2.801   0.356   3.901 -0.4605 -0.3688  0.5155
17241TIP3    H173214   2.875   0.331   3.957 -1.0835 -1.2065  0.9657
17241TIP3    H273215   2.781   0.446   3.928 -1.4394 -1.1117  2.4163
17242TIP3   OH273216   0.618   1.552  13.863 -0.7286  0.4347  0.1910
17242TIP3    H173217   0.549   1.486  13.866  0.4032 -0.7215  1.4555
17242TIP3    H273218   0.580   1.625  13.814 -2.0213 -1.1147 -1.1363
17243TIP3   OH273219   0.999   0.457   1.114  0.4971  0.2980 -0.3123
17243TIP3    H173220   0.948   0.482   1.037  0.5946  0.6465 -0.2672
17243TIP3    H273221   0.936   0.418   1.174  0.4897 -0.3619 -0.7371
17244TIP3   OH273222   2.980   0.383   1.511 -0.4689 -0.1263  0.1138
17244TIP3    H173223   2.903   0.383   1.453 -0.6221  2.2101  0.2743
17244TIP3    H273224   3.054   0.399   1.453 -0.4639  0.8138  0.3791
17245TIP3   OH273225   1.142   2.242   5.403 -0.2592  0.2054  0.5238
17245TIP3    H173226   1.227   2.236   5.359 -0.1660 -1.0330  0.8351
17245TIP3    H273227   1.163   2.264   5.493 -0.2527 -0.1892  0.6217
17246TIP3   OH273228   3.661   6.621  11.104 -0.0468  0.3033 -0.2446
17246TIP3    H173229   3.584   6.563  11.102 -0.8527  1.2945  0.8220
17246TIP3    H273230   3.702   6.610  11.019 -0.4946 -1.4193 -0.2693
17247TIP3   OH273231   4.670   5.989  17.101  0.2343 -0.6029 -0.6147
17247TIP3    H173232   4.654   5.896  17.089  0.7328 -0.8037  0.2639
17247TIP3    H273233   4.659   6.027  17.014 -0.2452 -1.4389 -0.9168
17248TIP3   OH273234   2.462   5.410  16.675  0.4753 -0.8317  0.2255
17248TIP3    H173235   2.448   5.401  16.769  2.1179  0.4796  0.6271
17248TIP3    H273236   2.443   5.502  16.657  1.6273 -0.7230 -0.4539
17249TIP3   OH273237   3.522   1.779   4.079 -0.1733 -0.2599 -0.1550
17249TIP3    H173238   3.522   1.710   4.013  1.6074  0.9058 -1.4098
17249TIP3    H273239   3.441   1.766   4.128 -1.2521 -1.4741 -2.2280
17250TIP3   OH273240   6.261   2.535  17.290 -0.6545 -0.1830 -0.0255
17250TIP3    H173241   6.250   2.623  17.325  2.0839 -0.2647  1.1779
17250TIP3    H273242   6.332   2.543  17.226  0.7643 -1.7689  1.2903
17251TIP3   OH273243   1.480   4.040   2.534  0.2247  0.3412  0.4847
17251TIP3    H173244   1.426   3.967   2.502 -0.3464  0.4198  1.2361
17251TIP3    H273245   1.568   4.021   2.502 -0.0938 -0.2163 -0.0746
17252TIP3   OH273246   3.546   5.097   0.832 -0.2080 -0.0157  0.3266
17252TIP3    H173247   3.510   5.038   0.899 -0.6785 -0.3229 -0.1992
17252TIP3    H273248   3.571   5.176   0.881  0.6968 -0.7565  1.0827
17253TIP3   OH273249   5.171   4.717   2.046  0.7253 -0.4853 -0.3358
17253TIP3    H173250   5.210   4.639   2.084  1.0892 -0.3689 -0.4620
17253TIP3    H273251   5.202   4.789   2.101 -2.1274 -0.7142  1.6839
17254TIP3   OH273252   2.131   0.872   4.379  0.2052 -0.7653  0.5005
17254TIP3    H173253   2.094   0.794   4.339 -0.2876 -0.6641  0.7529
17254TIP3    H273254   2.167   0.922   4.306  0.4373 -1.1829  0.3272
17255TIP3   OH273255   4.377   1.261   0.108 -0.2283  0.5492 -0.4860
17255TIP3    H173256   4.337   1.326   0.051 -1.9104 -0.5892 -0.6178
17255TIP3    H273257   4.371   1.179   0.060 -1.1328 -0.3167  1.0727
17256TIP3   OH273258   3.867   5.100  17.268 -0.5516  0.2013 -0.1757
17256TIP3    H173259   3.783   5.136  17.240 -0.7897  0.0651  0.3519
17256TIP3    H273260   3.847   5.009  17.292 -0.6893  0.7728  1.9859
17257TIP3   OH273261   5.595   4.314  11.265  0.1283 -0.1459  0.0471
17257TIP3    H173262   5.604   4.304  11.171 -1.1344 -0.6741 -0.0269
17257TIP3    H273263   5.527   4.381  11.276  0.6292  0.2881  0.5852
17258TIP3   OH273264   1.973   1.776  10.647 -0.7801  0.0643 -0.2853
17258TIP3    H173265   2.041   1.739  10.590 -0.2908  0.3272  0.1215
17258TIP3    H273266   1.905   1.805  10.586 -1.0259 -1.1927 -0.6269
17259TIP3   OH273267   5.028   3.619   5.104  0.1119  0.0994 -0.1383
17259TIP3    H173268   4.987   3.622   5.018 -1.7143  0.0358  0.7158
17259TIP3    H273269   5.117   3.653   5.089  0.4081 -1.5288 -2.3458
17260TIP3   OH273270   0.569   5.295   6.347  0.6546 -0.1924  0.2077
17260TIP3    H173271   0.571   5.388   6.369  0.8079  0.3986 -2.1361
17260TIP3    H273272   0.475   5.272   6.346  0.6754 -0.3961  2.0333
17261TIP3   OH273273   2.712   3.190  15.769 -0.3271  0.2788  0.3102
17261TIP3    H173274   2.677   3.130  15.703  2.3593 -0.2162 -0.7404
17261TIP3    H273275   2.688   3.150  15.853  1.8948 -2.6115 -0.3731
17262TIP3   OH273276   0.052   2.644   5.677 -0.2683 -0.2817 -0.3950
17262TIP3    H173277   0.060   2.720   5.619  2.6196 -0.5193 -0.3818
17262TIP3    H273278  -0.033   2.655   5.719 -1.6395  0.8568 -3.3001
17263TIP3   OH273279   6.494   3.108  13.365 -0.4489 -0.4714 -0.0555
17263TIP3    H173280   6.575   3.063  13.346 -0.2875 -1.3116  2.3808
17263TIP3    H273281   6.481   3.169  13.292  3.6726  1.4917  0.7225
17264TIP3   OH273282   2.303   3.511  15.529 -0.4675  0.0401 -0.3609
17264TIP3    H173283   2.244   3.559  15.587  0.4026  0.7572 -0.0570
17264TIP3    H273284   2.302   3.563  15.448  0.3609  0.4971 -0.0815
17265TIP3   OH273285   3.444   5.579   0.424 -0.4385  0.0168  0.6435
17265TIP3    H173286   3.363   5.623   0.397 -1.7882 -2.4046  0.5242
17265TIP3    H273287   3.443   5.584   0.520 -1.4715 -1.1807  0.7158
17266TIP3   OH273288   6.186   1.620  12.727  0.8724  0.4049  0.2278
17266TIP3    H173289   6.267   1.585  12.689  0.8279  0.3420  0.1891
17266TIP3    H273290   6.213   1.654  12.812  0.9620  0.4932  0.1634
17267TIP3   OH273291   2.341   2.407   0.420 -0.3762 -0.1877  0.0240
17267TIP3    H173292   2.365   2.442   0.334 -2.7343  0.0246 -0.5949
17267TIP3    H273293   2.359   2.477   0.481  4.5351 -1.4777  0.2399
17268TIP3   OH273294   0.768   3.721  13.561  0.2475 -0.1667  0.5987
17268TIP3    H173295   0.677   3.749  13.571  0.5675  0.6586  1.2646
17268TIP3    H273296   0.799   3.767  13.483  0.6849  1.1307  1.5243
17269TIP3   OH273297   0.642   2.492   0.287 -0.1320  0.3287  0.3333
17269TIP3    H173298   0.592   2.412   0.302  0.6870  0.1753  2.5044
17269TIP3    H273299   0.577   2.562   0.287 -0.6235 -0.1262  0.5899
17270TIP3   OH273300   0.958   6.360   0.497  0.1042  0.0842 -0.2457
17270TIP3    H173301   1.006   6.312   0.429  1.7360  2.5409 -0.9002
17270TIP3    H273302   0.866   6.347   0.476  0.5826 -0.3368 -2.1191
17271TIP3   OH273303   1.678   5.376  17.017  0.1715 -0.2938 -0.8801
17271TIP3    H173304   1.725   5.293  17.013  0.8695  0.0717 -0.3762
17271TIP3    H273305   1.592   5.354  17.052  0.9503 -0.5534  0.8979
17272TIP3   OH273306   5.569   5.806  13.349  0.4474  0.3504 -0.1957
17272TIP3    H173307   5.552   5.892  13.311  0.0246  0.6001  0.5520
17272TIP3    H273308   5.487   5.781  13.390  0.0368 -1.1675 -1.8558
17273TIP3   OH273309   1.594   0.667   6.627 -0.2643  0.0424  0.2638
17273TIP3    H173310   1.538   0.613   6.683 -0.9359 -0.0969 -0.5351
17273TIP3    H273311   1.683   0.636   6.645 -0.4988 -0.2136  1.0121
17274TIP3   OH273312   6.250   5.351  16.225  0.2925  0.0613 -0.6320
17274TIP3    H173313   6.171   5.299  16.212  0.0507  0.2113  0.1726
17274TIP3    H273314   6.311   5.292  16.269 -0.3410  0.7307  1.2012
17275TIP3   OH273315   6.514   6.120  12.819  0.6170 -0.4255 -0.2075
17275TIP3    H173316   6.481   6.081  12.900 -0.9666  0.1487 -0.5449
17275TIP3    H273317   6.546   6.206  12.845 -0.6291  0.0831 -0.2963
17276TIP3   OH273318   3.862   2.773   3.137  0.1304  0.3355 -0.6132
17276TIP3    H173319   3.879   2.687   3.099 -1.2392 -0.3334  0.2405
17276TIP3    H273320   3.948   2.810   3.155  0.8162  0.4976 -3.9562
17277TIP3   OH273321   4.091   5.365  15.082 -0.2248  0.0596  0.4481
17277TIP3    H173322   4.027   5.351  15.152 -0.8383 -2.3027 -0.5663
17277TIP3    H273323   4.088   5.460  15.066 -0.7843  0.4908  2.9186
17278TIP3   OH273324   4.473   1.438  10.625  0.4423  0.5612  0.1060
17278TIP3    H173325   4.428   1.448  10.541 -0.7846  0.5558  0.7435
17278TIP3    H273326   4.408   1.396  10.682  1.6580 -0.5190  0.7221
17279TIP3   OH273327   6.396   1.709  14.295 -0.1144  0.5548  0.1985
17279TIP3    H173328   6.305   1.739  14.298 -0.6342 -0.6697 -2.1570
17279TIP3    H273329   6.395   1.636  14.233  2.4180  0.2914  0.4165
17280TIP3   OH273330   6.606   2.894  15.307 -0.4458 -0.1329  0.0590
17280TIP3    H173331   6.672   2.826  15.305  2.2023  2.3207  0.2765
17280TIP3    H273332   6.522   2.847  15.315  1.4123 -3.2160  2.4351
17281TIP3   OH273333   5.361   2.479  11.173 -0.8027  0.0468  0.1826
17281TIP3    H173334   5.406   2.468  11.090  2.0915  1.7597  1.4382
17281TIP3    H273335   5.356   2.391  11.210 -0.8346 -0.5140 -1.1263
17282TIP3   OH273336   2.959   5.712  15.756  0.2982 -0.0714  0.3710
17282TIP3    H173337   2.968   5.675  15.668  2.3133  2.7482 -0.6947
17282TIP3    H273338   3.049   5.729  15.785 -0.4377  1.3444  1.9359
17283TIP3   OH273339   5.648   6.521   4.442  0.0459 -0.0787 -0.6439
17283TIP3    H173340   5.655   6.429   4.468  0.9859 -0.5099 -2.3357
17283TIP3    H273341   5.695   6.526   4.358 -0.5249  1.8170 -0.8789
17284TIP3   OH273342   5.336   5.773   4.205  0.0466  0.1309 -0.0945
17284TIP3    H173343   5.322   5.796   4.113  1.4462 -1.2712 -0.6765
17284TIP3    H273344   5.297   5.687   4.216  0.0313  0.2183  0.5875
17285TIP3   OH273345   1.934   2.198   3.417  0.4468 -0.4858  0.0182
17285TIP3    H173346   1.933   2.113   3.460 -0.6765  0.0603  1.1116
17285TIP3    H273347   1.929   2.261   3.489  0.0006  0.4821 -0.8466
17286TIP3   OH273348   6.536   1.801   3.183 -0.0544 -0.3092  0.2057
17286TIP3    H173349   6.613   1.806   3.241  1.1567 -0.2978 -1.3561
17286TIP3    H273350   6.554   1.726   3.127 -1.8677 -1.1587  0.7245
17287TIP3   OH273351   1.313   3.472  16.560 -0.2636  0.3617 -0.2472
17287TIP3    H173352   1.391   3.487  16.507  0.9884 -1.8176  0.8904
17287TIP3    H273353   1.327   3.523  16.639 -0.4601  0.7850 -0.4894
17288TIP3   OH273354   1.506   5.676   1.429  0.1702  0.0823 -0.4058
17288TIP3    H173355   1.500   5.626   1.511 -0.7407  0.7506 -0.0552
17288TIP3    H273356   1.596   5.663   1.400 -0.0914 -1.8913 -0.4019
17289TIP3   OH273357   6.044   0.359  15.764  0.5426 -0.2731  0.1663
17289TIP3    H173358   5.976   0.315  15.816  1.7786 -1.6973  0.5900
17289TIP3    H273359   6.055   0.443  15.808 -1.2028  0.1386 -0.1297
17290TIP3   OH273360   0.495   2.586  12.357  0.2809 -0.1269 -0.0194
17290TIP3    H173361   0.533   2.507  12.320 -0.7134  0.4729 -2.3475
17290TIP3    H273362   0.426   2.611  12.297  0.2034  2.2042  0.9784
17291TIP3   OH273363   1.715   6.490   0.319 -0.3079  0.4216  0.1232
17291TIP3    H173364   1.756   6.440   0.248  1.0138  0.2813  0.9678
17291TIP3    H273365   1.679   6.567   0.277 -0.5813 -0.2465 -0.8848
17292TIP3   OH273366   4.014   3.402  13.330 -0.4534 -0.2761 -0.4010
17292TIP3    H173367   4.000   3.496  13.340  1.5024  0.1986 -1.8831
17292TIP3    H273368   3.926   3.365  13.333 -1.4590  1.8441 -2.1341
17293TIP3   OH273369   0.438   4.845  13.888  0.2679  0.0320  0.4772
17293TIP3    H173370   0.442   4.754  13.915  0.2216  0.2647  1.2657
17293TIP3    H273371   0.528   4.877  13.897  0.7862 -0.5565 -2.0099
17294TIP3   OH273372   1.719   0.125   1.754 -0.1674 -0.0638  0.0858
17294TIP3    H173373   1.685   0.125   1.843 -0.5737 -0.3280 -0.0674
17294TIP3    H273374   1.812   0.104   1.763 -0.2116 -0.0976  0.4441
17295TIP3   OH273375   2.255   5.442  16.454 -0.3016 -0.5597  0.0342
17295TIP3    H173376   2.297   5.474  16.534  0.5077  1.0991 -1.0237
17295TIP3    H273377   2.171   5.487  16.451 -2.0239 -3.5014  1.8936
17296TIP3   OH273378   1.708   2.360   2.403 -0.4554 -0.0824 -0.1496
17296TIP3    H173379   1.748   2.408   2.475 -2.1203  0.2219  0.5954
17296TIP3    H273380   1.614   2.363   2.421 -1.0171  1.1016 -2.9902
17297TIP3   OH273381   5.628   4.960  16.488 -0.3486  0.8614 -0.1383
17297TIP3    H173382   5.551   4.932  16.438 -1.0585  2.6791 -0.1255
17297TIP3    H273383   5.659   5.038  16.442 -0.0052  1.5845  1.2778
17298TIP3   OH273384   1.631   3.738   5.912  0.1285  0.5905  0.0008
17298TIP3    H173385   1.690   3.788   5.855  0.5380  1.0637  0.8337
17298TIP3    H273386   1.690   3.694   5.973 -0.0534 -2.5775 -1.9907
17299TIP3   OH273387   6.222   2.114  12.753  0.1637 -0.2588  0.0538
17299TIP3    H173388   6.170   2.038  12.778 -1.5781  1.8787  3.4413
17299TIP3    H273389   6.172   2.154  12.682  0.5803 -1.7461 -1.0815
17300TIP3   OH273390   2.650   5.909  12.873  0.2443 -0.1777 -0.3418
17300TIP3    H173391   2.658   5.814  12.864  1.1103 -0.1405 -0.0103
17300TIP3    H273392   2.557   5.925  12.886  0.1577 -1.0190  0.0575
17301TIP3   OH273393   0.557   4.229   5.096 -0.0920  0.7524 -0.1760
17301TIP3    H173394   0.552   4.255   5.004  0.4867  2.3870  0.2271
17301TIP3    H273395   0.598   4.143   5.095  0.4626  1.0274 -1.4140
17302TIP3   OH273396   5.512   6.116  11.075 -0.2695  0.2989 -0.0962
17302TIP3    H173397   5.466   6.080  10.999  0.3630  0.5884 -0.6175
17302TIP3    H273398   5.541   6.202  11.046  0.2861  0.2649  0.3654
17303TIP3   OH273399   5.285   2.272   0.580 -0.8175 -0.0050  0.7008
17303TIP3    H173400   5.301   2.180   0.561  1.8132  0.3745  0.8032
17303TIP3    H273401   5.244   2.307   0.501 -0.4241 -0.9252  0.0911
17304TIP3   OH273402   5.661   5.607   3.722  0.3213  0.1661 -0.3525
17304TIP3    H173403   5.596   5.603   3.792  1.8901  1.0227  1.2093
17304TIP3    H273404   5.611   5.625   3.643 -1.4298 -0.2065  0.6582
17305TIP3   OH273405   3.691   5.543  13.916 -0.1408 -0.4917  0.0589
17305TIP3    H173406   3.766   5.532  13.975  0.4131  1.0015 -0.3367
17305TIP3    H273407   3.718   5.612  13.856 -1.7230 -0.1544 -0.2935
17306TIP3   OH273408   5.644   2.495  12.068 -0.0084  0.0831 -0.3772
17306TIP3    H173409   5.579   2.548  12.021  1.3505  1.0107 -1.2566
17306TIP3    H273410   5.684   2.441  12.000  0.1033 -0.5258  0.1700
17307TIP3   OH273411   1.332   3.875  14.324  0.1839  0.2921  0.1098
17307TIP3    H173412   1.369   3.804  14.375 -0.1318 -0.6376 -0.9428
17307TIP3    H273413   1.379   3.953  14.354  1.6630 -0.5953  0.1217
17308TIP3   OH273414   0.591   1.956  13.695  0.1422 -0.0049  0.3566
17308TIP3    H173415   0.660   1.923  13.752  0.8207 -0.4678 -0.7222
17308TIP3    H273416   0.637   2.010  13.630 -0.7754  1.7568  1.1320
17309TIP3   OH273417   2.303   6.366  13.516 -0.0865 -0.0074 -0.0145
17309TIP3    H173418   2.388   6.321  13.515  0.7340  1.5306 -0.7197
17309TIP3    H273419   2.266   6.349  13.429 -0.2990 -0.2674  0.1243
17310TIP3   OH273420   4.694   6.551   0.203 -0.4352 -0.0179 -0.5517
17310TIP3    H173421   4.727   6.461   0.193 -2.5958 -0.9183  0.1341
17310TIP3    H273422   4.690   6.564   0.298  1.2414  1.3402 -0.6566
17311TIP3   OH273423   0.407   5.757  14.244  0.0395  0.2424  0.4842
17311TIP3    H173424   0.455   5.742  14.325 -0.1972  3.0297  1.1953
17311TIP3    H273425   0.475   5.777  14.179  0.1107 -0.0729  0.4620
17312TIP3   OH273426   4.474   1.353   3.213 -0.0048 -0.5383 -0.1287
17312TIP3    H173427   4.543   1.289   3.193  0.1567 -1.3137  2.7240
17312TIP3    H273428   4.392   1.305   3.202  0.0183 -0.5230 -0.3782
17313TIP3   OH273429   3.073   1.034  15.583 -0.2365 -0.4231  0.3267
17313TIP3    H173430   2.985   1.029  15.546 -0.1047 -0.3628 -0.0030
17313TIP3    H273431   3.075   0.969  15.652 -0.2331 -1.1158 -0.3201
17314TIP3   OH273432   3.704   0.471   0.053 -0.0370 -0.2398 -0.0018
17314TIP3    H173433   3.701   0.564   0.029 -1.3749 -0.7222 -1.7786
17314TIP3    H273434   3.757   0.469   0.132  1.1533  1.8810 -0.7020
17315TIP3   OH273435   5.156   1.288  15.997  0.0443 -0.2405  0.1701
17315TIP3    H173436   5.199   1.317  15.917  0.4213  0.4066  0.6031
17315TIP3    H273437   5.074   1.337  16.000 -0.1107 -0.4900  0.0249
17316TIP3   OH273438   0.450   5.784  15.310  0.5474  0.4506  0.2267
17316TIP3    H173439   0.479   5.874  15.323 -0.2776  0.7038  0.3484
17316TIP3    H273440   0.365   5.779  15.354  1.2619 -0.7946  1.5003
17317TIP3   OH273441   0.753   0.274  13.992 -0.0646  0.1247  0.4117
17317TIP3    H173442   0.659   0.255  14.000  0.1706 -1.0778  0.3507
17317TIP3    H273443   0.794   0.223  14.061  0.6980 -0.5594 -0.5340
17318TIP3   OH273444   6.753   3.673   0.488 -0.1528  0.3848 -0.7186
17318TIP3    H173445   6.758   3.587   0.445  5.4971  1.3443 -2.3878
17318TIP3    H273446   6.742   3.652   0.581  1.0628 -2.2069 -1.1038
17319TIP3   OH273447   5.723   0.708  11.037  0.0553  0.3902  0.6530
17319TIP3    H173448   5.651   0.764  11.007 -0.1848 -0.1228  0.2602
17319TIP3    H273449   5.799   0.739  10.988 -0.2848 -0.2744 -0.3129
17320TIP3   OH273450   5.129   2.070   1.096  0.1791 -0.0190 -0.1460
17320TIP3    H173451   5.186   2.129   1.145  0.5715  0.4352 -1.1399
17320TIP3    H273452   5.050   2.063   1.149  0.5752  0.5086  0.5179
17321TIP3   OH273453   1.664   4.729  14.324 -0.0073 -0.4312 -0.2002
17321TIP3    H173454   1.711   4.813  14.317  0.6945 -0.7639  0.4047
17321TIP3    H273455   1.575   4.754  14.349 -0.1849  0.2191 -1.4513
17322TIP3   OH273456   4.003   6.407  15.892 -0.4354 -0.5974  0.7806
17322TIP3    H173457   4.087   6.452  15.884 -0.3745 -0.7089  0.7906
17322TIP3    H273458   4.025   6.314  15.893 -0.5330 -0.6190  1.0979
17323TIP3   OH273459   6.437   2.478  14.080  0.5171 -0.2206 -0.5056
17323TIP3    H173460   6.479   2.471  13.994  0.2981  0.7337 -0.6985
17323TIP3    H273461   6.419   2.388  14.105  1.7398 -0.5794 -0.8868
17324TIP3   OH273462   4.056   1.242   6.289 -0.0397  0.5323 -0.3314
17324TIP3    H173463   4.114   1.278   6.222 -1.8666  3.0828 -0.6418
17324TIP3    H273464   4.102   1.255   6.371  1.9365 -2.0087 -0.9714
17325TIP3   OH273465   2.637   5.163   3.633 -0.7803  0.1560 -0.5962
17325TIP3    H173466   2.719   5.128   3.598 -0.7196  0.7765 -1.0926
17325TIP3    H273467   2.659   5.191   3.722  0.0313  2.0685 -1.3833
17326TIP3   OH273468   6.133   2.405   5.181 -0.3538 -0.4911 -0.3720
17326TIP3    H173469   6.075   2.345   5.229 -1.3856  0.8656  0.1219
17326TIP3    H273470   6.137   2.483   5.236  0.7907 -0.0122 -1.1188
17327TIP3   OH273471   2.102   1.238   2.935  0.0428  0.1313  0.0745
17327TIP3    H173472   2.109   1.150   2.897  2.9018 -0.4303  1.7920
17327TIP3    H273473   2.165   1.290   2.885 -0.1740  0.7042  0.3997
17328TIP3   OH273474   2.251   2.690  14.692 -0.0686  0.0983  0.6759
17328TIP3    H173475   2.308   2.719  14.764 -2.4201 -0.1505  2.7066
17328TIP3    H273476   2.226   2.601  14.716 -1.0239  0.0813 -0.3677
17329TIP3   OH273477   0.626   2.145  14.951 -0.6631  0.5807  0.2789
17329TIP3    H173478   0.689   2.074  14.957 -0.3909  1.0259  3.7485
17329TIP3    H273479   0.547   2.105  14.916 -0.9176 -1.8011  3.3835
17330TIP3   OH273480   0.746   0.647   6.153  0.2761 -0.3915  0.5429
17330TIP3    H173481   0.781   0.706   6.219 -0.7377  0.6934  0.1198
17330TIP3    H273482   0.725   0.567   6.202 -2.0211  0.9792  1.8715
17331TIP3   OH273483   3.476   6.548  14.409 -0.0504  0.0459 -0.1049
17331TIP3    H173484   3.479   6.459  14.375 -0.6897 -0.2752  0.6740
17331TIP3    H273485   3.496   6.603  14.333 -1.6205 -0.6616 -1.0663
17332TIP3   OH273486   4.934   4.687  15.045  0.0347  0.1629  0.1147
17332TIP3    H173487   4.939   4.600  15.084  0.9548 -0.3555 -1.1338
17332TIP3    H273488   5.019   4.727  15.064  0.0366  0.3616 -0.3021
17333TIP3   OH273489   5.361   5.571  16.073 -0.6643  0.8922 -0.2331
17333TIP3    H173490   5.374   5.635  16.143  1.6453  0.2145 -0.0259
17333TIP3    H273491   5.375   5.622  15.993  2.7499  0.3577 -0.0371
17334TIP3   OH273492   5.754   3.104  17.083 -0.4516 -0.6392  0.1537
17334TIP3    H173493   5.787   3.121  16.995  1.7192  0.4565  1.1357
17334TIP3    H273494   5.663   3.134  17.081 -0.5384 -1.0009 -1.8232
17335TIP3   OH273495   4.521   6.534  14.267  0.3115 -0.3416 -0.4682
17335TIP3    H173496   4.553   6.599  14.205  2.3245  0.7490  1.6586
17335TIP3    H273497   4.482   6.585  14.338 -1.4680 -1.5589 -0.5075
17336TIP3   OH273498   3.147   3.049  13.166  0.2542 -0.1373 -0.1147
17336TIP3    H173499   3.149   3.078  13.257 -0.8934 -1.8656  0.4829
17336TIP3    H273500   3.114   3.125  13.118  0.4976  0.6580  0.9512
17337TIP3   OH273501   6.159   1.332  13.039 -0.4894 -0.0004 -0.5055
17337TIP3    H173502   6.127   1.244  13.017 -2.4285  0.5457  0.0813
17337TIP3    H273503   6.080   1.383  13.056  0.6131  1.9018 -0.9484
17338TIP3   OH273504   6.703   2.627  16.109 -0.3237 -0.3260  0.3879
17338TIP3    H173505   6.632   2.652  16.169  0.8581  0.5631  1.4330
17338TIP3    H273506   6.728   2.539  16.136 -2.0402 -1.2637 -0.9630
17339TIP3   OH273507   1.778   5.657  11.018  0.3049  0.5403 -0.0919
17339TIP3    H173508   1.694   5.663  10.973  0.4228  1.3176 -0.2092
17339TIP3    H273509   1.757   5.623  11.105  0.0867 -1.1149 -0.7633
17340TIP3   OH273510   6.684   3.478   6.381  0.5782  0.8525 -0.1260
17340TIP3    H173511   6.603   3.432   6.357  1.8709 -1.5387 -0.0634
17340TIP3    H273512   6.687   3.473   6.477  1.1997  0.1990 -0.1742
17341TIP3   OH273513   6.000   0.426  10.868  0.0815 -0.4858 -0.4370
17341TIP3    H173514   5.968   0.502  10.819  0.1280 -0.1521  0.0365
17341TIP3    H273515   6.083   0.403  10.825  0.3607  0.1000 -0.2275
17342TIP3   OH273516   2.216   2.818  15.306 -0.2076  0.6365  0.3647
17342TIP3    H173517   2.134   2.776  15.278 -1.4221  1.8333  2.0293
17342TIP3    H273518   2.273   2.745  15.331 -0.8897 -0.1960 -0.4390
17343TIP3   OH273519   2.090   1.562  13.616 -0.3402 -0.0623 -0.3839
17343TIP3    H173520   2.160   1.527  13.671  0.2259 -0.2774 -1.2485
17343TIP3    H273521   2.059   1.639  13.664  2.2232  1.5641 -1.2221
17344TIP3   OH273522   2.804   2.039  15.904  0.0760 -0.0659  0.5843
17344TIP3    H173523   2.816   1.951  15.869 -0.4379  1.2186 -3.0011
17344TIP3    H273524   2.885   2.057  15.951  2.0178 -0.8709 -2.2892
17345TIP3   OH273525   6.613   3.659   1.259  0.2794 -0.1606  0.2038
17345TIP3    H173526   6.567   3.688   1.181  0.8246 -0.2253 -0.1519
17345TIP3    H273527   6.559   3.589   1.295  0.5417 -0.8395 -0.7047
17346TIP3   OH273528   0.103   6.756   4.679  0.5713  0.0463 -0.2041
17346TIP3    H173529   0.045   6.771   4.753  1.5223 -0.9552  0.7694
17346TIP3    H273530   0.046   6.725   4.609 -0.4101  1.5348 -0.0798
17347TIP3   OH273531   0.107   4.223  13.834 -0.3730 -0.0740  0.0021
17347TIP3    H173532   0.143   4.135  13.826 -0.3649 -0.1529  0.8289
17347TIP3    H273533   0.102   4.256  13.744 -0.9504 -1.1423 -0.3619
17348TIP3   OH273534   5.991   5.154   1.870  0.0434 -0.4814  0.0091
17348TIP3    H173535   5.972   5.072   1.915  0.6854 -0.8440 -0.3694
17348TIP3    H273536   5.915   5.168   1.813  0.5011 -1.4827 -0.8732
17349TIP3   OH273537   3.698   3.579  16.952  0.1177  0.1038 -0.0606
17349TIP3    H173538   3.630   3.623  16.902 -0.9982 -0.9459  0.5008
17349TIP3    H273539   3.702   3.491  16.916  1.1601  0.1521 -0.0705
17350TIP3   OH273540   2.991   4.780  11.029  0.2723  0.1107 -0.3842
17350TIP3    H173541   3.032   4.771  10.943 -0.1743 -0.7779 -0.5070
17350TIP3    H273542   2.918   4.841  11.015  1.4906  1.6522 -0.1725
17351TIP3   OH273543   3.561   4.391  15.237 -0.2474  0.0747 -0.1106
17351TIP3    H173544   3.486   4.405  15.179 -0.2492 -0.7570 -0.3093
17351TIP3    H273545   3.542   4.446  15.313 -0.6934  0.4466 -0.4828
17352TIP3   OH273546   0.557   6.477  13.633  0.0476  0.0793 -0.1005
17352TIP3    H173547   0.486   6.415  13.613  0.7216 -0.1964 -1.6714
17352TIP3    H273548   0.558   6.538  13.559  0.6149  0.8646  0.5399
17353TIP3   OH273549   4.465   1.614  12.916  0.1526  0.5499 -0.5595
17353TIP3    H173550   4.471   1.709  12.927 -1.3202  0.3967  1.9488
17353TIP3    H273551   4.538   1.580  12.968 -0.4060  0.2455  0.0291
17354TIP3   OH273552   2.683   3.561   2.870  0.5853 -0.6270  0.4140
17354TIP3    H173553   2.685   3.633   2.807  2.1216 -1.4957 -0.5651
17354TIP3    H273554   2.599   3.519   2.855  0.4921 -0.1880 -0.3338
17355TIP3   OH273555   2.455   5.269  12.322 -0.2959 -0.7001  0.2300
17355TIP3    H173556   2.432   5.316  12.402 -2.8700  0.5850 -1.1802
17355TIP3    H273557   2.514   5.330  12.276  0.9448 -1.3126  0.9830
17356TIP3   OH273558   0.576   0.391   3.271  0.3098 -0.1315  0.0153
17356TIP3    H173559   0.493   0.365   3.310  0.0046 -0.3123 -0.7516
17356TIP3    H273560   0.566   0.485   3.254  1.0519  0.3121  1.8786
17357TIP3   OH273561   1.326   2.207   5.193 -0.0098  0.2880 -0.0735
17357TIP3    H173562   1.421   2.195   5.196 -0.0307  0.3139  0.9315
17357TIP3    H273563   1.305   2.211   5.100  1.3412  3.1049 -0.3352
17358TIP3   OH273564   1.101   4.392   4.063  0.6750 -0.3381 -0.4270
17358TIP3    H173565   1.006   4.395   4.078  0.6481 -0.3271 -0.6040
17358TIP3    H273566   1.121   4.298   4.059  0.8783 -0.3749  0.9414
17359TIP3   OH273567   1.415   1.229   5.460  0.5865  0.3263  0.0033
17359TIP3    H173568   1.337   1.173   5.456  0.2564  0.6470  1.6030
17359TIP3    H273569   1.486   1.171   5.434  0.3353 -1.0650  2.1993
17360TIP3   OH273570   5.869   0.360   1.998  0.1899  0.4118  0.2993
17360TIP3    H173571   5.961   0.335   2.008 -0.4764 -1.7554  1.2743
17360TIP3    H273572   5.847   0.401   2.082 -0.3338 -1.1190  0.9275
17361TIP3   OH273573   4.389   5.113   2.227 -0.0123  0.5280  0.4251
17361TIP3    H173574   4.414   5.205   2.221 -0.4773  0.5678 -1.1663
17361TIP3    H273575   4.452   5.067   2.171 -1.1220  0.1713 -0.5730
17362TIP3   OH273576   2.469   0.999  15.634 -0.2985 -0.1896 -0.2969
17362TIP3    H173577   2.439   1.049  15.710 -0.1091 -0.0234 -0.3324
17362TIP3    H273578   2.449   1.056  15.559 -1.6115 -0.8664 -0.4711
17363TIP3   OH273579   1.785   5.500   5.150 -0.3555 -0.3796 -0.1751
17363TIP3    H173580   1.789   5.407   5.172  0.5023 -0.0370  1.2246
17363TIP3    H273581   1.853   5.540   5.204 -0.8089  1.0827 -0.6602
17364TIP3   OH273582   4.872   1.987  12.433  0.2478 -0.4622  0.4699
17364TIP3    H173583   4.936   2.034  12.379 -0.7232 -0.0035 -0.2824
17364TIP3    H273584   4.796   1.977  12.377 -2.2194  3.3686  2.9514
17365TIP3   OH273585   5.998   4.855   2.878  0.0533 -0.3834 -0.4491
17365TIP3    H173586   5.957   4.921   2.821 -0.0735  1.1448  1.3546
17365TIP3    H273587   5.942   4.853   2.955  1.7438 -0.4061  0.7956
17366TIP3   OH273588   0.507   5.131   1.549  0.2633  0.2034 -0.8047
17366TIP3    H173589   0.463   5.052   1.518  0.8832 -0.0934 -0.9408
17366TIP3    H273590   0.522   5.115   1.643  0.0526  0.3204 -0.7500
17367TIP3   OH273591   4.689   1.415   1.149  0.3767  0.1258 -0.1043
17367TIP3    H173592   4.728   1.334   1.116  0.1939  0.3355 -0.8532
17367TIP3    H273593   4.762   1.477   1.154  0.6531 -0.3007  1.1779
17368TIP3   OH273594   2.044   3.105  13.619 -0.4217 -0.2751 -0.3576
17368TIP3    H173595   2.122   3.130  13.570 -0.9813 -1.2811 -1.7843
17368TIP3    H273596   2.041   3.166  13.692  1.0536  0.5167 -0.9455
17369TIP3   OH273597   6.012   4.775   3.608 -0.0092 -0.6034  0.0225
17369TIP3    H173598   6.083   4.819   3.654 -0.3360  0.6279 -0.6218
17369TIP3    H273599   5.980   4.709   3.670  0.6941 -0.1373  0.8880
17370TIP3   OH273600   4.598   6.151   2.613  0.0594  0.4609 -0.0991
17370TIP3    H173601   4.568   6.100   2.689  0.2320  1.2886  0.5310
17370TIP3    H273602   4.671   6.203   2.647  0.0112  0.9828 -0.7897
17371TIP3   OH273603   3.231   3.359  13.236 -0.1498  0.6757  0.2108
17371TIP3    H173604   3.312   3.390  13.195  0.0206  0.0209  0.0561
17371TIP3    H273605   3.188   3.305  13.170 -1.4308  2.1819 -0.2132
17372TIP3   OH273606   4.468   0.512  12.998 -1.0102 -0.2255  0.3635
17372TIP3    H173607   4.427   0.584  13.045  0.6814  1.1466 -0.2285
17372TIP3    H273608   4.425   0.434  13.033 -1.9745  0.9689  1.9257
17373TIP3   OH273609   2.349   5.439  12.514 -0.3513 -0.0948  0.1185
17373TIP3    H173610   2.254   5.449  12.511 -0.3640 -0.3139 -0.2673
17373TIP3    H273611   2.381   5.520  12.555 -0.7532 -0.3248  0.9088
17374TIP3   OH273612   0.738   1.213  13.928 -0.3080  0.2762  0.2828
17374TIP3    H173613   0.648   1.228  13.955 -0.5598 -0.2994 -0.2165
17374TIP3    H273614   0.731   1.162  13.847  0.4603  0.3054  0.1897
17375TIP3   OH273615   4.062   4.989   4.699  0.0148  0.3131  0.3435
17375TIP3    H173616   4.039   4.896   4.702  0.2499  0.2442  0.0313
17375TIP3    H273617   3.999   5.027   4.638  0.8715  0.0769 -0.7194
17376TIP3   OH273618   5.736   2.757  16.493 -0.5213  0.4794  0.1287
17376TIP3    H173619   5.687   2.760  16.411 -0.2852  2.0785  0.0236
17376TIP3    H273620   5.772   2.846  16.502  1.8590 -0.4944  0.4984
17377TIP3   OH273621   5.107   5.754  12.721 -0.2474 -0.6477  0.1202
17377TIP3    H173622   5.039   5.800  12.672 -1.9767 -1.5971  1.5536
17377TIP3    H273623   5.101   5.790  12.810  3.8081  2.0947 -0.5776
17378TIP3   OH273624   2.790   1.096  12.066  0.0073  0.1234  0.0142
17378TIP3    H173625   2.742   1.100  11.983  0.5967 -0.9026 -0.3821
17378TIP3    H273626   2.838   1.179  12.069 -1.6427  1.0987  0.3441
17379TIP3   OH273627   0.643   1.266  16.555 -0.6295  1.0473  0.1186
17379TIP3    H173628   0.729   1.255  16.515 -1.3049 -3.2742 -0.3660
17379TIP3    H273629   0.594   1.316  16.490  0.3399  0.0152 -1.4509
17380TIP3   OH273630   5.015   2.305   4.571 -0.3777 -0.4794 -0.7035
17380TIP3    H173631   4.969   2.252   4.636  0.8563 -0.1927  0.4249
17380TIP3    H273632   5.081   2.352   4.621  1.0085 -0.7305 -2.2635
17381TIP3   OH273633   3.660   2.539  17.265 -0.6233  0.0798 -0.1992
17381TIP3    H173634   3.725   2.529  17.335  0.0553  1.9929 -0.5294
17381TIP3    H273635   3.686   2.474  17.200 -0.6346 -0.9922  0.8509
17382TIP3   OH273636   5.098   0.190   3.205  0.5890 -0.0603 -0.2323
17382TIP3    H173637   5.133   0.266   3.251 -1.9444  1.2382 -0.3464
17382TIP3    H273638   5.114   0.209   3.112 -1.0145  0.8567 -0.3267
17383TIP3   OH273639   5.709   0.342   0.947 -0.2241 -0.0196 -0.0423
17383TIP3    H173640   5.627   0.384   0.919  0.2072  0.8696  0.0129
17383TIP3    H273641   5.749   0.405   1.007 -0.3849 -1.2470  1.3738
17384TIP3   OH273642   0.619   4.686  14.510  0.1003 -0.5385  0.0710
17384TIP3    H173643   0.662   4.628  14.573  0.6586  1.0887  1.2520
17384TIP3    H273644   0.648   4.655  14.424  2.7890 -0.1831  0.8016
17385TIP3   OH273645   2.980   3.738   3.776  0.3802  0.3415  0.0436
17385TIP3    H173646   2.916   3.803   3.746  0.2183 -0.5947 -1.7594
17385TIP3    H273647   3.039   3.787   3.833 -0.2344  1.8813 -0.5977
17386TIP3   OH273648   0.312   6.004   0.943 -0.1591 -0.0693 -0.3485
17386TIP3    H173649   0.220   6.009   0.917 -0.5606 -1.0138  0.8114
17386TIP3    H273650   0.339   6.095   0.953 -0.8341  0.2228 -1.1320
17387TIP3   OH273651   0.175   0.773  12.070  0.1361 -0.0149 -0.1774
17387TIP3    H173652   0.104   0.793  12.130  0.1963  0.4428 -0.2583
17387TIP3    H273653   0.142   0.701  12.017  0.3141 -0.8302  0.8137
17388TIP3   OH273654   6.397   1.833   5.414 -0.8779  0.6330  0.0813
17388TIP3    H173655   6.409   1.738   5.403 -2.7026  0.5242 -1.3893
17388TIP3    H273656   6.374   1.844   5.506 -1.5924 -0.4735  0.0428
17389TIP3   OH273657   5.113   6.815   6.455  0.3990 -0.5131 -0.2818
17389TIP3    H173658   5.017   6.817   6.464  0.3247 -0.1726 -1.1208
17389TIP3    H273659   5.139   6.907   6.460  0.7715 -0.6645  0.7756
17390TIP3   OH273660   2.340   3.527  11.508 -0.3231 -0.7299  0.0575
17390TIP3    H173661   2.257   3.486  11.488  0.5596 -2.0744 -0.9177
17390TIP3    H273662   2.352   3.512  11.602 -1.1783 -0.5321  0.1965
17391TIP3   OH273663   5.756   5.928   3.640  0.2084 -0.3239  0.6470
17391TIP3    H173664   5.830   5.976   3.679 -0.0423  1.1533 -0.6547
17391TIP3    H273665   5.797   5.870   3.575  0.0375  2.6299 -2.2024
17392TIP3   OH273666   1.535   6.721   3.212 -0.4169  0.7504 -0.3345
17392TIP3    H173667   1.440   6.718   3.222 -0.1817  0.5455  2.1647
17392TIP3    H273668   1.565   6.778   3.283  1.2419  1.8676 -1.8741
17393TIP3   OH273669   2.910   5.925  12.524  0.2140  0.4623  0.0018
17393TIP3    H173670   2.874   6.011  12.501  1.5584  1.4030  1.3432
17393TIP3    H273671   2.921   5.929  12.619  0.1444 -1.2539  0.0854
17394TIP3   OH273672   3.262   1.539   1.624  0.0989 -0.1021  0.4962
17394TIP3    H173673   3.350   1.540   1.661  0.2042 -0.4398  0.2588
17394TIP3    H273674   3.208   1.500   1.692  0.6950 -2.9463 -0.5647
17395TIP3   OH273675   5.627   0.805  14.151 -0.0698  0.1891 -0.2406
17395TIP3    H173676   5.711   0.851  14.154 -0.4521  0.8161  0.9823
17395TIP3    H273677   5.625   0.752  14.231 -1.7613  1.8461  0.8462
17396TIP3   OH273678   2.007   0.628   3.246 -0.4476 -0.6103 -0.1272
17396TIP3    H173679   2.074   0.604   3.310 -1.4327 -1.1240  0.7124
17396TIP3    H273680   1.926   0.636   3.297 -1.1112 -0.3737 -1.1981
17397TIP3   OH273681   1.311   2.591  17.064  0.2102 -0.2326 -0.1358
17397TIP3    H173682   1.307   2.671  17.011  0.2751 -0.0765  0.0969
17397TIP3    H273683   1.316   2.622  17.154 -0.8258 -0.4997  0.0247
17398TIP3   OH273684   4.663   0.915  13.795  0.2211  0.1068  0.1797
17398TIP3    H173685   4.671   0.820  13.799  3.3873  0.2323 -1.5476
17398TIP3    H273686   4.698   0.945  13.879  1.7709 -0.1693 -0.3476
17399TIP3   OH273687   1.052   2.322   1.182 -0.4767 -0.2168  0.4204
17399TIP3    H173688   1.021   2.315   1.091 -1.1262 -2.1862  0.7583
17399TIP3    H273689   1.136   2.276   1.182 -0.8937 -1.0000  0.9840
17400TIP3   OH273690   6.392   5.419   3.665  0.3272  0.6770  0.0483
17400TIP3    H173691   6.431   5.388   3.746 -0.8336  0.1070  0.4107
17400TIP3    H273692   6.457   5.478   3.627  2.9004 -2.6298 -0.9862
17401TIP3   OH273693   0.564   0.016   0.132 -0.1468  0.1756  0.2598
17401TIP3    H173694   0.485   0.066   0.111 -0.7044 -0.3639  1.0669
17401TIP3    H273695   0.571  -0.047   0.061  0.4951  1.3040 -0.7026
17402TIP3   OH273696   3.087   2.081   3.575  0.4840  0.0726 -0.0753
17402TIP3    H173697   3.143   2.158   3.581 -0.6068  0.8600  0.1070
17402TIP3    H273698   3.097   2.051   3.485 -0.0277  1.1478 -0.4978
17403TIP3   OH273699   5.475   0.857   0.115 -0.9605 -0.5925  0.1603
17403TIP3    H173700   5.490   0.813   0.199 -2.1550 -0.9011  0.2147
17403TIP3    H273701   5.380   0.864   0.108 -0.8397  0.1605 -0.7963
17404TIP3   OH273702   5.542   5.586  13.148 -0.3443 -0.5162  0.0389
17404TIP3    H173703   5.471   5.648  13.133  0.0467  0.3699  1.7241
17404TIP3    H273704   5.498   5.501  13.157 -1.1077 -0.1036  0.2050
17405TIP3   OH273705   3.501   3.388  11.499  0.4009 -0.5381 -0.3530
17405TIP3    H173706   3.446   3.385  11.420  0.5313  0.9307 -0.5024
17405TIP3    H273707   3.579   3.337  11.475  0.2715 -0.4257 -1.0401
17406TIP3   OH273708   2.771   4.393  13.166 -0.2714 -0.2843  0.9259
17406TIP3    H173709   2.848   4.446  13.183 -0.9045  1.4259 -1.3769
17406TIP3    H273710   2.710   4.417  13.236 -0.0814  1.1216  0.6223
17407TIP3   OH273711   6.195   3.477   1.793  0.1106 -0.2576  0.4244
17407TIP3    H173712   6.279   3.449   1.758  0.1307 -1.4786  1.4098
17407TIP3    H273713   6.135   3.474   1.719  0.8161  0.0760 -0.1568
17408TIP3   OH273714   0.181   2.519   4.980  0.4664 -0.2153 -0.2713
17408TIP3    H173715   0.149   2.578   4.911  0.4993 -0.2333 -0.3022
17408TIP3    H273716   0.135   2.547   5.059  1.0597  0.3617 -0.1235
17409TIP3   OH273717   3.959   6.361   3.550 -0.0492 -0.9117  1.0128
17409TIP3    H173718   4.003   6.388   3.470 -2.0954  3.1270  1.1081
17409TIP3    H273719   4.028   6.362   3.617  0.7260  0.5717  0.2252
17410TIP3   OH273720   1.387   5.007  13.288 -0.3404  0.2656 -0.7415
17410TIP3    H173721   1.346   4.924  13.311 -0.9567  1.1298  1.3379
17410TIP3    H273722   1.398   5.003  13.193 -1.0703 -1.8602 -0.7503
17411TIP3   OH273723   1.944   5.495  15.448 -0.6900 -0.6007 -0.6141
17411TIP3    H173724   1.991   5.529  15.372  1.5484 -1.6618  0.2769
17411TIP3    H273725   1.985   5.536  15.523 -1.3580 -1.3479  0.1749
17412TIP3   OH273726   1.801   1.910   4.017 -0.1059 -0.2551 -0.8314
17412TIP3    H173727   1.737   1.858   3.967  0.8124 -2.8405  0.6237
17412TIP3    H273728   1.885   1.867   4.001  0.3599 -0.5463  2.1433
17413TIP3   OH273729   0.985   4.923   3.655 -0.1686 -0.2991  0.2891
17413TIP3    H173730   0.926   4.858   3.618 -2.0695  1.3413  0.3504
17413TIP3    H273731   1.072   4.899   3.621 -0.9972 -2.1418 -0.6176
17414TIP3   OH273732   2.065   4.724   2.683  0.0684 -0.0688 -0.4599
17414TIP3    H173733   2.143   4.730   2.738 -0.2650  0.8067 -0.0793
17414TIP3    H273734   2.069   4.802   2.628 -1.7231  1.1550  1.1097
17415TIP3   OH273735   5.004   4.980  15.859  0.3458 -0.0879 -0.2444
17415TIP3    H173736   5.081   4.998  15.914  0.8680 -0.3073 -0.8949
17415TIP3    H273737   4.939   5.044  15.887  0.6165 -0.1851  0.6157
17416TIP3   OH273738   1.700   1.603  14.792 -0.1005  0.3890 -0.1258
17416TIP3    H173739   1.731   1.694  14.798  0.2166  0.2863 -0.1864
17416TIP3    H273740   1.631   1.605  14.726 -0.1469  0.6015 -0.0694
17417TIP3   OH273741   1.931   6.345  13.888 -0.4101 -0.2690 -0.3363
17417TIP3    H173742   1.990   6.270  13.888 -0.8458 -0.6727  2.4510
17417TIP3    H273743   1.987   6.420  13.910  0.0254  0.2536 -3.1200
17418TIP3   OH273744   6.320   1.024   0.406 -0.3005  0.1539 -0.3811
17418TIP3    H173745   6.346   1.028   0.314 -0.2623  0.5641 -0.3559
17418TIP3    H273746   6.383   0.964   0.446  0.7653  1.3072 -0.2742
17419TIP3   OH273747   0.813   3.631  17.125  0.1690  0.0257  0.1895
17419TIP3    H173748   0.802   3.548  17.171  0.4384  0.0752  0.3468
17419TIP3    H273749   0.806   3.609  17.032  0.5199 -0.2194  0.2213
17420TIP3   OH273750   0.393   6.551  12.698  0.0049  0.2075  0.3010
17420TIP3    H173751   0.388   6.518  12.787 -0.3294  0.0480  0.2239
17420TIP3    H273752   0.478   6.596  12.693  0.2212 -0.1777  0.5604
17421TIP3   OH273753   2.459   1.739  11.599  0.0971  0.1724  0.6286
17421TIP3    H173754   2.535   1.710  11.549  0.3961  0.7671  0.7247
17421TIP3    H273755   2.384   1.696  11.558  0.6816 -2.0740  1.8130
17422TIP3   OH273756   3.507   2.063   0.865 -0.1612 -0.2039 -0.4950
17422TIP3    H173757   3.523   2.113   0.945  0.4408 -0.9156 -0.1717
17422TIP3    H273758   3.458   1.986   0.895  1.7628 -1.4705 -0.5216
17423TIP3   OH273759   2.226   5.079   1.382 -0.3149 -0.3930 -0.2180
17423TIP3    H173760   2.142   5.078   1.336 -0.7056  0.9575  0.4333
17423TIP3    H273761   2.235   4.990   1.417 -0.4311 -1.1784 -2.1087
17424TIP3   OH273762   0.810   0.338  15.831  0.0026  0.1793 -0.0283
17424TIP3    H173763   0.754   0.405  15.870  0.1333  0.4128 -0.2387
17424TIP3    H273764   0.890   0.340  15.884  0.4852  1.0302 -0.7755
17425TIP3   OH273765   3.977   6.141   3.827 -0.2927 -0.3784 -0.0734
17425TIP3    H173766   3.916   6.162   3.898 -0.2081  0.8744 -0.3618
17425TIP3    H273767   3.925   6.093   3.763 -1.1234  1.1716 -0.5830
17426TIP3   OH273768   1.943   0.668   6.000 -0.0033  0.1334 -0.6932
17426TIP3    H173769   1.908   0.752   6.031 -0.1548  0.0225 -0.5602
17426TIP3    H273770   1.961   0.619   6.081  0.5104  0.2079 -0.7555
17427TIP3   OH273771   4.184   4.893  15.725  0.3342 -0.2888 -0.7907
17427TIP3    H173772   4.092   4.877  15.744  0.8508 -0.8913  1.2616
17427TIP3    H273773   4.183   4.960  15.657 -1.6246 -0.6879 -1.1666
17428TIP3   OH273774   3.855   3.276   5.039 -0.5147 -0.3168  0.7747
17428TIP3    H173775   3.761   3.259   5.053 -0.4928 -1.2622 -0.1599
17428TIP3    H273776   3.871   3.249   4.949  0.9349 -1.3775  1.3277
17429TIP3   OH273777   4.138   5.728  16.770 -0.1277  0.3176  0.0721
17429TIP3    H173778   4.129   5.783  16.848 -0.9719 -0.3245  0.4285
17429TIP3    H273779   4.074   5.762  16.708 -0.3382  0.0364  0.1280
17430TIP3   OH273780   0.455   0.795   5.742 -0.3770 -0.2791  0.6878
17430TIP3    H173781   0.540   0.770   5.778  0.1272  1.1391  0.5217
17430TIP3    H273782   0.393   0.774   5.811  0.2576 -0.1293  1.3140
17431TIP3   OH273783   3.336   4.962  12.374  0.1930 -0.4987  0.6414
17431TIP3    H173784   3.422   4.999  12.393 -0.0203 -0.1930  1.0168
17431TIP3    H273785   3.297   5.025  12.313 -0.4364  0.2572  1.8029
17432TIP3   OH273786   0.554   3.140   4.420 -0.3848  0.1688  0.5921
17432TIP3    H173787   0.572   3.234   4.425 -3.3879  0.8314 -0.2937
17432TIP3    H273788   0.459   3.133   4.430 -0.5024 -2.5537 -1.8928
17433TIP3   OH273789   0.688   4.811   5.212 -0.1915  0.0679  0.7416
17433TIP3    H173790   0.749   4.884   5.219  0.1791 -0.0858 -0.6875
17433TIP3    H273791   0.741   4.738   5.180 -1.4143  0.4060 -2.2594
17434TIP3   OH273792   5.890   2.511  16.150 -0.4285 -0.5673  0.1964
17434TIP3    H173793   5.941   2.432  16.167  0.2119 -0.1303  0.2992
17434TIP3    H273794   5.919   2.574  16.215 -1.3228 -0.4118  0.4596
17435TIP3   OH273795   2.640   4.143   0.104 -0.0311  0.3558  0.1503
17435TIP3    H173796   2.600   4.066   0.145 -0.9191 -0.1105 -1.5534
17435TIP3    H273797   2.705   4.172   0.168  0.5561 -2.0028  0.6884
17436TIP3   OH273798   2.941   4.346   3.385 -0.5069 -0.1467 -0.7703
17436TIP3    H173799   3.028   4.344   3.345 -0.2327 -1.6819 -0.1074
17436TIP3    H273800   2.941   4.426   3.438  0.6409 -0.3534 -0.4545
17437TIP3   OH273801   2.862   1.354  16.776  0.4547  0.4534 -0.0399
17437TIP3    H173802   2.952   1.329  16.757  0.1087 -0.2763 -0.7124
17437TIP3    H273803   2.809   1.310  16.709 -0.3964  0.9318  0.3032
17438TIP3   OH273804   3.910   5.864   4.025  0.1435  0.1421  0.1934
17438TIP3    H173805   3.920   5.837   3.934 -3.6260  0.8067 -0.5214
17438TIP3    H273806   3.916   5.783   4.075 -2.9604 -1.0382 -1.1959
17439TIP3   OH273807   4.272   6.249  14.784  0.2119 -0.1343 -0.1581
17439TIP3    H173808   4.198   6.281  14.836 -0.0955  0.6982 -1.0834
17439TIP3    H273809   4.321   6.193  14.844 -1.1788 -0.7231  0.4637
17440TIP3   OH273810   0.965   1.993  10.345 -0.4823  0.0864 -0.1822
17440TIP3    H173811   0.936   2.070  10.297 -1.6120 -0.0902  0.1908
17440TIP3    H273812   0.915   1.921  10.307 -2.3328  0.1135  2.0403
17441TIP3   OH273813   2.221   2.116   5.909  0.4467 -0.1021 -0.6023
17441TIP3    H173814   2.223   2.140   6.002 -2.8771  0.2702 -0.5654
17441TIP3    H273815   2.221   2.021   5.909  0.2878 -0.1062 -0.1816
17442TIP3   OH273816   1.577   2.355  16.621  0.3546 -0.1058 -0.0328
17442TIP3    H173817   1.649   2.338  16.681  3.0364  0.1968 -3.0127
17442TIP3    H273818   1.597   2.440  16.582 -1.8199  0.1529 -0.6691
17443TIP3   OH273819   2.131   0.332   5.841  0.3945 -0.2143 -0.1089
17443TIP3    H173820   2.048   0.330   5.793  0.8325 -1.8061 -0.8347
17443TIP3    H273821   2.165   0.421   5.826 -0.7743  0.1715 -0.5116
17444TIP3   OH273822   4.191   6.763  15.405 -1.1058  0.1098 -0.1274
17444TIP3    H173823   4.239   6.708  15.344 -1.8597 -0.6262 -0.0509
17444TIP3    H273824   4.099   6.744  15.388 -1.3412  0.5610  0.6233
17445TIP3   OH273825   6.624   1.574   3.978 -0.2143  0.0321  0.0133
17445TIP3    H173826   6.561   1.525   4.031  0.9358  0.4460  1.8120
17445TIP3    H273827   6.705   1.524   3.984 -0.3944 -0.6534 -2.5287
17446TIP3   OH273828   1.647   1.079   2.185  0.5004 -0.3680 -0.2233
17446TIP3    H173829   1.677   1.081   2.275  1.6464  0.8193 -0.6274
17446TIP3    H273830   1.557   1.112   2.189  0.4682 -0.5330  0.5061
17447TIP3   OH273831   4.216   4.066   0.522  0.1833  0.2849 -0.2932
17447TIP3    H173832   4.255   4.152   0.539  0.0608 -0.0391  1.7749
17447TIP3    H273833   4.122   4.082   0.526  0.1581 -0.1363  1.3068
17448TIP3   OH273834   2.856   5.826  14.846 -0.2173  0.1460 -0.5615
17448TIP3    H173835   2.774   5.785  14.873 -0.2052  0.0107 -0.7266
17448TIP3    H273836   2.830   5.891  14.782 -0.3022  0.8584  0.1898
17449TIP3   OH273837   4.955   6.632  16.392  0.0964 -0.0400  0.0233
17449TIP3    H173838   4.864   6.648  16.367 -0.2935 -1.1563  0.7127
17449TIP3    H273839   4.958   6.647  16.487  0.6699  0.1415 -0.0165
17450TIP3   OH273840   1.975   0.227   0.222  0.2674 -0.0576  0.2645
17450TIP3    H173841   1.905   0.269   0.272 -0.4671 -1.1529  0.1783
17450TIP3    H273842   2.050   0.285   0.232 -1.1306  2.0543 -1.0717
17451TIP3   OH273843   3.416   3.880  10.959 -0.1373 -0.0341 -0.0485
17451TIP3    H173844   3.482   3.811  10.961  0.2377  0.2563 -1.5947
17451TIP3    H273845   3.467   3.961  10.953 -0.5567  0.4368  2.1993
17452TIP3   OH273846   1.641   0.494  16.746 -0.1765 -0.1159 -0.7596
17452TIP3    H173847   1.721   0.520  16.700  0.1730 -0.9125 -0.6156
17452TIP3    H273848   1.601   0.576  16.773  1.0799  0.2632 -0.0103
17453TIP3   OH273849   3.206   5.972  12.671 -0.0647  0.1818 -0.1524
17453TIP3    H173850   3.280   5.935  12.719 -0.4495  0.5066  0.6929
17453TIP3    H273851   3.135   5.975  12.735 -0.2618  1.6494 -0.4220
17454TIP3   OH273852   5.612   5.183  11.404  0.6146  0.2696 -0.2064
17454TIP3    H173853   5.631   5.138  11.322  1.7115  2.8245 -1.3976
17454TIP3    H273854   5.525   5.221  11.392  1.0690  1.2502 -0.5021
17455TIP3   OH273855   1.737   1.046   3.862  0.1621  0.4441  0.3101
17455TIP3    H173856   1.772   0.957   3.861  0.7896  0.6891 -0.3059
17455TIP3    H273857   1.646   1.035   3.887 -0.5564 -0.6789 -2.5707
17456TIP3   OH273858   5.423   1.002  16.084  0.2720  0.4843 -0.0731
17456TIP3    H173859   5.455   0.912  16.080 -1.8746 -0.2839 -0.9484
17456TIP3    H273860   5.488   1.054  16.035  1.2602 -0.6587  0.0184
17457TIP3   OH273861   4.343   5.997   4.036  0.5732 -0.5765  0.2588
17457TIP3    H173862   4.408   6.017   4.103  1.9036 -6.5409  1.0243
17457TIP3    H273863   4.261   5.989   4.085  0.6291 -0.1717  0.4205
17458TIP3   OH273864   5.785   4.910  16.708  0.5356 -0.3397 -0.1684
17458TIP3    H173865   5.732   4.923  16.629 -2.3346 -2.9254  1.2184
17458TIP3    H273866   5.817   4.821  16.701  1.0981 -0.2422  1.0891
17459TIP3   OH273867   1.798   3.886   2.991 -0.3475  0.1009  0.3721
17459TIP3    H173868   1.762   3.849   3.072 -0.0450 -0.0258  0.4487
17459TIP3    H273869   1.874   3.936   3.020 -0.3651  0.2319  0.1892
17460TIP3   OH273870   6.209   1.666  14.630 -0.1487  0.0638 -0.4095
17460TIP3    H173871   6.218   1.639  14.538 -0.4012 -1.4824  0.0160
17460TIP3    H273872   6.273   1.612  14.677  2.8328  3.5692 -0.1551
17461TIP3   OH273873   1.460   2.612  11.809  0.7537  0.2287 -0.4505
17461TIP3    H173874   1.489   2.534  11.762 -2.0717 -1.1037 -0.0825
17461TIP3    H273875   1.371   2.626  11.778  0.3286  1.8031  1.4013
17462TIP3   OH273876   5.682   5.395  11.704 -0.0370  0.2101  0.0707
17462TIP3    H173877   5.695   5.430  11.616 -0.5812  1.9687  0.6769
17462TIP3    H273878   5.748   5.326  11.712  0.1189  0.1310 -1.6468
17463TIP3   OH273879   2.182   5.290   2.982 -0.3248  0.1797 -0.5325
17463TIP3    H173880   2.225   5.243   3.053 -0.7341  0.2656 -0.2233
17463TIP3    H273881   2.242   5.283   2.908 -2.0730 -4.0970 -1.6640
17464TIP3   OH273882   6.006   3.530   0.822  0.3511  0.6846  0.4379
17464TIP3    H173883   6.101   3.517   0.823  0.6058  2.3757  1.4924
17464TIP3    H273884   5.977   3.498   0.907  0.2492  1.8294  0.8498
17465TIP3   OH273885   6.063   1.884  16.957  0.2658 -0.3174 -0.1187
17465TIP3    H173886   6.034   1.888  16.866 -0.5229  1.0379  0.1700
17465TIP3    H273887   5.996   1.832  17.002  0.9471 -1.4591 -0.4089
17466TIP3   OH273888   6.087   5.126  15.954 -0.1713  0.0402  0.0942
17466TIP3    H173889   6.081   5.090  15.866  0.4417  0.9063 -0.3089
17466TIP3    H273890   6.169   5.174  15.955  0.8515 -1.6371  1.7730
17467TIP3   OH273891   1.480   0.334  11.904 -0.5422  0.2925 -0.3762
17467TIP3    H173892   1.470   0.241  11.924  1.7522  0.2475  0.7466
17467TIP3    H273893   1.495   0.376  11.988  0.6706  1.3372 -1.0746
17468TIP3   OH273894   3.708   6.781   5.107 -0.0470 -0.5964 -0.1139
17468TIP3    H173895   3.782   6.808   5.053 -0.7177 -1.1918 -1.3554
17468TIP3    H273896   3.668   6.863   5.135  0.0190 -0.2730 -0.9426
17469TIP3   OH273897   1.078   3.629  16.549  0.0534 -0.1544 -0.8066
17469TIP3    H173898   1.145   3.569  16.581 -0.2347 -0.5765 -0.9909
17469TIP3    H273899   1.049   3.677  16.626 -1.2364 -1.7485 -0.2764
17470TIP3   OH273900   3.678   1.783   6.227 -0.3156 -0.2402  0.2500
17470TIP3    H173901   3.763   1.747   6.250  0.1869  1.3918  1.0045
17470TIP3    H273902   3.622   1.706   6.213  1.5053 -1.3324 -1.1800
17471TIP3   OH273903   6.700   2.546   3.901 -0.4131 -0.2715 -0.2520
17471TIP3    H173904   6.709   2.452   3.917  1.7587 -0.3755 -1.7611
17471TIP3    H273905   6.712   2.587   3.987 -0.8026 -1.3318  0.3118
17472TIP3   OH273906   0.230   2.034  11.361 -0.0430  0.3740 -0.1626
17472TIP3    H173907   0.228   2.120  11.403  1.9075  0.4242 -0.1110
17472TIP3    H273908   0.216   2.052  11.268  3.4327  1.1126 -0.5971
17473TIP3   OH273909   4.832   0.344  12.510 -0.3770 -0.1766  0.5904
17473TIP3    H173910   4.873   0.335  12.596  0.8180  0.2043  0.0794
17473TIP3    H273911   4.761   0.406  12.524 -0.0211  0.0874  1.2518
17474TIP3   OH273912   4.649   5.060   0.577 -0.3063  0.5016 -0.0960
17474TIP3    H173913   4.627   5.141   0.623  0.7601  1.0897 -0.6011
17474TIP3    H273914   4.736   5.076   0.540  1.0573 -1.7686  1.9441
17475TIP3   OH273915   2.688   0.072  16.500  0.9438  0.3352  0.1923
17475TIP3    H173916   2.713  -0.001  16.443  0.5507  0.6002 -0.3273
17475TIP3    H273917   2.673   0.032  16.585  0.3018 -0.2683 -0.1924
17476TIP3   OH273918   0.338   3.251  12.814  0.3514  0.2377 -0.0094
17476TIP3    H173919   0.434   3.250  12.813  0.3866  1.4131  0.9796
17476TIP3    H273920   0.314   3.343  12.802 -0.5770  0.4277  2.9223
17477TIP3   OH273921   1.726   0.900  11.194 -0.0858 -0.0420 -0.1631
17477TIP3    H173922   1.802   0.905  11.251 -0.6521  2.9819  0.4094
17477TIP3    H273923   1.677   0.824  11.226  0.6549  0.3701  2.0416
17478TIP3   OH273924   1.655   5.885  13.001  0.0074 -0.1448  0.8655
17478TIP3    H173925   1.676   5.898  13.093 -0.9394  0.9433  0.9385
17478TIP3    H273926   1.721   5.936  12.954  1.8034 -2.3957  0.8333
17479TIP3   OH273927   6.105   5.618   3.844  0.3139 -0.6685  0.4838
17479TIP3    H173928   6.113   5.583   3.755  0.5083  0.9380 -0.1473
17479TIP3    H273929   6.011   5.637   3.853  0.3965 -0.2010  0.3713
17480TIP3   OH273930   0.524   6.248  13.872  0.4080 -1.0732  0.0857
17480TIP3    H173931   0.581   6.223  13.944 -0.0918  0.1308  0.8990
17480TIP3    H273932   0.461   6.309  13.910  1.5242  1.3752 -1.8378
17481TIP3   OH273933   6.553   3.992   4.441  0.6423 -0.3093  0.4667
17481TIP3    H173934   6.537   3.898   4.449 -0.7056 -0.2595 -1.5333
17481TIP3    H273935   6.507   4.019   4.362  1.4964  1.9419  0.6802
17482TIP3   OH273936   6.729   0.202   0.099 -0.0546 -0.3631 -0.0801
17482TIP3    H173937   6.824   0.200   0.090 -0.0265  1.8822 -0.5414
17482TIP3    H273938   6.697   0.144   0.029  0.9637 -1.0030 -0.0234
17483TIP3   OH273939   6.673   4.541  16.695  0.2916 -0.3866  0.4349
17483TIP3    H173940   6.645   4.484  16.624  0.5935 -1.7810  1.4110
17483TIP3    H273941   6.757   4.505  16.723 -0.5680 -0.8384  2.5552
17484TIP3   OH273942   0.343   4.506  11.677 -0.5740  0.1231  0.3830
17484TIP3    H173943   0.345   4.468  11.589 -1.8660 -0.3748  0.5681
17484TIP3    H273944   0.320   4.598  11.663  2.0921  0.7706 -0.0243
17485TIP3   OH273945   0.612   3.524   0.657  0.4903 -0.8264  0.0668
17485TIP3    H173946   0.594   3.582   0.583 -0.4465 -0.3196  0.6926
17485TIP3    H273947   0.708   3.519   0.660  0.5356 -1.0092 -1.3022
17486TIP3   OH273948   4.307   6.644   3.008 -0.3995  0.1069  0.3056
17486TIP3    H173949   4.294   6.738   3.000 -1.6577 -0.1951 -1.4778
17486TIP3    H273950   4.235   6.606   2.957 -0.7002 -1.8349  2.1174
17487TIP3   OH273951   0.435   3.255  14.541 -0.3320 -0.1027 -0.0995
17487TIP3    H173952   0.399   3.209  14.617  1.4891 -0.8534  0.3391
17487TIP3    H273953   0.466   3.338  14.576 -1.0675  0.2765 -0.3532
17488TIP3   OH273954   6.382   3.732   4.670 -0.0765  0.6060  0.2873
17488TIP3    H173955   6.390   3.645   4.710 -1.4160  0.8733  1.1816
17488TIP3    H273956   6.466   3.774   4.687 -0.6768  0.7694  2.9997
17489TIP3   OH273957   0.462   6.703   1.970  0.4175 -0.3326  0.3041
17489TIP3    H173958   0.447   6.778   2.028  0.5085 -1.0405  1.2595
17489TIP3    H273959   0.374   6.671   1.949  0.3970 -0.5370  0.6814
17490TIP3   OH273960   0.352   1.665  14.849  0.8620 -0.3510  0.3294
17490TIP3    H173961   0.318   1.613  14.922 -1.9734  0.0550 -0.6371
17490TIP3    H273962   0.352   1.755  14.880 -0.9219 -0.1003 -0.3211
17491TIP3   OH273963   5.132   0.369  15.843  0.5220 -0.3376 -0.6141
17491TIP3    H173964   5.079   0.319  15.781 -2.1513  2.5834 -0.8275
17491TIP3    H273965   5.075   0.378  15.920  1.6594  0.8214  0.1011
17492TIP3   OH273966   0.774   3.015   5.882  0.0440  0.1758  0.1609
17492TIP3    H173967   0.786   3.003   5.976  1.0048  1.6595  0.2496
17492TIP3    H273968   0.683   2.991   5.866 -0.2654  0.3603  1.5475
17493TIP3   OH273969   3.097   3.914   0.645 -0.3244  0.3065 -0.4496
17493TIP3    H173970   3.069   3.920   0.554 -0.3437  1.5157 -0.3676
17493TIP3    H273971   3.028   3.959   0.695 -0.8189 -1.2143  0.2702
17494TIP3   OH273972   1.416   4.915  12.644  0.5403 -0.0380  0.1487
17494TIP3    H173973   1.435   4.863  12.722 -0.3010 -1.7105 -0.7440
17494TIP3    H273974   1.422   4.853  12.571  1.6996  1.5712 -1.1841
17495TIP3   OH273975   4.084   1.748  13.707 -0.1001 -0.0623  0.3537
17495TIP3    H173976   4.059   1.693  13.781  1.1508  0.3243  1.0834
17495TIP3    H273977   4.180   1.747  13.709 -0.0699  0.5021 -0.8524
17496TIP3   OH273978   2.711   1.664  16.673 -0.5049  0.0824 -0.0091
17496TIP3    H173979   2.757   1.748  16.674 -1.1930  0.4852  2.3443
17496TIP3    H273980   2.621   1.686  16.699 -0.4682 -1.4663  1.5429
17497TIP3   OH273981   6.373   2.870   5.495 -0.3532  0.2431  0.4403
17497TIP3    H173982   6.335   2.801   5.549  2.3763 -1.6355  0.0788
17497TIP3    H273983   6.329   2.861   5.411  0.8197 -1.9434  0.0040
17498TIP3   OH273984   4.252   2.614  12.612  0.4004  0.1253 -0.2428
17498TIP3    H173985   4.304   2.688  12.580 -2.3108  3.3244  2.4735
17498TIP3    H273986   4.174   2.615  12.557  0.3403 -0.7334 -0.1719
17499TIP3   OH273987   4.522   3.319  10.564  0.6884 -0.1503 -0.0475
17499TIP3    H173988   4.507   3.406  10.528 -0.9415 -0.4533 -0.1720
17499TIP3    H273989   4.462   3.262  10.515  1.3035 -1.2400  0.4337
17500TIP3   OH273990   3.688   5.874  16.025 -0.4079 -0.0087 -0.3266
17500TIP3    H173991   3.653   5.952  16.068  0.0411 -0.2980  0.5586
17500TIP3    H273992   3.742   5.908  15.954  0.1820  0.5003  0.3567
17501TIP3   OH273993   0.058   4.786  11.418 -0.3425  0.5484  0.2059
17501TIP3    H173994   0.069   4.875  11.452 -1.3625  0.6562  0.2781
17501TIP3    H273995  -0.003   4.744  11.479 -1.1384  0.3164 -0.7195
17502TIP3   OH273996   5.814   5.350  13.834  0.1431 -0.4340  0.3134
17502TIP3    H173997   5.894   5.402  13.840 -0.1659 -0.0774  1.4125
17502TIP3    H273998   5.775   5.377  13.750  0.0381  1.0342  0.8199
17503TIP3   OH273999   0.824   1.311  13.613  0.1114  0.2021 -0.2178
17503TIP3    H174000   0.738   1.312  13.654  0.0253  0.9978 -0.4168
17503TIP3    H274001   0.839   1.402  13.585  0.7824 -0.0396 -0.6612
17504TIP3   OH274002   1.753   0.999  10.495 -0.1625  0.2892 -0.4852
17504TIP3    H174003   1.732   1.088  10.466  0.0764 -0.0977 -1.8960
17504TIP3    H274004   1.831   1.009  10.549 -0.2130  0.9520 -0.5340
17505TIP3   OH274005   5.832   2.919   3.823  1.0343 -0.3760  0.2039
17505TIP3    H174006   5.923   2.889   3.828  0.7067 -1.0200  2.3142
17505TIP3    H274007   5.799   2.915   3.912 -1.9707 -2.8507 -0.9410
17506TIP3   OH274008   2.560   2.219  14.620  0.0553 -0.1082 -0.0293
17506TIP3    H174009   2.547   2.279  14.693 -1.8569  0.1708 -0.5636
17506TIP3    H274010   2.480   2.166  14.619  0.1331 -0.2116 -1.8165
17507TIP3   OH274011   0.351   5.977  11.707 -0.1284  1.1137 -0.0286
17507TIP3    H174012   0.424   6.009  11.761 -0.5085  0.7871  0.6877
17507TIP3    H274013   0.305   6.057  11.681 -1.2797  1.1686  2.0482
17508TIP3   OH274014   3.794   6.387   2.825 -0.5337 -0.2369  0.3137
17508TIP3    H174015   3.811   6.343   2.742  0.1244  0.4436  0.0840
17508TIP3    H274016   3.704   6.421   2.816 -0.0328  0.8882 -0.6049
17509TIP3   OH274017   6.398   4.477   1.618  0.1964  0.3077 -0.4984
17509TIP3    H174018   6.492   4.466   1.631  0.0586  1.2682  1.5330
17509TIP3    H274019   6.362   4.390   1.634  0.3661  0.7897  2.7531
17510TIP3   OH274020   5.688   2.902  13.832 -0.5362 -0.0322 -0.1790
17510TIP3    H174021   5.623   2.880  13.899  0.3136 -0.5672  0.4793
17510TIP3    H274022   5.770   2.912  13.880  0.7570 -3.5568 -1.5024
17511TIP3   OH274023   1.696   1.566  16.521 -0.4737 -0.2625  0.6850
17511TIP3    H174024   1.657   1.534  16.440  1.1807 -0.3108 -0.1000
17511TIP3    H274025   1.726   1.654  16.501  2.4413 -1.2792  0.3868
17512TIP3   OH274026   6.742   5.799   5.913 -0.4593 -0.5393 -0.2878
17512TIP3    H174027   6.712   5.890   5.917  1.0533 -0.0462  0.3807
17512TIP3    H274028   6.727   5.765   6.002  1.3956 -0.1233  0.2059
17513TIP3   OH274029   4.131   2.544   5.066  0.7097  0.0434  0.1187
17513TIP3    H174030   4.089   2.464   5.099  0.2111  0.2537 -0.0051
17513TIP3    H274031   4.198   2.564   5.131  1.9310 -1.3805 -0.6666
17514TIP3   OH274032   2.825   2.157   1.968 -0.3087 -0.7088 -0.1183
17514TIP3    H174033   2.796   2.138   2.057 -0.2649 -1.1634 -0.2011
17514TIP3    H274034   2.760   2.218   1.934 -0.9884 -1.4864 -0.1989
17515TIP3   OH274035   3.972   0.917  15.335  0.0136 -0.1979  0.0829
17515TIP3    H174036   4.013   0.856  15.273  1.8709  1.5538 -0.4884
17515TIP3    H274037   3.930   0.983  15.280 -1.0368 -0.3595  0.6865
17516TIP3   OH274038   5.756   5.582   6.389  0.2026 -0.1033 -0.5969
17516TIP3    H174039   5.840   5.627   6.379 -0.3084  0.5794 -2.0012
17516TIP3    H274040   5.765   5.530   6.468  1.5213  0.9253 -0.0632
17517TIP3   OH274041   2.621   0.216   5.815  0.1686 -0.6984  0.3089
17517TIP3    H174042   2.551   0.186   5.873  0.8186 -1.5401  0.6700
17517TIP3    H274043   2.701   0.178   5.852  0.9380  1.0059  0.4373
17518TIP3   OH274044   3.491   4.764   1.209 -0.1778  0.1182  0.0145
17518TIP3    H174045   3.401   4.740   1.232  0.5036 -1.5071  1.0148
17518TIP3    H274046   3.521   4.694   1.151  1.5830 -1.1709  2.3936
17519TIP3   OH274047   6.491   1.657  11.834 -0.3882 -0.2922  0.3531
17519TIP3    H174048   6.441   1.628  11.910  1.0425 -0.0913  1.3777
17519TIP3    H274049   6.516   1.576  11.790  1.1353 -0.5382  1.6280
17520TIP3   OH274050   2.035   4.131  13.701 -0.1896  0.1956 -0.3332
17520TIP3    H174051   2.037   4.038  13.720  1.0608  0.4258  0.8091
17520TIP3    H274052   1.971   4.141  13.630  0.2636 -1.6083 -1.0059
17521TIP3   OH274053   5.050   1.336   2.953  0.2042 -0.3258 -0.1705
17521TIP3    H174054   5.045   1.365   3.044  1.3965 -0.6078 -0.0180
17521TIP3    H274055   4.968   1.368   2.914  0.4073  1.1938  0.5955
17522TIP3   OH274056   1.407   5.669  15.952  0.0137 -0.1015  0.3470
17522TIP3    H174057   1.465   5.592  15.960 -0.8757 -0.6634  1.5294
17522TIP3    H274058   1.353   5.666  16.031 -1.8675  0.2274 -0.9199
17523TIP3   OH274059   0.917   1.371  10.722 -0.2178 -0.1665  0.3571
17523TIP3    H174060   0.966   1.343  10.800  0.2632 -0.4025 -0.0194
17523TIP3    H274061   0.959   1.453  10.696  0.3255 -0.6440 -0.2765
17524TIP3   OH274062   6.589   5.723   2.912 -0.2206 -0.2180 -0.0070
17524TIP3    H174063   6.513   5.672   2.885  0.7239  0.1817 -3.7032
17524TIP3    H274064   6.662   5.660   2.912 -0.1730 -0.1873  1.6424
17525TIP3   OH274065   4.586   0.343  12.814 -0.0024 -0.3458 -0.3532
17525TIP3    H174066   4.545   0.397  12.881 -0.3205 -2.1208  0.9115
17525TIP3    H274067   4.680   0.353  12.828 -0.0501  0.1664 -0.3821
17526TIP3   OH274068   1.176   3.082   2.802 -0.1747  0.3582 -0.3786
17526TIP3    H174069   1.133   3.001   2.829  0.1307  0.3787  0.1764
17526TIP3    H274070   1.139   3.101   2.715 -2.5600  1.3171  0.8009
17527TIP3   OH274071   6.715   5.245  13.630 -0.1643  0.4620 -0.8059
17527TIP3    H174072   6.720   5.218  13.539 -3.7517 -0.6003 -0.7797
17527TIP3    H274073   6.660   5.324  13.629 -0.6930  0.1223  0.4956
17528TIP3   OH274074   0.882   2.597   0.407 -0.3178 -0.0300  0.3684
17528TIP3    H174075   0.935   2.648   0.346  1.2362 -2.3592 -0.2953
17528TIP3    H274076   0.807   2.566   0.355 -1.0591  1.2256  0.6744
17529TIP3   OH274077   2.228   2.660   1.844  0.2963  0.0694  0.2232
17529TIP3    H174078   2.256   2.616   1.924  2.9469  0.4641 -0.4631
17529TIP3    H274079   2.243   2.595   1.775 -0.1949  0.4134 -0.2125
17530TIP3   OH274080   3.221   2.977   6.786  0.0396 -0.2275 -0.2240
17530TIP3    H174081   3.173   2.894   6.781  0.4515 -0.4483 -0.4973
17530TIP3    H274082   3.186   3.030   6.714 -0.9766  0.2377  0.5890
17531TIP3   OH274083   3.642   4.124  15.546 -0.0796  0.5549 -0.0447
17531TIP3    H174084   3.661   4.043  15.594  1.9929 -0.7656 -2.9730
17531TIP3    H274085   3.693   4.191  15.591  1.4994 -0.5777 -0.0985
17532TIP3   OH274086   3.246   1.329   4.273 -0.1700 -0.2314  0.2713
17532TIP3    H174087   3.272   1.250   4.321  0.5706  0.9103  1.7815
17532TIP3    H274088   3.156   1.345   4.299 -0.4757 -0.8484 -0.4046
17533TIP3   OH274089   0.089   6.353   5.465 -0.1922  0.2152 -0.5847
17533TIP3    H174090   0.084   6.394   5.379  0.2242  1.8113  0.1253
17533TIP3    H274091   0.024   6.401   5.518 -0.5494 -0.8466 -0.0515
17534TIP3   OH274092   6.567   4.225   5.412  0.1908  0.2996 -0.3203
17534TIP3    H174093   6.598   4.179   5.491  0.1128 -1.3683 -1.2325
17534TIP3    H274094   6.472   4.229   5.422  0.1362 -0.3378 -0.5373
17535TIP3   OH274095   5.048   6.134   6.243 -0.1271  0.0486  0.1985
17535TIP3    H174096   5.093   6.096   6.318  0.1769 -0.1000 -0.0559
17535TIP3    H274097   5.084   6.222   6.236  0.0253 -0.0243  0.0756
17536TIP3   OH274098   2.969   5.620   4.199  0.1441  0.3218 -0.2357
17536TIP3    H174099   3.002   5.563   4.130  0.3460 -1.2087  1.1165
17536TIP3    H274100   2.879   5.591   4.213  0.5065 -0.2197  1.0166
17537TIP3   OH274101   2.121   5.313  13.604  0.3276  0.3504  0.3875
17537TIP3    H174102   2.109   5.408  13.610 -2.8377  0.2644 -2.7762
17537TIP3    H274103   2.197   5.303  13.547  0.5933  1.0082  0.6197
17538TIP3   OH274104   2.316   5.905   3.525  0.2279 -0.1891 -0.1750
17538TIP3    H174105   2.277   5.851   3.456 -0.2886 -1.8780  1.4154
17538TIP3    H274106   2.246   5.918   3.588  1.7548 -1.9517  1.9556
17539TIP3   OH274107   5.952   6.578  11.824 -0.0450  0.1467  0.0993
17539TIP3    H174108   5.966   6.561  11.918  1.5517 -1.3584 -0.3790
17539TIP3    H274109   6.003   6.511  11.780 -2.1416 -0.2029 -1.8810
17540TIP3   OH274110   4.088   6.468   2.009  0.0383  0.0041  0.2685
17540TIP3    H174111   4.011   6.415   2.027 -1.0560  2.3015  2.5763
17540TIP3    H274112   4.161   6.417   2.047 -0.4952 -1.4428 -0.5877
17541TIP3   OH274113   5.309   1.622  15.437 -0.3308 -0.4251  0.8572
17541TIP3    H174114   5.369   1.599  15.366 -3.2937  0.8961 -2.2089
17541TIP3    H274115   5.359   1.682  15.492  1.0251  1.1320 -1.9441
17542TIP3   OH274116   3.162   3.568   2.985  0.2901  0.5238  0.0612
17542TIP3    H174117   3.152   3.649   2.935 -0.8589  0.3179 -0.0643
17542TIP3    H274118   3.228   3.518   2.937 -0.9038  0.2590 -1.3483
17543TIP3   OH274119   4.878   2.726  13.190  0.1780  0.3678  0.0611
17543TIP3    H174120   4.865   2.790  13.260  1.7018 -0.5077  1.1762
17543TIP3    H274121   4.946   2.668  13.223 -0.6626 -1.4045 -1.2441
17544TIP3   OH274122   1.602   1.894  17.033 -0.0673 -0.0219  0.9047
17544TIP3    H174123   1.566   1.977  17.064  2.9243  1.3593  0.7613
17544TIP3    H274124   1.600   1.901  16.937  0.7724  0.1658  0.8961
17545TIP3   OH274125   0.248   1.077   4.846 -0.0948  0.5524 -0.0085
17545TIP3    H174126   0.325   1.022   4.862 -0.1407  0.4589 -0.1020
17545TIP3    H274127   0.261   1.154   4.900 -1.0119 -0.4723  1.7126
17546TIP3   OH274128   0.555   6.364  12.471  0.1174 -0.1175 -0.4853
17546TIP3    H174129   0.528   6.395  12.558  1.5243  2.5600 -0.9753
17546TIP3    H274130   0.649   6.352  12.478 -0.2205 -3.5624 -0.6096
17547TIP3   OH274131   3.690   2.385   5.378  0.7503  0.1605 -0.6410
17547TIP3    H174132   3.747   2.449   5.422 -1.1870 -0.3808  2.8047
17547TIP3    H274133   3.727   2.300   5.403  0.7258 -0.1411 -1.6296
17548TIP3   OH274134   3.493   5.064   3.447  0.4600 -0.3594 -0.0289
17548TIP3    H174135   3.442   5.004   3.501 -0.3230  0.5282  0.2375
17548TIP3    H274136   3.463   5.151   3.473  0.2456  0.0890 -1.7235
17549TIP3   OH274137   4.605   1.041  12.892  0.2316 -0.6518  0.4041
17549TIP3    H174138   4.638   0.984  12.823 -0.2686  0.9034 -1.1604
17549TIP3    H274139   4.652   1.124  12.879 -0.0824 -0.2509  1.7475
17550TIP3   OH274140   1.264   1.462   3.222 -0.6133  0.2133  0.1580
17550TIP3    H174141   1.272   1.514   3.142  1.2368 -0.7894 -0.3554
17550TIP3    H274142   1.171   1.466   3.245 -0.7077  2.7183 -0.5345
17551TIP3   OH274143   1.142   0.931  16.294 -0.3283 -0.5995  0.3277
17551TIP3    H174144   1.104   0.941  16.207  0.2193  1.7746  0.3270
17551TIP3    H274145   1.205   0.859  16.285  0.9228  0.7084 -1.6684
17552TIP3   OH274146   1.308   3.088   0.119 -0.1249  0.4698 -0.5723
17552TIP3    H174147   1.345   3.023   0.179 -0.5895  1.4817  0.8510
17552TIP3    H274148   1.375   3.101   0.052  0.3435 -0.7906 -0.3506
17553TIP3   OH274149   0.094   1.270  13.019  0.1940  0.0543  0.5874
17553TIP3    H174150   0.128   1.215  12.949  0.1690 -1.2098  1.5532
17553TIP3    H274151   0.134   1.235  13.099 -0.0615  1.2410  1.2566
17554TIP3   OH274152   2.578   3.021   2.994 -0.2432  0.1868  0.3954
17554TIP3    H174153   2.592   3.096   2.936 -1.4796  1.2132  1.3989
17554TIP3    H274154   2.545   3.060   3.075 -1.3316 -1.4974  0.7659
17555TIP3   OH274155   6.392   5.797  17.062  0.7972  0.2926  0.1497
17555TIP3    H174156   6.449   5.729  17.026  2.4364  2.1914 -0.9710
17555TIP3    H274157   6.369   5.851  16.987  0.3054  1.5355  1.1758
17556TIP3   OH274158   6.575   2.779  12.999  0.1325 -0.6911  0.0367
17556TIP3    H174159   6.633   2.810  13.070 -0.5486  0.0117  0.3023
17556TIP3    H274160   6.551   2.859  12.952 -3.0542 -0.5392  1.7734
17557TIP3   OH274161   2.746   5.969  15.710 -0.4659  0.0452 -0.6952
17557TIP3    H174162   2.765   5.995  15.800  0.0835 -2.7079  0.0165
17557TIP3    H274163   2.784   6.039  15.656  1.7317  0.2925  1.0996
17558TIP3   OH274164   1.238   2.586  14.891  0.0165  0.3663  0.0942
17558TIP3    H174165   1.194   2.671  14.899 -1.6169 -0.4005 -0.7355
17558TIP3    H274166   1.218   2.556  14.803 -0.2564 -1.3718  0.7255
17559TIP3   OH274167   3.894   4.328   5.943 -0.1053  0.2037 -0.4097
17559TIP3    H174168   3.956   4.398   5.964 -0.8956  0.6491  0.5020
17559TIP3    H274169   3.821   4.374   5.900 -0.1590 -0.2060 -0.7563
17560TIP3   OH274170   1.170   4.131   4.332  0.2488 -0.8049 -0.1852
17560TIP3    H174171   1.262   4.130   4.355  0.5317  1.9217 -0.9939
17560TIP3    H274172   1.167   4.100   4.241  0.5302  0.3228 -0.5875
17561TIP3   OH274173   2.028   2.395  16.644  0.0185 -0.7605 -0.4409
17561TIP3    H174174   2.023   2.309  16.686 -0.4612  0.7841  2.8199
17561TIP3    H274175   2.122   2.414  16.641 -0.0337  0.0650  2.0654
17562TIP3   OH274176   3.925   4.853  13.599 -0.2915 -0.2070 -0.5744
17562TIP3    H174177   3.858   4.876  13.663 -1.7234  0.5417 -2.3004
17562TIP3    H274178   4.007   4.854  13.649 -1.4204 -0.0749  1.3269
17563TIP3   OH274179   2.730   2.319  15.534  0.6064  0.2352 -0.4989
17563TIP3    H174180   2.730   2.327  15.630 -2.1015  0.4425 -0.4780
17563TIP3    H274181   2.754   2.406  15.503 -1.8121  1.1316  0.0057
17564TIP3   OH274182   4.262   1.846   2.292  0.3259  0.7435  0.3766
17564TIP3    H174183   4.295   1.809   2.374 -0.3646 -1.2582 -0.2110
17564TIP3    H274184   4.171   1.816   2.287  0.6893 -0.1345 -1.6558
17565TIP3   OH274185   4.613   6.347   3.363  0.3830  0.0820  0.4225
17565TIP3    H174186   4.628   6.256   3.338  0.4503  0.6072 -1.4933
17565TIP3    H274187   4.539   6.342   3.424 -1.2294 -1.0473 -1.5357
17566TIP3   OH274188   0.777   5.318  15.104 -0.1239 -0.1786  0.9797
17566TIP3    H174189   0.773   5.337  15.011 -0.4882 -0.7602  0.8731
17566TIP3    H274190   0.827   5.390  15.141 -0.3132  0.2586  0.3925
17567TIP3   OH274191   0.297   5.238   6.289  0.3682  0.2898 -0.3311
17567TIP3    H174192   0.206   5.226   6.314  0.5118 -0.2360 -0.0330
17567TIP3    H274193   0.332   5.149   6.282 -0.0151  0.3413 -3.7573
17568TIP3   OH274194   4.005   3.720   2.946  0.0204  0.0686  0.4940
17568TIP3    H174195   4.096   3.697   2.966  0.1883  1.4839  1.4622
17568TIP3    H274196   4.005   3.816   2.942 -1.3365  0.0552  0.0664
17569TIP3   OH274197   2.618   2.017  10.997  0.2741  0.4527 -0.0332
17569TIP3    H174198   2.631   2.109  10.973 -0.2202  0.5827  0.1730
17569TIP3    H274199   2.552   1.986  10.935  0.3566  0.2721 -0.0284
17570TIP3   OH274200   2.524   1.699  12.704 -0.1898  0.2830  0.5304
17570TIP3    H174201   2.452   1.703  12.641 -0.0294  1.0912  0.3967
17570TIP3    H274202   2.482   1.702  12.790 -0.2905  1.2583  0.4508
17571TIP3   OH274203   0.744   3.837  12.830 -0.3980  0.0457 -0.3123
17571TIP3    H174204   0.759   3.857  12.923 -0.4720  1.1078 -0.5170
17571TIP3    H274205   0.747   3.742  12.825  2.0559  0.0532  0.3758
17572TIP3   OH274206   5.894   6.312  17.111 -0.0933  0.1768 -0.0327
17572TIP3    H174207   5.945   6.246  17.064 -0.5036 -1.0519  1.2142
17572TIP3    H274208   5.958   6.358  17.164  0.1682  0.6736 -0.7691
17573TIP3   OH274209   3.945   0.294  14.155 -0.3248 -0.2354  0.2865
17573TIP3    H174210   3.898   0.212  14.138 -2.5078  0.6002  1.9492
17573TIP3    H274211   4.037   0.271  14.149 -0.9257 -2.5423 -0.5168
17574TIP3   OH274212   0.220   3.307  13.871  0.1469 -0.4623  0.2520
17574TIP3    H174213   0.178   3.287  13.955  0.1770  0.2214  0.4362
17574TIP3    H274214   0.232   3.402  13.873  0.4362 -0.4847 -0.3953
17575TIP3   OH274215   5.395   3.037  12.255 -0.0583 -0.1994  0.1401
17575TIP3    H174216   5.436   2.969  12.201 -3.2838 -1.8378 -0.3589
17575TIP3    H274217   5.440   3.030  12.339 -1.4201 -4.1719  0.6541
17576TIP3   OH274218   3.804   2.707   2.376 -0.0974 -0.1971 -0.9850
17576TIP3    H174219   3.844   2.755   2.303  1.2108  2.2327  1.2546
17576TIP3    H274220   3.761   2.775   2.428  1.2513 -1.5100  1.9496
17577TIP3   OH274221   0.724   4.449   6.182  0.1643 -0.2702  0.5107
17577TIP3    H174222   0.685   4.461   6.269  2.0862  1.0409  1.2354
17577TIP3    H274223   0.768   4.363   6.187 -1.4273 -1.1108  0.1544
17578TIP3   OH274224   0.557   3.033  13.126  0.5420  0.0567  0.4259
17578TIP3    H174225   0.522   3.111  13.168  0.1766 -0.7895  1.7124
17578TIP3    H274226   0.643   3.020  13.167 -0.5090 -1.7175  2.1438
17579TIP3   OH274227   1.027   4.721   5.318 -0.1394  0.1309  0.2563
17579TIP3    H174228   1.054   4.679   5.237  0.1124  0.1350  0.3386
17579TIP3    H274229   1.064   4.667   5.388  0.5862  0.7524  0.3571
17580TIP3   OH274230   0.103   4.989   4.826 -0.0063 -0.0482  0.3420
17580TIP3    H174231   0.160   4.934   4.880 -0.5709 -1.3933 -0.4078
17580TIP3    H274232   0.021   4.940   4.820 -0.3751  0.6768 -0.6901
17581TIP3   OH274233   2.486   3.785  14.653 -0.1897 -0.3244  0.2905
17581TIP3    H174234   2.566   3.746  14.689 -1.1107  0.3233  3.1941
17581TIP3    H274235   2.418   3.719  14.669 -0.7600  0.2791  0.3604
17582TIP3   OH274236   6.099   6.445  15.583 -0.1937  0.5123 -0.6191
17582TIP3    H174237   6.141   6.519  15.539  3.1999 -0.7013  0.4081
17582TIP3    H274238   6.123   6.369  15.529 -2.5588 -0.0310 -0.9453
17583TIP3   OH274239   6.296   4.804   3.506 -0.1858  0.2873 -0.3410
17583TIP3    H174240   6.286   4.836   3.596  2.9267  0.7029 -0.0984
17583TIP3    H274241   6.210   4.818   3.466 -1.1595  1.5629  2.1051
17584TIP3   OH274242   2.077   5.569   3.580  0.1854  0.2914  0.0443
17584TIP3    H174243   2.163   5.609   3.591 -0.7797  3.0594 -1.8816
17584TIP3    H274244   2.017   5.643   3.574 -2.0706 -1.5414 -0.6872
17585TIP3   OH274245   6.041   3.029   0.935  0.5197  0.4039  0.5179
17585TIP3    H174246   6.103   3.063   0.870  0.1063  0.2159  0.0274
17585TIP3    H274247   6.053   2.934   0.934  0.2230  0.3656  0.4176
17586TIP3   OH274248   4.738   1.498  10.715  0.4071  0.4014 -0.0466
17586TIP3    H174249   4.645   1.506  10.695  0.7837  2.1425 -1.2239
17586TIP3    H274250   4.770   1.588  10.718  1.9533 -0.1569  0.8488
17587TIP3   OH274251   1.763   3.932  14.481  0.1083  0.2221 -0.6552
17587TIP3    H174252   1.855   3.955  14.466 -0.7197  3.0580 -1.8031
17587TIP3    H274253   1.725   3.925  14.394 -0.7412 -1.0759 -0.1953
17588TIP3   OH274254   5.314   3.219   2.594 -0.0806  1.0015 -0.3003
17588TIP3    H174255   5.268   3.185   2.670  1.7183  1.1773  0.9080
17588TIP3    H274256   5.341   3.141   2.545  1.2953  0.7523  0.8082
17589TIP3   OH274257   6.057   4.644  16.340 -0.0968 -0.1968 -0.3635
17589TIP3    H174258   5.994   4.704  16.379 -0.7466 -0.9245 -0.2828
17589TIP3    H274259   6.095   4.693  16.267  0.9453  1.0874  1.0088
17590TIP3   OH274260   6.135   3.409  15.506  0.0601  0.1984 -0.1446
17590TIP3    H174261   6.230   3.412  15.491  0.0228 -0.8008 -0.6170
17590TIP3    H274262   6.124   3.343  15.575 -0.3189  0.0880 -0.3094
17591TIP3   OH274263   6.325   6.692  16.728 -0.0569 -0.0727  0.0461
17591TIP3    H174264   6.315   6.624  16.661 -1.0148  0.8990 -0.8174
17591TIP3    H274265   6.378   6.759  16.685 -0.1880  0.2986  0.4672
17592TIP3   OH274266   3.851   0.316   4.924  0.2070  0.6706  0.2035
17592TIP3    H174267   3.866   0.225   4.947  3.2983  1.1373  0.2577
17592TIP3    H274268   3.773   0.314   4.869 -0.8394 -1.7599  1.7086
17593TIP3   OH274269   4.807   0.137  12.946  0.6150 -0.1001  0.3435
17593TIP3    H174270   4.723   0.091  12.944  1.4594 -1.7119  0.7751
17593TIP3    H274271   4.869   0.072  12.980  1.3833  2.1182  3.4341
17594TIP3   OH274272   0.351   2.621   1.968 -0.1665  0.3429 -0.0125
17594TIP3    H174273   0.421   2.586   1.912 -0.5747 -0.2396 -0.1664
17594TIP3    H274274   0.350   2.715   1.949  1.5389  0.5923  1.0639
17595TIP3   OH274275   5.766   1.497   0.862  0.4360  0.0963 -0.2128
17595TIP3    H174276   5.708   1.572   0.850  0.0431 -0.1588  0.1067
17595TIP3    H274277   5.832   1.528   0.925 -0.0080  0.0194  0.2968
17596TIP3   OH274278   3.581   4.917  13.259 -0.4479  0.1131 -0.8648
17596TIP3    H174279   3.586   4.909  13.163 -0.6517  1.9808 -1.0424
17596TIP3    H274280   3.639   4.990  13.280  0.5764 -1.0881  0.5873
17597TIP3   OH274281   2.879   2.541   5.303 -0.6074  0.0775  0.6000
17597TIP3    H174282   2.789   2.571   5.294 -0.3573  0.3897 -0.9759
17597TIP3    H274283   2.874   2.466   5.362 -1.8498  0.2413  0.7116
17598TIP3   OH274284   6.013   6.277   2.194  0.2038 -0.5084 -0.3682
17598TIP3    H174285   5.939   6.337   2.191 -0.3628 -1.2571 -1.7755
17598TIP3    H274286   6.014   6.236   2.107  0.2352 -2.9658  0.7658
17599TIP3   OH274287   3.837   4.559   4.425 -0.0534  0.1182  0.6212
17599TIP3    H174288   3.841   4.468   4.395  0.3512 -0.5427  2.5515
17599TIP3    H274289   3.879   4.610   4.356 -0.0271 -1.2122 -0.3502
17600TIP3   OH274290   1.079   1.372  16.950 -0.2074 -0.2349  0.2038
17600TIP3    H174291   1.077   1.400  17.041 -1.2301 -0.4938  0.2589
17600TIP3    H274292   1.042   1.446  16.902 -2.6042 -1.3395  0.3142
17601TIP3   OH274293   1.866   4.720  12.218 -0.4851  0.2475  0.2056
17601TIP3    H174294   1.931   4.716  12.148 -0.5519 -2.7848  0.2695
17601TIP3    H274295   1.785   4.688  12.178 -1.0588  0.5824  1.0792
17602TIP3   OH274296   4.416   5.243  11.700  0.2321 -0.6226  0.2529
17602TIP3    H174297   4.470   5.209  11.629  1.7472  1.1891  0.5226
17602TIP3    H274298   4.424   5.338  11.694 -0.5066 -0.4152  2.1605
17603TIP3   OH274299   5.836   2.807   2.384 -0.0626 -0.1486 -0.7286
17603TIP3    H174300   5.776   2.754   2.437  0.5350 -0.5335 -0.4347
17603TIP3    H274301   5.793   2.892   2.377 -0.4467 -0.2942 -0.1616
17604TIP3   OH274302   4.577   0.011   1.836 -0.3562  0.3388 -0.3766
17604TIP3    H174303   4.525  -0.026   1.908  0.4450  0.7938  0.4408
17604TIP3    H274304   4.519   0.076   1.796 -0.6574  0.3725  0.1087
17605TIP3   OH274305   5.556   5.806  16.639 -0.1226 -0.2671  0.4356
17605TIP3    H174306   5.507   5.755  16.704 -1.6798  0.1024 -0.3998
17605TIP3    H274307   5.638   5.828  16.682 -0.2943 -1.7066  1.5636
17606TIP3   OH274308   0.740   2.975   6.141 -0.0744 -0.1108 -0.1258
17606TIP3    H174309   0.784   2.988   6.225  0.3047 -0.6168 -0.2444
17606TIP3    H274310   0.659   2.928   6.164 -1.1129  1.7851  0.2195
17607TIP3   OH274311   4.927   2.612  13.571  0.2751  0.0657 -0.3577
17607TIP3    H174312   4.854   2.632  13.512 -0.1103 -0.1371  0.0552
17607TIP3    H274313   4.932   2.517  13.572  1.4607  0.1026 -1.5071
17608TIP3   OH274314   0.646   1.255  14.516  0.3871 -0.1746 -0.0033
17608TIP3    H174315   0.680   1.328  14.568  1.3282  0.4529 -1.4538
17608TIP3    H274316   0.551   1.268  14.514  0.6362  1.5719 -1.0668
17609TIP3   OH274317   3.780   3.185   4.791 -0.1533  0.2812  0.1216
17609TIP3    H174318   3.834   3.192   4.712 -1.0891  1.0630 -0.4516
17609TIP3    H274319   3.705   3.242   4.775 -1.1815 -0.8151  0.8980
17610TIP3   OH274320   3.240   2.834   3.135  0.4447  0.3642  0.4289
17610TIP3    H174321   3.240   2.789   3.050  0.5578  1.2868 -0.0620
17610TIP3    H274322   3.326   2.874   3.141  0.6313 -0.1378  1.2267
17611TIP3   OH274323   6.343   6.498   4.861 -0.0627 -0.0806 -0.3519
17611TIP3    H174324   6.325   6.541   4.944  0.1152 -1.3291  0.3478
17611TIP3    H274325   6.259   6.459   4.836  0.6924 -2.6114  0.9680
17612TIP3   OH274326   0.771   4.019   0.121  0.0788  0.1174  0.0389
17612TIP3    H174327   0.713   3.964   0.173 -0.1059 -0.0134 -0.3070
17612TIP3    H274328   0.824   3.957   0.070  0.7090  0.2238  0.5500
17613TIP3   OH274329   6.190   0.521  15.035 -0.3226  0.8896 -0.3047
17613TIP3    H174330   6.152   0.470  14.963 -1.2297  1.4033 -0.2020
17613TIP3    H274331   6.195   0.610  15.000 -1.4739  1.2924  0.5189
17614TIP3   OH274332   4.808   4.198  17.082  0.4422  0.2332  0.1651
17614TIP3    H174333   4.791   4.248  17.162 -2.0163 -1.5510  0.8092
17614TIP3    H274334   4.731   4.212  17.027  1.4384  0.2244 -1.2619
17615TIP3   OH274335   2.357   3.126   4.756  0.0050  0.6574  0.0479
17615TIP3    H174336   2.350   3.202   4.698  1.4627  0.1141 -0.8961
17615TIP3    H274337   2.425   3.150   4.818  1.2259 -0.2435 -0.9002
17616TIP3   OH274338   1.108   6.374   5.373  0.1097 -0.6297  0.3874
17616TIP3    H174339   1.149   6.372   5.287  1.4743 -0.5467  1.0308
17616TIP3    H274340   1.167   6.325   5.430  1.0148  2.2639  2.0517
17617TIP3   OH274341   5.151   6.659   3.719  0.0869 -0.1713 -1.1769
17617TIP3    H174342   5.218   6.726   3.736 -1.0404  0.4678  0.8131
17617TIP3    H274343   5.083   6.705   3.670  0.4578 -0.4870 -1.9979
17618TIP3   OH274344   4.525   3.328  14.526 -0.0322 -0.2450 -0.3754
17618TIP3    H174345   4.542   3.267  14.598 -0.9827 -1.8532 -1.4902
17618TIP3    H274346   4.607   3.376  14.516  0.0814  0.0712  1.8441
17619TIP3   OH274347   1.111   2.430   2.954  0.5797  0.1186 -0.8912
17619TIP3    H174348   1.189   2.453   3.005  1.1893  0.7128 -2.0842
17619TIP3    H274349   1.075   2.353   2.999  1.6471  0.0576 -0.1244
17620TIP3   OH274350   1.131   1.741  11.368 -0.0885  0.3584 -0.0627
17620TIP3    H174351   1.092   1.772  11.286 -1.7064 -0.9545  0.1821
17620TIP3    H274352   1.170   1.656  11.345  1.6409  1.1131 -0.0209
17621TIP3   OH274353   3.551   5.398   1.591  0.1075  0.2398  0.0161
17621TIP3    H174354   3.535   5.425   1.682  0.2120 -1.9952  0.7497
17621TIP3    H274355   3.554   5.479   1.541  0.9830  1.5742  2.1727
17622TIP3   OH274356   3.831   4.210   4.745 -0.3228  0.0690 -0.0217
17622TIP3    H174357   3.788   4.137   4.790  0.9238 -0.2401  0.7191
17622TIP3    H274358   3.760   4.268   4.719 -1.3296 -1.3719 -0.5419
17623TIP3   OH274359   4.478   5.113  15.562 -0.1252 -0.5453 -0.0754
17623TIP3    H174360   4.489   5.119  15.467  0.1020 -0.1970 -0.0276
17623TIP3    H274361   4.558   5.069  15.592 -0.7008 -1.6520 -0.1648
17624TIP3   OH274362   0.806   5.507   3.606  0.1394  0.6601  0.3949
17624TIP3    H174363   0.768   5.421   3.586 -0.0822  0.6700  0.7756
17624TIP3    H274364   0.832   5.502   3.697  0.9258  0.7097  0.1775
17625TIP3   OH274365   4.855   5.668  13.123 -0.3310  0.0715 -0.1735
17625TIP3    H174366   4.901   5.600  13.172  2.3177  1.4080 -0.7207
17625TIP3    H274367   4.833   5.734  13.189  1.9320  1.1851 -0.5014
17626TIP3   OH274368   1.698   1.619   4.849  0.1912 -0.1421 -0.2680
17626TIP3    H174369   1.750   1.567   4.786 -2.4748 -2.8079 -0.3856
17626TIP3    H274370   1.624   1.650   4.798 -0.2393  0.5465  0.7703
17627TIP3   OH274371   4.099   6.634  11.839  0.3241  0.4713 -0.2159
17627TIP3    H174372   4.048   6.563  11.800  1.8746 -0.9437  0.2719
17627TIP3    H274373   4.037   6.707  11.847 -1.8172 -1.4253  1.0347
17628TIP3   OH274374   6.535   1.599  12.282  0.2716 -0.1024  0.3199
17628TIP3    H174375   6.490   1.626  12.201  0.7699  1.3334  0.5021
17628TIP3    H274376   6.520   1.505  12.288 -0.2160 -0.1307 -1.1775
17629TIP3   OH274377   5.631   6.331   0.409  0.1198 -0.5281  0.0446
17629TIP3    H174378   5.571   6.390   0.363  0.8199  0.8898  0.9123
17629TIP3    H274379   5.667   6.384   0.480  0.0576 -2.2994  1.4227
17630TIP3   OH274380   2.725   4.374  11.051 -0.4388  0.5788  0.0877
17630TIP3    H174381   2.639   4.396  11.014  0.7244  2.1712 -1.7916
17630TIP3    H274382   2.774   4.336  10.978  1.7673  3.3694  0.0326
17631TIP3   OH274383   1.724   0.512   5.474  0.6600 -0.4588  0.1205
17631TIP3    H174384   1.816   0.536   5.488  0.9852 -2.0325  0.8508
17631TIP3    H274385   1.728   0.431   5.424 -0.3487 -0.1963 -0.3899
17632TIP3   OH274386   3.059   6.059   1.525 -0.2722  0.3854 -0.8615
17632TIP3    H174387   2.992   6.063   1.457 -0.0471 -0.4533 -1.1326
17632TIP3    H274388   3.091   6.149   1.533 -1.7663  0.9044 -0.3934
17633TIP3   OH274389   0.296   2.094   3.092 -0.0658 -0.1254 -0.2710
17633TIP3    H174390   0.387   2.125   3.090 -0.1741  0.1356 -1.2004
17633TIP3    H274391   0.252   2.147   3.027 -0.5592 -1.3211 -0.9132
17634TIP3   OH274392   4.666   4.387  11.690 -0.8989 -0.1741 -0.0393
17634TIP3    H174393   4.575   4.359  11.694 -0.7999 -0.3995  0.7547
17634TIP3    H274394   4.666   4.475  11.727 -1.2313  0.9596 -2.6592
17635TIP3   OH274395   0.854   0.688   2.948  0.2448 -0.0589  0.2169
17635TIP3    H174396   0.863   0.781   2.965 -2.1429  0.3245 -0.4571
17635TIP3    H274397   0.807   0.682   2.865  0.9458 -1.8777 -0.0935
17636TIP3   OH274398   1.247   4.687  10.964  0.1825 -0.1937 -0.0013
17636TIP3    H174399   1.339   4.692  10.940  0.5955 -1.6073  1.2251
17636TIP3    H274400   1.240   4.742  11.043  0.0252 -0.2518  0.0251
17637TIP3   OH274401   0.551   1.807  16.845  0.3631 -0.4643  0.1004
17637TIP3    H174402   0.583   1.779  16.760 -0.9301 -0.5122 -0.3893
17637TIP3    H274403   0.619   1.780  16.907 -0.0614 -3.2223 -0.5572
17638TIP3   OH274404   1.451   4.157   5.029  0.2786  0.1551  0.3557
17638TIP3    H174405   1.417   4.208   4.955  0.2587  0.4202  0.5475
17638TIP3    H274406   1.393   4.081   5.033 -0.6904  0.9067  1.0580
17639TIP3   OH274407   1.869   2.208   1.051 -0.0702 -0.7495 -0.4953
17639TIP3    H174408   1.922   2.251   0.984 -2.2100  2.0501 -0.5322
17639TIP3    H274409   1.932   2.178   1.116  1.6349  1.8817 -0.8413
17640TIP3   OH274410   4.889   0.749   2.968 -0.1466 -0.5543 -0.3054
17640TIP3    H174411   4.914   0.813   2.902 -1.0801 -0.0805 -0.2004
17640TIP3    H274412   4.972   0.724   3.009  0.2253  0.5824 -0.3448
17641TIP3   OH274413   2.297   5.719  15.072  0.5066 -0.4596 -0.0348
17641TIP3    H174414   2.335   5.741  15.157  0.7023 -1.4113  0.1314
17641TIP3    H274415   2.269   5.628  15.081  0.5776 -0.5845 -1.0059
17642TIP3   OH274416   6.593   4.973   5.395 -0.3513  0.3792 -0.2813
17642TIP3    H174417   6.592   4.888   5.439 -0.3644  0.1868 -0.6472
17642TIP3    H274418   6.618   4.952   5.305 -0.5400  0.7431 -0.4154
17643TIP3   OH274419   4.118   4.831  12.239 -0.4922 -0.2204  0.4302
17643TIP3    H174420   4.191   4.881  12.203  2.7215 -2.7469  3.1601
17643TIP3    H274421   4.050   4.896  12.253  0.6861  2.0098 -3.3300
17644TIP3   OH274422   2.557   1.726   5.325  0.0208 -0.1742 -0.0988
17644TIP3    H174423   2.602   1.751   5.406  0.1306 -1.1871  0.1629
17644TIP3    H274424   2.523   1.808   5.291  1.5860  0.5452 -0.0005
17645TIP3   OH274425   0.871   4.885   5.524  0.1661  0.0467 -0.0161
17645TIP3    H174426   0.900   4.824   5.456 -3.0805 -2.0558  0.3832
17645TIP3    H274427   0.920   4.860   5.602  1.0640 -0.0436 -0.5981
17646TIP3   OH274428   6.334   5.825   3.084  0.4068 -0.3769 -0.1730
17646TIP3    H174429   6.269   5.775   3.134  1.3914 -3.7565 -2.1827
17646TIP3    H274430   6.292   5.841   2.999  0.3934  1.6644  0.1744
17647TIP3   OH274431   0.413   5.232  11.198 -0.1424  0.2485 -0.1041
17647TIP3    H174432   0.365   5.236  11.116 -2.0955 -0.6527  0.9476
17647TIP3    H274433   0.465   5.152  11.192  1.2738  1.2504 -1.2736
17648TIP3   OH274434   3.824   2.671   3.394 -0.0696  0.0826 -0.1308
17648TIP3    H174435   3.751   2.706   3.443 -0.1692  0.4766 -0.5507
17648TIP3    H274436   3.815   2.709   3.306  0.2714 -0.3676 -0.3685
17649TIP3   OH274437   3.390   1.525   1.982  0.5183  0.0303  0.4631
17649TIP3    H174438   3.428   1.439   1.961 -0.4787 -0.1422 -0.6416
17649TIP3    H274439   3.421   1.583   1.913  1.4371  0.6512  1.3708
17650TIP3   OH274440   5.579   4.707   3.740 -0.1404  0.3902  0.0241
17650TIP3    H174441   5.675   4.699   3.745 -0.0745  0.6671 -0.7815
17650TIP3    H274442   5.562   4.798   3.765 -0.0543  0.8556 -1.5888
17651TIP3   OH274443   6.565   0.414   0.159  0.1093  0.0865 -0.0949
17651TIP3    H174444   6.624   0.347   0.125 -1.0373 -0.9305 -0.1227
17651TIP3    H274445   6.512   0.440   0.084  0.0539  0.5043  0.0856
17652TIP3   OH274446   0.601   6.500   3.368 -0.2548  0.3730 -0.1995
17652TIP3    H174447   0.689   6.498   3.330 -0.8615 -1.5014 -1.5700
17652TIP3    H274448   0.604   6.436   3.439 -0.2108  1.1155  0.4762
17653TIP3   OH274449   2.847   4.475  14.445  0.5237 -0.0549  0.6730
17653TIP3    H174450   2.878   4.476  14.536 -1.4331 -1.3460  1.3882
17653TIP3    H274451   2.927   4.465  14.393  1.7236  1.2949  2.1988
17654TIP3   OH274452   1.427   4.535  14.599 -0.0179 -0.2033  0.2389
17654TIP3    H174453   1.457   4.626  14.610  2.4928 -0.6754 -2.3470
17654TIP3    H274454   1.353   4.542  14.538 -0.7244  0.2116  1.1217
17655TIP3   OH274455   0.308   5.205  11.469  0.0342 -0.3179 -1.1679
17655TIP3    H174456   0.240   5.271  11.483 -1.0576 -1.7306  0.2236
17655TIP3    H274457   0.327   5.210  11.375 -2.0040  0.0473 -1.5693
17656TIP3   OH274458   1.960   2.440   4.265 -0.1918  0.0800  0.5137
17656TIP3    H174459   1.929   2.355   4.298  1.3495 -0.5988  0.2580
17656TIP3    H274460   1.959   2.430   4.170 -1.2151  0.7993  0.4415
17657TIP3   OH274461   4.112   5.342   5.765 -0.3625 -0.0964 -0.2063
17657TIP3    H174462   4.092   5.343   5.859  0.7817 -1.8757  0.0899
17657TIP3    H274463   4.068   5.419   5.730 -2.7733 -0.6859  1.4067
17658TIP3   OH274464   4.837   3.074   1.174  0.7561  0.2440  0.0489
17658TIP3    H174465   4.901   3.025   1.121 -0.3477 -0.0264 -1.0695
17658TIP3    H274466   4.766   3.012   1.188  0.1248  0.9822  0.1107
17659TIP3   OH274467   2.135   2.840  13.983  0.2058 -0.2466 -0.1794
17659TIP3    H174468   2.193   2.766  13.963  0.4430 -0.6507  1.8262
17659TIP3    H274469   2.192   2.917  13.975  0.1468 -0.3313 -1.5442
17660TIP3   OH274470   4.277   5.408   0.112 -0.0731 -0.5571  0.2337
17660TIP3    H174471   4.196   5.358   0.118 -0.3580 -0.1569 -0.1765
17660TIP3    H274472   4.286   5.428   0.019 -0.5173  1.0252  0.5105
17661TIP3   OH274473   4.303   2.484   4.821 -0.1866 -0.9658  0.4496
17661TIP3    H174474   4.261   2.543   4.759  0.5817 -0.0209  0.8126
17661TIP3    H274475   4.233   2.458   4.881 -0.8487 -1.5881 -0.5836
17662TIP3   OH274476   3.281   5.622  12.486  0.9391  0.0739 -0.3939
17662TIP3    H174477   3.263   5.608  12.394  1.2948 -1.5569 -0.2268
17662TIP3    H274478   3.351   5.688  12.487  0.5328  0.5169 -1.2617
17663TIP3   OH274479   1.414   2.695   4.622  0.1621 -0.4323  0.3736
17663TIP3    H174480   1.402   2.615   4.674 -1.1704 -0.1034  0.6088
17663TIP3    H274481   1.507   2.716   4.631  0.3832 -1.5628  0.8877
17664TIP3   OH274482   5.703   5.648   1.140 -0.7802  0.2855 -0.0238
17664TIP3    H174483   5.655   5.703   1.078 -0.5409  0.4787 -0.0375
17664TIP3    H274484   5.635   5.604   1.191 -0.9927 -0.9229 -1.3402
17665TIP3   OH274485   4.926   4.155  16.091 -0.2992 -0.2943 -0.2309
17665TIP3    H174486   4.925   4.215  16.166  1.5534 -0.0121 -0.3956
17665TIP3    H274487   4.872   4.198  16.025  0.4887  0.9213 -0.1155
17666TIP3   OH274488   2.936   0.294  15.645 -0.1321  0.3935  0.1125
17666TIP3    H174489   2.973   0.243  15.717  0.2190  1.2667  0.5530
17666TIP3    H274490   3.011   0.322  15.593 -0.2772  0.9621  0.2049
17667TIP3   OH274491   2.452   6.311  13.877  0.3441 -0.4478  0.0608
17667TIP3    H174492   2.452   6.351  13.964  0.2109 -0.7754  0.2139
17667TIP3    H274493   2.412   6.376  13.820 -0.1720 -0.4940  0.3711
17668TIP3   OH274494   2.173   6.076  15.777  0.1971  0.0092  0.7081
17668TIP3    H174495   2.159   6.163  15.737 -0.7684 -0.0007  1.0020
17668TIP3    H274496   2.134   6.084  15.864  1.9765 -0.0840  1.5231
17669TIP3   OH274497   5.729   0.329   0.077 -0.4108  0.0387  0.0221
17669TIP3    H174498   5.713   0.322  -0.018  0.2294  2.6396 -0.3201
17669TIP3    H274499   5.689   0.412   0.102  1.0195  0.2713  1.6587
17670TIP3   OH274500   3.001   0.745   5.771 -0.5294 -0.0535  0.3319
17670TIP3    H174501   3.025   0.655   5.790 -0.0489  0.2727  1.2945
17670TIP3    H274502   3.071   0.798   5.809 -1.5747  0.8021  1.1283
17671TIP3   OH274503   0.100   5.999  11.870 -0.3119  0.2516  0.0030
17671TIP3    H174504   0.039   5.953  11.813 -0.6300 -0.1729  0.6736
17671TIP3    H274505   0.181   5.949  11.864  0.1271  1.1067 -1.2781
17672TIP3   OH274506   0.286   1.129  12.834  0.0237  0.6444  0.6650
17672TIP3    H174507   0.333   1.208  12.807  1.7854 -0.6201 -0.0711
17672TIP3    H274508   0.337   1.057  12.797 -2.6633 -0.7870 -0.4103
17673TIP3   OH274509   6.728   0.740  13.428  0.0154  0.1550 -0.5604
17673TIP3    H174510   6.725   0.808  13.495 -2.6868 -0.6858  0.2406
17673TIP3    H274511   6.773   0.667  13.470  0.7080  0.5631 -0.5844
17674TIP3   OH274512   1.191   0.912   0.603 -0.1585  0.1543 -0.0825
17674TIP3    H174513   1.169   0.835   0.551  1.4529 -0.3277 -0.0818
17674TIP3    H274514   1.286   0.918   0.597 -0.1155  1.0988  1.4016
17675TIP3   OH274515   0.306   6.762  13.153  0.1173  0.3324 -0.1572
17675TIP3    H174516   0.317   6.774  13.247 -0.6404  0.0178 -0.0249
17675TIP3    H274517   0.349   6.679  13.134 -0.2356  0.1103  0.0112
17676TIP3   OH274518   2.535   2.537   4.269  0.2511  0.2784 -0.4555
17676TIP3    H174519   2.457   2.481   4.270 -0.3136  1.0380 -0.9362
17676TIP3    H274520   2.598   2.490   4.214  0.9673 -1.4103  1.7623
17677TIP3   OH274521   5.776   5.389  15.483 -0.2494  0.0797  0.4960
17677TIP3    H174522   5.797   5.482  15.490  0.5494  0.0933 -1.7098
17677TIP3    H274523   5.719   5.383  15.406  1.8953 -1.5605 -1.0163
17678TIP3   OH274524   5.789   3.903   2.029  0.2410 -0.2278  0.0518
17678TIP3    H174525   5.716   3.868   2.080 -0.2718  0.7420 -0.0112
17678TIP3    H274526   5.862   3.905   2.091 -0.2404  0.4419  0.6016
17679TIP3   OH274527   1.418   2.259  17.243  0.2047 -0.1740 -0.0628
17679TIP3    H174528   1.507   2.284  17.265  0.4401 -0.5249 -0.6095
17679TIP3    H274529   1.377   2.239  17.328  0.3106  1.0478  0.2806
17680TIP3   OH274530   2.768   5.908  17.272  0.3982  0.0034 -0.3132
17680TIP3    H174531   2.695   5.906  17.335  1.3887  0.6549  0.8853
17680TIP3    H274532   2.733   5.866  17.194 -1.3411  0.5013  0.1658
17681TIP3   OH274533   2.954   1.443  11.588 -0.2241  0.3751  0.3385
17681TIP3    H174534   3.048   1.457  11.579  0.2500 -2.4622  0.4657
17681TIP3    H274535   2.927   1.503  11.658  1.1348  2.4010 -0.7982
17682TIP3   OH274536   5.427   4.168  14.925 -0.1146 -0.3999  0.5032
17682TIP3    H174537   5.461   4.103  14.987 -1.7185 -0.8036  0.9697
17682TIP3    H274538   5.481   4.246  14.940  0.2543 -0.8627  1.5988
17683TIP3   OH274539   1.309   0.309  15.795  0.1972 -0.4879 -0.1436
17683TIP3    H174540   1.388   0.259  15.817  1.0476  1.1011  0.4625
17683TIP3    H274541   1.293   0.289  15.703  1.8258 -0.1207 -0.5100
17684TIP3   OH274542   0.316   1.938   4.919  0.4769 -0.3795  0.3894
17684TIP3    H174543   0.337   1.965   4.830  1.7741 -0.2282  0.7330
17684TIP3    H274544   0.388   1.972   4.972  0.0318 -0.9990  1.4126
17685TIP3   OH274545   2.727   0.469  10.541 -0.1399 -0.3223  0.4539
17685TIP3    H174546   2.784   0.543  10.562  0.3189 -0.6255  0.2973
17685TIP3    H274547   2.766   0.395  10.588 -0.7953 -0.3934  0.8870
17686TIP3   OH274548   5.342   5.739  14.838  0.8364 -0.0383 -0.0996
17686TIP3    H174549   5.422   5.759  14.887  0.6398 -0.1378  0.2683
17686TIP3    H274550   5.322   5.820  14.791  0.7175  0.2402  0.4252
17687TIP3   OH274551   4.296   4.258   2.279 -0.1790  0.2521  0.0061
17687TIP3    H174552   4.231   4.296   2.220 -1.3881 -1.2513  0.3339
17687TIP3    H274553   4.372   4.242   2.223 -1.0518 -0.4620 -0.9820
17688TIP3   OH274554   5.587   3.362   2.715 -0.7274 -0.7023  0.0584
17688TIP3    H174555   5.547   3.398   2.636 -1.5927 -2.5951 -0.4005
17688TIP3    H274556   5.568   3.426   2.783 -0.8803  0.4440 -1.0344
17689TIP3   OH274557   6.731   5.856  16.643  0.1282  0.3325  0.2215
17689TIP3    H174558   6.692   5.813  16.719  0.8980 -0.7942 -0.0108
17689TIP3    H274559   6.659   5.864  16.580  0.7528 -4.1089 -1.2410
17690TIP3   OH274560   6.488   6.048   5.793 -0.0188  0.3431  0.5225
17690TIP3    H174561   6.502   5.997   5.714  0.8105  0.1733  0.7738
17690TIP3    H274562   6.497   5.985   5.864 -1.4782  0.3511  0.7260
17691TIP3   OH274563   1.633   4.715   3.263 -0.0063  0.4248  0.3073
17691TIP3    H174564   1.605   4.684   3.177  1.3631  2.1625 -0.7972
17691TIP3    H274565   1.576   4.669   3.325 -0.9045 -0.9663 -1.5061
17692TIP3   OH274566   5.159   1.063  14.790  0.4326  0.1164  0.7587
17692TIP3    H174567   5.182   1.129  14.856  2.1441  0.0316  0.2777
17692TIP3    H274568   5.164   0.980  14.836  1.7976  0.0422  0.5167
17693TIP3   OH274569   4.867   1.405  12.861  0.4745 -0.2825  0.3748
17693TIP3    H174570   4.834   1.481  12.813  0.5094  1.5861  3.2226
17693TIP3    H274571   4.810   1.398  12.937  0.9597 -2.6828  0.5672
17694TIP3   OH274572   3.413   4.907  15.448 -0.3527 -0.1883  0.0482
17694TIP3    H174573   3.408   5.002  15.458 -1.1392  0.0585 -2.2751
17694TIP3    H274574   3.334   4.874  15.492  0.3429  0.1365  1.5766
17695TIP3   OH274575   4.540   2.395   2.154 -0.0761 -0.4355  0.1511
17695TIP3    H174576   4.483   2.463   2.189  0.0984 -0.4933  0.5433
17695TIP3    H274577   4.599   2.441   2.095 -0.5252 -0.3753 -0.2599
17696TIP3   OH274578   2.781   1.089   2.647 -0.4802 -0.7569  0.4022
17696TIP3    H174579   2.818   1.042   2.572 -0.1763 -2.2818  1.4727
17696TIP3    H274580   2.733   1.162   2.608  0.9628 -0.6120 -1.1878
17697TIP3   OH274581   1.936   0.238   4.503  0.4692  1.0001  0.0973
17697TIP3    H174582   1.893   0.307   4.554 -1.0875 -0.8881  1.4067
17697TIP3    H274583   2.015   0.218   4.552 -0.0313  0.5595  0.7328
17698TIP3   OH274584   1.283   2.139  16.105  0.1682  0.2128 -0.0349
17698TIP3    H174585   1.289   2.234  16.097  0.0483  0.1400 -1.0774
17698TIP3    H274586   1.360   2.114  16.156  0.8343  0.7463 -0.7721
17699TIP3   OH274587   0.335   1.644   3.962 -0.5039 -0.2652 -0.2144
17699TIP3    H174588   0.409   1.683   4.009 -0.1948 -0.3397 -0.6409
17699TIP3    H274589   0.319   1.704   3.889 -0.2039 -0.7937 -0.7129
17700TIP3   OH274590   1.832   5.413  16.513 -0.0586 -0.0966  0.0771
17700TIP3    H174591   1.776   5.477  16.470  0.1872  0.4840  0.6183
17700TIP3    H274592   1.908   5.405  16.455 -0.5638 -0.6896 -0.5252
17701TIP3   OH274593   3.232   5.473   1.607 -0.3744  0.3781  0.2797
17701TIP3    H174594   3.280   5.467   1.524 -2.1730  4.2774 -1.1631
17701TIP3    H274595   3.299   5.489   1.673  0.9052 -0.9476 -0.6573
17702TIP3   OH274596   1.362   0.425   2.812 -0.4271 -0.1040 -0.1643
17702TIP3    H174597   1.423   0.420   2.885  0.2474 -2.6822 -0.8428
17702TIP3    H274598   1.291   0.366   2.836 -1.4130  0.9141 -0.5194
17703TIP3   OH274599   5.661   2.977  14.904  0.0821  0.2912  0.3309
17703TIP3    H174600   5.698   2.987  14.992  1.1192 -0.0163 -0.0577
17703TIP3    H274601   5.614   3.059  14.889 -0.3005  0.2552  1.2555
17704TIP3   OH274602   1.218   4.366  16.810  0.0983 -0.5291  0.4211
17704TIP3    H174603   1.297   4.342  16.761 -0.3434 -0.1973 -0.4569
17704TIP3    H274604   1.195   4.287  16.858  0.2666 -0.9998 -0.2686
17705TIP3   OH274605   0.026   6.584  16.985  0.2639 -0.0540  0.7412
17705TIP3    H174606   0.088   6.656  16.976 -0.6571  0.6550 -0.0641
17705TIP3    H274607  -0.001   6.564  16.896 -1.3906  0.2947  1.1469
17706TIP3   OH274608   6.426   6.566   2.780  0.4417  0.0840 -0.0126
17706TIP3    H174609   6.479   6.502   2.828  0.8684  0.4329 -0.0175
17706TIP3    H274610   6.381   6.514   2.713  1.6186 -0.0468 -0.7086
17707TIP3   OH274611   0.464   4.180   0.361  0.4738 -0.1624 -0.3716
17707TIP3    H174612   0.452   4.164   0.267  0.9310 -0.5568 -0.3681
17707TIP3    H274613   0.465   4.092   0.399 -1.4026  0.0430  0.2250
17708TIP3   OH274614   5.576   2.182   5.345  0.1141  0.6038 -0.0236
17708TIP3    H174615   5.577   2.113   5.411  1.4596 -1.5822 -2.2531
17708TIP3    H274616   5.563   2.263   5.395 -0.8701 -1.1713  2.6910
17709TIP3   OH274617   1.809   5.704  13.205 -0.2205  0.3033 -0.1722
17709TIP3    H174618   1.718   5.695  13.233 -0.4030  2.3056 -0.0172
17709TIP3    H274619   1.859   5.659  13.272 -0.9944  0.7624  0.7378
17710TIP3   OH274620   3.123   6.684   6.721  0.2447 -0.3800  0.5299
17710TIP3    H174621   3.214   6.683   6.690  0.7031 -1.4803  1.8888
17710TIP3    H274622   3.088   6.599   6.695 -0.1520 -0.2800  0.7355
17711TIP3   OH274623   5.828   0.152   2.982  0.5513 -0.1722 -0.3473
17711TIP3    H174624   5.845   0.121   3.071  0.7349 -0.3694 -0.4505
17711TIP3    H274625   5.893   0.107   2.928 -0.2535 -0.8692 -0.7427
17712TIP3   OH274626   4.839   0.044  13.848  0.7530  0.6451 -0.1388
17712TIP3    H174627   4.823   0.032  13.942  1.2826 -0.4518 -0.1771
17712TIP3    H274628   4.751   0.044  13.809  0.6155 -1.1199  0.1223
17713TIP3   OH274629   1.285   0.165  14.358  0.6824 -0.4144 -0.0972
17713TIP3    H174630   1.372   0.197  14.334  1.2326 -0.0028  2.3074
17713TIP3    H274631   1.299   0.074  14.383  0.1252 -0.8283 -1.2675
17714TIP3   OH274632   1.308   0.027  12.632  0.2151 -0.0550  0.5106
17714TIP3    H174633   1.215   0.012  12.615  0.1491  0.8556  0.0275
17714TIP3    H274634   1.312   0.115  12.669  0.8035 -0.4059  1.3051
17715TIP3   OH274635   0.488   5.561   5.041 -0.2803 -0.0675 -0.0725
17715TIP3    H174636   0.503   5.492   5.106 -1.3689  0.0350  0.2876
17715TIP3    H274637   0.394   5.556   5.021 -0.3793  1.3482 -0.0100
17716TIP3   OH274638   0.824   4.392   4.118 -0.0957 -0.5024  0.1428
17716TIP3    H174639   0.799   4.471   4.071  1.0473 -0.0875  0.2262
17716TIP3    H274640   0.762   4.326   4.089  0.7025 -0.3026 -2.0778
17717TIP3   OH274641   5.857   5.576  15.153  0.1426 -0.0092 -0.5829
17717TIP3    H174642   5.928   5.628  15.117  0.3519  0.2629  0.1946
17717TIP3    H274643   5.852   5.499  15.098  0.6832  0.2330 -0.9699
17718TIP3   OH274644   3.718   3.253   1.649 -0.1952 -0.2911  0.2417
17718TIP3    H174645   3.761   3.193   1.710 -0.6647 -0.0656  0.7905
17718TIP3    H274646   3.783   3.267   1.579 -0.1520 -1.5627  0.0253
17719TIP3   OH274647   5.861   3.899   3.396  0.1440 -0.0790 -0.5831
17719TIP3    H174648   5.949   3.887   3.430  0.5064  0.8715 -1.1530
17719TIP3    H274649   5.815   3.818   3.417  1.6302 -1.2618 -1.7733
17720TIP3   OH274650   4.845   4.176   5.439 -0.6145 -0.2187  0.2504
17720TIP3    H174651   4.870   4.229   5.363 -3.5778  1.3353  0.2916
17720TIP3    H274652   4.860   4.233   5.514 -0.3147 -0.7727  0.6143
17721TIP3   OH274653   3.894   5.221   3.439  0.0480  0.1459  0.0696
17721TIP3    H174654   3.836   5.155   3.477 -0.7076  0.6371 -0.2195
17721TIP3    H274655   3.836   5.281   3.393  0.6937  1.1921  0.5838
17722TIP3   OH274656   3.627   1.432  11.347  0.8716  0.4716 -0.3735
17722TIP3    H174657   3.654   1.341  11.359 -0.1950 -0.1215 -2.2323
17722TIP3    H274658   3.557   1.445  11.411  0.4603 -0.2918 -0.6562
17723TIP3   OH274659   3.784   4.976   4.397 -0.1549  0.3081  0.3490
17723TIP3    H174660   3.788   5.000   4.489  2.1936 -0.5462  0.5028
17723TIP3    H274661   3.811   5.056   4.350  2.0428 -0.2531  0.5958
17724TIP3   OH274662   4.212   6.520   1.560  0.3506 -0.1969  0.9216
17724TIP3    H174663   4.136   6.465   1.578 -0.4192  0.6809  0.4540
17724TIP3    H274664   4.204   6.592   1.623 -0.8426  1.4398 -1.0181
17725TIP3   OH274665   4.586   6.671  15.467  0.0454 -0.0016  0.4641
17725TIP3    H174666   4.650   6.603  15.443 -1.0313 -0.7867 -0.2375
17725TIP3    H274667   4.529   6.678  15.391  1.4051  3.2428 -0.3434
17726TIP3   OH274668   4.021   0.671   3.351 -0.1903 -0.1673 -0.1212
17726TIP3    H174669   3.944   0.714   3.387 -0.3074 -1.4854  1.2755
17726TIP3    H274670   4.067   0.636   3.428  0.3077 -1.8052 -1.1291
17727TIP3   OH274671   6.324   1.390   0.496  0.1336  0.1659 -0.0618
17727TIP3    H174672   6.258   1.329   0.529  0.2115  0.8338  1.3462
17727TIP3    H274673   6.274   1.449   0.438 -0.4022  0.2953  0.5212
17728TIP3   OH274674   0.675   6.186  11.653  0.1031 -0.1322  0.6409
17728TIP3    H174675   0.587   6.178  11.690  0.3722 -0.1208  1.3062
17728TIP3    H274676   0.703   6.274  11.678  0.9711 -0.7512  1.9676
17729TIP3   OH274677   4.208   3.916  12.524  0.4741  0.0405 -0.5140
17729TIP3    H174678   4.150   3.991  12.512 -1.2352 -1.1578  0.0226
17729TIP3    H274679   4.182   3.854  12.455  0.8836 -0.6501 -0.0608
17730TIP3   OH274680   2.507   1.881   4.141 -0.4847  0.4670  0.4115
17730TIP3    H174681   2.450   1.819   4.094 -0.0907  0.1904  0.2937
17730TIP3    H274682   2.564   1.825   4.194  0.3583  0.6828 -0.2440
17731TIP3   OH274683   4.790   5.172  15.870  0.6962  0.1099 -0.0595
17731TIP3    H174684   4.749   5.106  15.814 -0.8121  0.6499  0.4046
17731TIP3    H274685   4.767   5.255  15.830  0.7739  0.4426  0.5802
17732TIP3   OH274686   1.923   2.641  12.549  0.0033 -0.0835  0.1333
17732TIP3    H174687   1.840   2.602  12.574 -0.2543 -0.3297 -1.0813
17732TIP3    H274688   1.909   2.675  12.461  0.8068  1.0191  0.4001
17733TIP3   OH274689   6.031   4.132  11.323  0.2747 -0.2237  0.0714
17733TIP3    H174690   5.936   4.122  11.321  0.1536  0.6241  1.2392
17733TIP3    H274691   6.064   4.044  11.307 -0.6708 -0.1245 -2.7588
17734TIP3   OH274692   0.882   1.819   3.971 -0.1792 -0.1779  0.2870
17734TIP3    H174693   0.824   1.765   3.917 -0.0455  0.3778 -0.4109
17734TIP3    H274694   0.850   1.806   4.061 -0.7192 -0.7014  0.0230
17735TIP3   OH274695   0.882   5.081   1.289 -0.8003  0.8955 -0.1034
17735TIP3    H174696   0.950   5.051   1.229 -1.3737  0.3638 -0.4967
17735TIP3    H274697   0.887   5.177   1.284  0.3706  0.8721  0.4037
17736TIP3   OH274698   2.146   2.128  17.251  0.2897 -0.2232  0.4797
17736TIP3    H174699   2.208   2.199  17.261 -2.0629  2.2711 -1.8373
17736TIP3    H274700   2.159   2.073  17.328  2.8826  2.1234  1.7678
17737TIP3   OH274701   5.111   3.924  16.346  0.1805  0.5536 -0.6590
17737TIP3    H174702   5.073   3.843  16.312  0.8640  0.6408 -1.6424
17737TIP3    H274703   5.040   3.965  16.395 -0.2400 -0.5187 -0.3525
17738TIP3   OH274704   0.334   2.898   1.944  0.4034  0.2034  0.1758
17738TIP3    H174705   0.381   2.937   2.018 -0.8015  3.2450 -0.5952
17738TIP3    H274706   0.246   2.935   1.949 -0.5509 -1.7828 -1.1488
17739TIP3   OH274707   2.153   4.135  16.102 -1.0578  0.1392 -0.0073
17739TIP3    H174708   2.139   4.148  16.196  1.9489 -0.6592  0.5987
17739TIP3    H274709   2.146   4.222  16.063 -2.4195  0.4555  0.9179
17740TIP3   OH274710   3.257   0.307   3.511 -0.2766  0.2165  0.1433
17740TIP3    H174711   3.244   0.230   3.566 -1.8709  1.6605  1.8672
17740TIP3    H274712   3.341   0.343   3.538  1.1813 -1.6520 -1.6695
17741TIP3   OH274713   6.428   5.281   0.698 -0.2635 -0.5147  0.4863
17741TIP3    H174714   6.467   5.196   0.676 -0.2140  0.3852 -3.2068
17741TIP3    H274715   6.336   5.273   0.671  0.1079  1.0862 -1.3364
17742TIP3   OH274716   6.358   3.921  15.024 -0.4118  0.7896 -0.0146
17742TIP3    H174717   6.380   3.969  14.943  0.7841  1.5457  0.7366
17742TIP3    H274718   6.322   3.838  14.993  0.7413  0.7565 -1.3399
17743TIP3   OH274719   1.909   3.843   0.431  0.2394  0.0764 -0.1809
17743TIP3    H174720   1.917   3.850   0.336  0.0902  1.2090 -0.1190
17743TIP3    H274721   1.866   3.759   0.445  1.6815 -0.8269 -1.0334
17744TIP3   OH274722   4.253   5.749  11.375  0.4123  0.0892 -0.2061
17744TIP3    H174723   4.242   5.654  11.385  0.0261  0.3892  2.7955
17744TIP3    H274724   4.331   5.759  11.320  0.4364 -1.9514 -0.5813
17745TIP3   OH274725   1.983   3.675   5.812  0.6666  0.2913  0.0001
17745TIP3    H174726   1.985   3.640   5.901  0.8671  0.4606  0.0629
17745TIP3    H274727   1.981   3.770   5.824 -0.7784  0.2872 -0.1547
17746TIP3   OH274728   4.900   4.719  16.860  0.2680 -0.1007 -0.8500
17746TIP3    H174729   4.925   4.775  16.933  0.5215 -1.7828  0.3917
17746TIP3    H274730   4.832   4.768  16.814 -0.2286  0.7826  0.7877
17747TIP3   OH274731   1.432   3.744  14.810 -0.3629 -0.3648  0.2385
17747TIP3    H174732   1.391   3.737  14.896  0.3938  0.3242  0.6603
17747TIP3    H274733   1.449   3.838  14.799  1.0422 -0.6323  0.0462
17748TIP3   OH274734   1.120   6.068  13.424 -0.2239  0.1020  0.0801
17748TIP3    H174735   1.183   6.076  13.352 -1.2468  0.5267 -0.7871
17748TIP3    H274736   1.053   6.134  13.404 -0.3508  0.4348  1.5986
17749TIP3   OH274737   4.740   3.761  16.016 -0.4555 -0.5714 -0.3480
17749TIP3    H174738   4.667   3.790  16.071 -1.8305 -1.9066 -1.4740
17749TIP3    H274739   4.742   3.824  15.944  0.4828  0.3618  0.4712
17750TIP3   OH274740   1.462   5.232   3.877  0.1553  0.2900 -0.0030
17750TIP3    H174741   1.455   5.144   3.840  0.6146 -0.2929  1.2693
17750TIP3    H274742   1.546   5.265   3.845  0.9403 -0.5351  1.1792
17751TIP3   OH274743   1.739   1.345  14.934  0.7146 -0.3745 -0.0994
17751TIP3    H174744   1.748   1.437  14.910  1.4002 -0.3539  0.2437
17751TIP3    H274745   1.649   1.338  14.966  1.3700  0.6884  2.0748
17752TIP3   OH274746   4.278   0.578   4.420 -0.2565 -0.8353 -0.2272
17752TIP3    H174747   4.191   0.619   4.420 -1.4061 -3.1443  0.0690
17752TIP3    H274748   4.262   0.489   4.454  2.5663 -0.6200  1.8712
17753TIP3   OH274749   3.642   1.597  16.020  0.2096 -0.1405 -0.4425
17753TIP3    H174750   3.611   1.506  16.025 -1.7925  0.5987  1.4303
17753TIP3    H274751   3.705   1.597  15.948  1.1850 -3.2844  0.3348
17754TIP3   OH274752   1.718   1.543   5.542  0.5326 -0.1046 -0.3893
17754TIP3    H174753   1.782   1.505   5.482  0.8293  0.2319 -0.2847
17754TIP3    H274754   1.755   1.628   5.567 -0.0693  0.2001 -0.5243
17755TIP3   OH274755   2.018   4.038  14.370 -0.2346  0.3812 -0.2063
17755TIP3    H174756   2.087   3.973  14.387 -1.3318 -0.8508 -0.3360
17755TIP3    H274757   1.987   4.017  14.282 -0.2931  1.3960 -0.4349
17756TIP3   OH274758   0.833   0.272   1.290  0.4620  0.0111  0.3860
17756TIP3    H174759   0.810   0.254   1.381  2.1775  0.9792  1.0420
17756TIP3    H274760   0.905   0.213   1.271 -0.8779 -1.2591 -0.8516
17757TIP3   OH274761   0.900   1.708   2.280 -0.0909 -0.1459 -0.1338
17757TIP3    H174762   0.943   1.728   2.363  0.7609 -1.3140 -0.2940
17757TIP3    H274763   0.916   1.785   2.226  0.8055 -0.0919  0.2065
17758TIP3   OH274764   1.412   4.136  17.207  0.0715 -0.0081  0.0300
17758TIP3    H174765   1.329   4.090  17.217 -0.4754  0.9299 -0.1504
17758TIP3    H274766   1.388   4.228  17.196  1.0762  0.1207 -1.2725
17759TIP3   OH274767   2.861   0.428  14.609  0.0031  0.0861 -0.1457
17759TIP3    H174768   2.927   0.366  14.642 -1.7879 -1.1647  1.1871
17759TIP3    H274769   2.890   0.448  14.520  1.9069 -0.8206  0.2357
17760TIP3   OH274770   0.745   0.546   1.726 -0.3205  0.4267  0.0218
17760TIP3    H174771   0.784   0.464   1.756 -0.2774  1.7304  3.6854
17760TIP3    H274772   0.652   0.537   1.747 -0.4774  0.9535 -0.4472
17761TIP3   OH274773   6.180   3.367  13.839  0.6286 -0.0778  0.3350
17761TIP3    H174774   6.232   3.410  13.771  0.1466  0.1458  0.1019
17761TIP3    H274775   6.221   3.281  13.850  1.4793  0.3591  0.6580
17762TIP3   OH274776   3.894   2.808  12.314 -0.7090 -0.7159 -0.0182
17762TIP3    H174777   3.842   2.734  12.346  0.1308 -1.2603  0.1099
17762TIP3    H274778   3.960   2.822  12.382  0.5677 -1.3346 -1.1067
17763TIP3   OH274779   2.165   0.476  14.024 -0.8138  0.2150 -0.2115
17763TIP3    H174780   2.257   0.472  13.999 -0.8865 -0.2459 -0.4009
17763TIP3    H274781   2.123   0.406  13.974 -0.8413 -1.1793  1.7021
17764TIP3   OH274782   0.025   5.400  15.021  0.1065  0.3639 -0.1091
17764TIP3    H174783   0.007   5.363  15.108  1.6504 -0.8695 -0.2893
17764TIP3    H274784  -0.055   5.385  14.972 -0.2350 -0.3488  0.6368
17765TIP3   OH274785   0.430   2.173  12.974  0.7090 -0.1930  0.1770
17765TIP3    H174786   0.390   2.095  13.012 -1.2564  0.5656 -0.2617
17765TIP3    H274787   0.394   2.245  13.026 -0.1117  0.6612 -1.5173
17766TIP3   OH274788   4.903   4.619  16.431 -0.1194  0.1828  0.3121
17766TIP3    H174789   4.907   4.565  16.510  0.8438 -0.4884 -0.1776
17766TIP3    H274790   4.921   4.708  16.461  0.1501 -0.0588  0.8641
17767TIP3   OH274791   6.761   4.000   1.138 -0.4283  0.5316 -0.1127
17767TIP3    H174792   6.820   3.931   1.108 -1.1634  0.0812 -0.5623
17767TIP3    H274793   6.696   4.008   1.067 -1.8743 -0.1700  1.1052
17768TIP3   OH274794   2.146   2.355   3.077 -0.4494  0.1648  0.7743
17768TIP3    H174795   2.085   2.282   3.077 -1.2088  0.7866  0.8140
17768TIP3    H274796   2.209   2.335   3.146 -0.6567 -0.4366  0.7861
17769TIP3   OH274797   0.266   5.881   6.603 -0.2004  0.5546  0.1099
17769TIP3    H174798   0.250   5.965   6.560 -0.9133  0.1206 -0.4834
17769TIP3    H274799   0.289   5.822   6.532 -2.1265 -0.3554  0.2099
17770TIP3   OH274800   3.972   2.982   0.195 -0.3551  0.5579  0.1547
17770TIP3    H174801   3.941   3.073   0.194 -0.4962  0.5198  1.1325
17770TIP3    H274802   3.901   2.933   0.153 -1.3706  0.5591  1.8388
17771TIP3   OH274803   1.633   3.094   2.198 -0.6757  0.3239 -0.2115
17771TIP3    H174804   1.687   3.155   2.148  1.5530 -0.1923  1.4682
17771TIP3    H274805   1.600   3.145   2.272 -0.5377  0.0492  0.0447
17772TIP3   OH274806   5.486   5.300  10.901  0.1316 -0.7698 -0.1741
17772TIP3    H174807   5.535   5.314  10.982 -0.3222  1.4648 -0.2406
17772TIP3    H274808   5.395   5.298  10.929  0.0092 -0.5642 -0.5666
17773TIP3   OH274809   6.580   6.543  14.090 -0.4168  0.2946 -0.5183
17773TIP3    H174810   6.594   6.625  14.043 -1.4398  0.3734 -0.7150
17773TIP3    H274811   6.485   6.538  14.102 -0.2969 -0.4307  0.2714
17774TIP3   OH274812   0.441   2.489  11.087  0.0482  0.6527  0.2261
17774TIP3    H174813   0.353   2.491  11.048 -0.4487  1.3228  1.3579
17774TIP3    H274814   0.499   2.470  11.013 -0.9946  0.7559 -0.6398
17775TIP3   OH274815   4.575   5.288   1.308  0.0073 -0.2170 -0.1776
17775TIP3    H174816   4.653   5.286   1.252  0.5666 -2.6066  0.6494
17775TIP3    H274817   4.610   5.297   1.397 -0.7507  0.5273  0.0507
17776TIP3   OH274818   1.236   0.458   3.509  0.4384  0.1029  0.0141
17776TIP3    H174819   1.224   0.477   3.416  0.3943  0.5026  0.1030
17776TIP3    H274820   1.150   0.472   3.548  0.3356 -0.5520  0.0317
17777TIP3   OH274821   0.705   1.629  15.013  0.1716  0.1491 -0.1801
17777TIP3    H174822   0.785   1.676  15.039  0.2087 -0.5847  1.0370
17777TIP3    H274823   0.671   1.680  14.939  2.3843 -0.1628 -1.4852
17778TIP3   OH274824   2.392   1.069  17.198 -0.0298  0.2583  0.7195
17778TIP3    H174825   2.332   1.099  17.266  1.2786  4.1806  0.2828
17778TIP3    H274826   2.340   1.069  17.118  0.2150  2.7237  0.5126
17779TIP3   OH274827   1.847   3.390   4.380  0.1676 -0.0283 -0.5443
17779TIP3    H174828   1.894   3.320   4.336  0.8877 -0.6221  1.1038
17779TIP3    H274829   1.915   3.446   4.417 -0.4048  1.5426 -1.8362
17780TIP3   OH274830   0.831   1.633  16.125 -0.2646  0.0682 -0.3475
17780TIP3    H174831   0.765   1.702  16.114 -0.2718  0.1628  0.3078
17780TIP3    H274832   0.834   1.590  16.039 -0.4548  0.7074 -0.6799
17781TIP3   OH274833   1.097   5.140  13.416 -0.5648 -0.1169 -0.1109
17781TIP3    H174834   1.162   5.154  13.347 -0.9446 -0.5975 -0.5687
17781TIP3    H274835   1.112   5.211  13.478  0.8939 -0.6526  0.1591
17782TIP3   OH274836   4.290   1.689   5.246 -0.4084  0.0101  0.3575
17782TIP3    H174837   4.288   1.687   5.150  0.6247 -1.7780  0.3523
17782TIP3    H274838   4.383   1.679   5.268 -0.6468  0.3594  1.5448
17783TIP3   OH274839   0.278   4.219   1.143  0.3915  0.3023 -0.4141
17783TIP3    H174840   0.234   4.156   1.200  2.7686  0.4664  1.6657
17783TIP3    H274841   0.237   4.303   1.164 -1.2052 -0.1558 -1.5665
17784TIP3   OH274842   5.200   6.590   6.066 -0.3653 -0.2994 -0.3616
17784TIP3    H174843   5.284   6.636   6.061  0.3777 -1.2392  2.6075
17784TIP3    H274844   5.142   6.650   6.112 -1.1440  0.0522 -1.7710
17785TIP3   OH274845   5.913   2.302   6.216  0.1367  0.0200 -0.0428
17785TIP3    H174846   5.984   2.345   6.263  0.2289 -0.8969  0.6839
17785TIP3    H274847   5.907   2.215   6.257 -0.8819 -0.1873 -0.6194
17786TIP3   OH274848   4.200   6.154  16.552  0.0191 -0.0355  0.4258
17786TIP3    H174849   4.172   6.063  16.538  0.5440 -0.0850 -0.3377
17786TIP3    H274850   4.269   6.147  16.617  0.1301 -0.1997  0.2944
17787TIP3   OH274851   0.549   4.823   4.008 -0.2525 -0.1858 -0.3028
17787TIP3    H174852   0.475   4.844   4.065  0.0236  0.9630 -0.3484
17787TIP3    H274853   0.621   4.875   4.044 -0.5532  2.0502 -2.8383
17788TIP3   OH274854   4.241   1.484  14.577  0.0845 -0.1540  0.0482
17788TIP3    H174855   4.288   1.526  14.505  0.1781 -0.4953 -0.0904
17788TIP3    H274856   4.303   1.419  14.611  0.3229  0.5133  0.9155
17789TIP3   OH274857   5.084   2.705  11.990  0.7008  0.3377  0.0412
17789TIP3    H174858   5.009   2.755  11.957 -0.5551 -0.7558  1.2060
17789TIP3    H274859   5.077   2.620  11.947  3.0895  1.2360 -2.2839
17790TIP3   OH274860   4.726   6.146   2.288  0.3169  0.0031 -0.3710
17790TIP3    H174861   4.718   6.110   2.199 -0.5883 -2.0783  0.5321
17790TIP3    H274862   4.636   6.166   2.314  0.4164 -0.9122  0.6927
17791TIP3   OH274863   5.156   3.622   6.436  0.0607  0.2545  0.1114
17791TIP3    H174864   5.223   3.636   6.502  1.4775 -1.3025 -0.9643
17791TIP3    H274865   5.158   3.701   6.382  0.1985  0.7089  0.7743
17792TIP3   OH274866   3.764   1.338   0.744 -0.0782  0.3128  0.2971
17792TIP3    H174867   3.738   1.345   0.836 -0.9785 -0.5264  0.1144
17792TIP3    H274868   3.857   1.358   0.744  0.4391 -1.8505  1.7139
17793TIP3   OH274869   0.333   0.322  11.847 -0.3153 -0.3307  0.6698
17793TIP3    H174870   0.260   0.378  11.819  0.3577  0.1194 -0.2125
17793TIP3    H274871   0.299   0.274  11.922 -1.7115 -0.5480 -0.0866
17794TIP3   OH274872   5.247   6.038  13.971  0.4874  0.3255 -0.5866
17794TIP3    H174873   5.244   6.134  13.975  0.5296  0.2638  1.4284
17794TIP3    H274874   5.325   6.015  14.022  1.0879 -0.7468 -1.9674
17795TIP3   OH274875   1.202   4.893  12.876  0.0215 -0.0024 -0.5732
17795TIP3    H174876   1.243   4.825  12.930  0.0474  0.5409  0.0978
17795TIP3    H274877   1.185   4.850  12.793 -1.6734 -1.3851  0.4412
17796TIP3   OH274878   5.112   0.179  14.689 -0.1090 -0.3368 -0.0780
17796TIP3    H174879   5.162   0.164  14.609  1.6938  1.0552  0.7390
17796TIP3    H274880   5.022   0.155  14.666  0.8375 -2.5145 -1.7044
17797TIP3   OH274881   3.664   4.354  14.662  0.5276  0.5905  0.1115
17797TIP3    H174882   3.728   4.284  14.652 -0.5615 -0.5916  1.1842
17797TIP3    H274883   3.709   4.433  14.634  1.9906 -0.4489 -0.4777
17798TIP3   OH274884   5.495   1.822   1.112  0.2922  0.0842  0.9436
17798TIP3    H174885   5.550   1.744   1.106 -2.6596 -2.0700  0.6498
17798TIP3    H274886   5.526   1.879   1.042  1.4818 -1.5134  0.1392
17799TIP3   OH274887   2.284   5.237   2.479  0.3127 -0.6632 -0.1662
17799TIP3    H174888   2.280   5.333   2.480 -0.7294 -0.7043 -0.2733
17799TIP3    H274889   2.320   5.215   2.393 -0.6254 -0.4092 -0.6273
17800TIP3   OH274890   1.173   3.962  15.414  0.3030  0.4308 -0.6186
17800TIP3    H174891   1.089   3.985  15.452 -0.9489 -1.0227 -2.4139
17800TIP3    H274892   1.209   3.895  15.472 -0.9746 -0.7899 -1.2015
17801TIP3   OH274893   5.607   4.394  12.401  0.3209  0.1243  0.0544
17801TIP3    H174894   5.511   4.391  12.406  0.3468  0.4818  0.6610
17801TIP3    H274895   5.629   4.321  12.343 -0.4791  1.6652 -2.2691
17802TIP3   OH274896   3.973   3.598   1.346 -0.2642 -0.0977 -0.1811
17802TIP3    H174897   4.031   3.525   1.366  1.0961  1.1821  0.6636
17802TIP3    H274898   3.991   3.620   1.255  2.2157  1.6758  0.6756
17803TIP3   OH274899   0.007   1.383   3.375 -0.1797  0.0248  0.4611
17803TIP3    H174900   0.038   1.318   3.312  0.3008 -0.0721  0.8024
17803TIP3    H274901   0.086   1.415   3.418 -0.4111  0.8541  0.2777
17804TIP3   OH274902   2.011   1.448   3.405 -0.1628  0.7547  0.1126
17804TIP3    H174903   1.919   1.474   3.407 -0.6729 -1.0045  0.2937
17804TIP3    H274904   2.031   1.439   3.312 -0.7283 -0.7291  0.1255
17805TIP3   OH274905   1.574   3.781  15.683 -0.1577 -0.3420  0.6511
17805TIP3    H174906   1.665   3.767  15.708  0.4893 -0.6771 -1.7829
17805TIP3    H274907   1.567   3.875  15.667  0.8149 -0.7912 -2.8910
17806TIP3   OH274908   4.982   2.961  17.004  0.4029  0.6083  0.1504
17806TIP3    H174909   5.050   2.984  17.068  0.1543  1.0072  0.2704
17806TIP3    H274910   4.971   2.867  17.015  1.2665  0.4640 -0.1923
17807TIP3   OH274911   0.219   6.638   5.479 -0.1814  0.2613 -0.0283
17807TIP3    H174912   0.166   6.610   5.554 -0.6277 -0.6986 -0.6887
17807TIP3    H274913   0.271   6.711   5.512 -1.8406  1.1505  0.6749
17808TIP3   OH274914   6.263   6.618   0.432 -0.4854 -0.0999 -0.1863
17808TIP3    H174915   6.239   6.708   0.409  1.3894  0.2552 -0.8668
17808TIP3    H274916   6.359   6.616   0.423 -0.3211 -1.6562  1.6361
17809TIP3   OH274917   2.732   4.523  12.475  0.1127 -0.0227 -0.0695
17809TIP3    H174918   2.746   4.528  12.569  1.7360 -0.1008 -0.3000
17809TIP3    H274919   2.820   4.527  12.437 -0.3722 -1.9710 -1.4936
17810TIP3   OH274920   0.001   1.327  15.492 -0.1777  0.4828 -0.2881
17810TIP3    H174921   0.004   1.233  15.508 -0.1395  0.8674  2.1469
17810TIP3    H274922  -0.039   1.364  15.571  0.0758  2.5373 -1.0861
17811TIP3   OH274923   1.278   6.611  12.740  0.8423  0.2459 -0.3525
17811TIP3    H174924   1.301   6.679  12.676  0.0263  0.6065 -0.2695
17811TIP3    H274925   1.188   6.586  12.716  0.6433  0.1806  0.4722
17812TIP3   OH274926   3.013   1.895   3.325  0.2950 -0.3356 -0.3331
17812TIP3    H174927   3.052   1.959   3.266  0.8143  0.1781  0.5419
17812TIP3    H274928   3.081   1.829   3.338  1.8567  1.7810  3.0678
17813TIP3   OH274929   5.785   5.905  16.737  0.0091  0.1850 -0.6669
17813TIP3    H174930   5.867   5.937  16.700  0.9706 -0.3048  0.9779
17813TIP3    H274931   5.747   5.981  16.781  0.8194 -0.1612  0.6755
17814TIP3   OH274932   1.958   5.755  16.616  0.2867 -0.2429  0.1534
17814TIP3    H174933   1.862   5.752  16.611  0.2777 -0.7959  0.6717
17814TIP3    H274934   1.979   5.711  16.699  0.9750  0.0773  0.1510
17815TIP3   OH274935   2.611   4.871  11.241  0.5523  0.2639 -0.0820
17815TIP3    H174936   2.533   4.867  11.187  0.4073  2.6308 -0.1122
17815TIP3    H274937   2.579   4.863  11.331  0.0432  2.8036  0.0111
17816TIP3   OH274938   2.702   5.406   1.566 -0.4631 -0.1722 -0.1411
17816TIP3    H174939   2.775   5.352   1.598 -1.2798 -0.9330  0.4880
17816TIP3    H274940   2.734   5.496   1.573  0.3821 -0.4879  0.2074
17817TIP3   OH274941   2.845   3.424  14.194 -0.0135 -0.6247 -0.0365
17817TIP3    H174942   2.932   3.445  14.227 -0.0752 -1.6407  0.7949
17817TIP3    H274943   2.843   3.463  14.106  1.1749 -0.3525  0.0465
17818TIP3   OH274944   4.917   4.923  10.921  0.2418  0.1289 -0.2693
17818TIP3    H174945   4.987   4.985  10.904 -0.6248  2.0106  2.5992
17818TIP3    H274946   4.844   4.977  10.952 -0.8689 -2.2043  1.3987
17819TIP3   OH274947   6.378   2.448  12.735 -0.0489 -0.1906  0.1501
17819TIP3    H174948   6.330   2.375  12.775  1.2867 -1.2268 -0.0794
17819TIP3    H274949   6.469   2.431  12.758  0.1080  2.3664  1.5568
17820TIP3   OH274950   5.646   5.558  16.948 -0.1876 -0.6084 -0.0813
17820TIP3    H174951   5.633   5.464  16.936  0.5206 -0.9205  1.4454
17820TIP3    H274952   5.650   5.569  17.043 -1.7927  1.1796 -0.1957
17821TIP3   OH274953   4.262   2.137   6.369 -0.4750  0.4732  0.6819
17821TIP3    H174954   4.200   2.068   6.345 -0.4191  0.5838  0.2103
17821TIP3    H274955   4.348   2.098   6.356 -0.4437  0.3728  1.1846
17822TIP3   OH274956   3.085   1.913   1.387 -0.2885 -0.0272 -0.2031
17822TIP3    H174957   3.170   1.906   1.432  0.3988 -1.2110 -1.6745
17822TIP3    H274958   3.044   1.828   1.400 -2.2099  1.2059  2.3153
17823TIP3   OH274959   3.676   0.447   0.666  0.4677  0.0087 -0.2927
17823TIP3    H174960   3.694   0.443   0.760  0.4108 -3.7367 -0.3606
17823TIP3    H274961   3.718   0.369   0.630 -1.0241  0.4323 -3.1208
17824TIP3   OH274962   3.195   2.145   0.504  0.1570  0.2614  0.1458
17824TIP3    H174963   3.284   2.154   0.538  0.2134  0.8963 -0.1689
17824TIP3    H274964   3.204   2.155   0.409 -0.4182  1.7480  0.2245
17825TIP3   OH274965   3.633   2.787  13.938 -0.0049 -0.2708 -0.3322
17825TIP3    H174966   3.561   2.850  13.934 -0.9325 -1.1622  1.4916
17825TIP3    H274967   3.604   2.714  13.884 -0.7590 -0.8862  0.8804
17826TIP3   OH274968   6.257   0.298   2.810 -0.0242 -0.2784  0.4331
17826TIP3    H174969   6.207   0.334   2.736  0.8359 -0.5235 -0.2623
17826TIP3    H274970   6.248   0.203   2.801 -1.0056 -0.2822  1.3918
17827TIP3   OH274971   3.750   0.277   4.344  0.5028 -0.5718  0.3859
17827TIP3    H174972   3.787   0.281   4.255 -2.2208  2.0960 -0.7175
17827TIP3    H274973   3.708   0.191   4.348  0.8961 -0.8411 -0.7958
17828TIP3   OH274974   5.151   0.697   6.482 -0.0043  0.2376  0.1476
17828TIP3    H174975   5.105   0.615   6.466  0.1256  0.1445  0.2491
17828TIP3    H274976   5.242   0.671   6.497 -0.1623  0.3058  1.2493
17829TIP3   OH274977   3.294   1.841  14.460  0.1928 -0.1590  0.1739
17829TIP3    H174978   3.289   1.861  14.366  1.8136 -0.8593 -0.0814
17829TIP3    H274979   3.386   1.820  14.475 -0.0365  0.0187  1.9484
17830TIP3   OH274980   3.238   5.096   5.569 -0.3310 -0.0480 -0.5600
17830TIP3    H174981   3.274   5.168   5.517  0.3789  0.2286  0.3133
17830TIP3    H274982   3.228   5.132   5.657  0.5861 -1.1875  0.0264
17831TIP3   OH274983   1.644   1.422  11.699 -0.3192  0.0896  0.3294
17831TIP3    H174984   1.706   1.352  11.717 -0.6434 -0.1145  0.6482
17831TIP3    H274985   1.657   1.442  11.606  1.0557  0.8585  0.6704
17832TIP3   OH274986   5.304   4.909   1.881  0.1435 -0.1992 -0.0332
17832TIP3    H174987   5.288   4.817   1.902  0.4406 -0.0896  0.6975
17832TIP3    H274988   5.232   4.956   1.923 -0.5071 -0.1750 -1.1671
17833TIP3   OH274989   1.512   3.461  12.603 -0.5498  0.0840 -0.1099
17833TIP3    H174990   1.438   3.435  12.549  0.7484  0.6027 -2.2324
17833TIP3    H274991   1.566   3.382  12.609 -1.3167 -0.3319  1.5427
17834TIP3   OH274992   3.821   4.229  11.721  0.1441  0.3162 -0.7585
17834TIP3    H174993   3.911   4.214  11.748  0.1042 -0.3840 -1.0103
17834TIP3    H274994   3.771   4.228  11.802  0.2951  0.2232 -0.6673
17835TIP3   OH274995   1.098   5.546   0.782 -0.0276 -0.8856 -0.3999
17835TIP3    H174996   1.028   5.488   0.753 -1.5108 -0.6744  2.5423
17835TIP3    H274997   1.131   5.506   0.863  1.0821  0.6928 -0.0459
17836TIP3   OH274998   2.213   0.727  15.344  0.1531 -0.6172 -0.1016
17836TIP3    H174999   2.167   0.787  15.402 -0.1025 -0.4116 -0.5207
17836TIP3    H275000   2.290   0.700  15.394  0.0265 -0.3011  0.2626
17837TIP3   OH275001   0.078   4.652   3.868  0.1956 -0.3307 -0.0540
17837TIP3    H175002   0.030   4.578   3.829  1.0114 -0.5058 -0.7540
17837TIP3    H275003   0.092   4.712   3.795  0.4718  0.0162  0.2856
17838TIP3   OH275004   2.483   6.370   4.611 -0.6122 -0.0417 -0.2315
17838TIP3    H175005   2.448   6.422   4.538 -1.4117  1.0682  0.9189
17838TIP3    H275006   2.576   6.392   4.613 -0.5717 -0.1223 -0.9475
17839TIP3   OH275007   1.266   5.283  15.156 -0.1895 -0.6339  0.9911
17839TIP3    H175008   1.226   5.367  15.132 -0.1893  0.1184  3.5257
17839TIP3    H275009   1.354   5.287  15.117 -0.5472  0.1110  0.2299
17840TIP3   OH275010   1.452   1.156   6.094 -0.5067 -0.3452 -0.1080
17840TIP3    H175011   1.487   1.096   6.159 -1.4595 -0.6719  0.1026
17840TIP3    H275012   1.367   1.120   6.071 -0.1242 -0.3032 -1.6296
17841TIP3   OH275013   1.899   5.649   0.956 -0.2990 -0.1875  0.1000
17841TIP3    H175014   1.965   5.653   0.887  1.0854  1.1920  1.4885
17841TIP3    H275015   1.859   5.736   0.957 -2.0712 -0.9711 -0.6453
17842TIP3   OH275016   5.660   6.041  14.274  0.0914  0.3140  0.6608
17842TIP3    H175017   5.730   6.065  14.334  1.3160 -2.6609  0.5268
17842TIP3    H275018   5.659   5.945  14.276 -1.0195  0.1830 -2.7281
17843TIP3   OH275019   2.701   1.175  14.804  0.1802 -0.2812 -0.5195
17843TIP3    H175020   2.735   1.253  14.848  1.4615 -0.0095 -1.9055
17843TIP3    H275021   2.675   1.207  14.717 -3.3900 -0.5565  0.3591
17844TIP3   OH275022   6.138   6.042  16.384 -0.5309  0.9553  0.2921
17844TIP3    H175023   6.131   5.949  16.406 -0.0955  0.5508 -1.2356
17844TIP3    H275024   6.219   6.048  16.333 -1.4071  1.8883 -1.0084
17845TIP3   OH275025   2.995   0.435  15.019  0.1319  0.1502 -0.3230
17845TIP3    H175026   3.010   0.340  15.016  1.4502  0.3011  1.0849
17845TIP3    H275027   2.899   0.443  15.020 -0.0050 -1.1274 -1.3258
17846TIP3   OH275028   3.936   6.224  15.205 -0.0388 -0.2215  0.3234
17846TIP3    H175029   3.941   6.242  15.299 -0.4801  0.2158  0.2650
17846TIP3    H275030   3.856   6.268  15.177 -0.9419 -1.9622  0.1133
17847TIP3   OH275031   4.166   5.915  14.202 -0.6806 -0.2044  0.3022
17847TIP3    H175032   4.135   5.902  14.292  2.5388 -0.3361  1.4796
17847TIP3    H275033   4.253   5.953  14.212  0.0439 -0.8836 -2.7682
17848TIP3   OH275034   4.698   5.960   0.423 -0.0306  0.2156 -0.0554
17848TIP3    H175035   4.683   5.913   0.505  1.1076 -2.4320 -1.3084
17848TIP3    H275036   4.644   5.915   0.358 -0.2799  1.7541 -0.9639
17849TIP3   OH275037   3.242   4.027   4.696 -0.1331 -0.3018 -0.4667
17849TIP3    H175038   3.284   4.101   4.653  1.3308  0.6928  2.4954
17849TIP3    H275039   3.171   4.066   4.747  0.8384 -0.8778  1.3511
17850TIP3   OH275040   4.033   6.797  15.889  0.3614  0.2220  0.9302
17850TIP3    H175041   4.063   6.778  15.978  3.5782 -0.8307 -0.3181
17850TIP3    H275042   4.101   6.761  15.832 -0.8642  2.2403 -1.9386
17851TIP3   OH275043   4.303   6.374   0.459 -0.0325  0.3151  0.1306
17851TIP3    H175044   4.252   6.301   0.494 -0.4463 -0.6860 -2.5154
17851TIP3    H275045   4.391   6.338   0.447  0.2393  0.8102  0.6146
17852TIP3   OH275046   2.886   3.286  17.137  0.5604  0.2590  0.6085
17852TIP3    H175047   2.858   3.195  17.144  1.8718 -0.2230 -0.1770
17852TIP3    H275048   2.878   3.321  17.226 -2.3622  0.1170  0.4332
17853TIP3   OH275049   2.996   0.306   2.141 -0.1321 -0.2882  0.1525
17853TIP3    H175050   3.060   0.281   2.075 -1.5678 -1.0126 -0.9857
17853TIP3    H275051   3.026   0.265   2.221  0.4001 -1.2691 -0.5477
17854TIP3   OH275052   3.630   0.057  14.434 -0.2304 -0.1966 -0.8038
17854TIP3    H175053   3.562   0.065  14.501  1.1737  0.2851  0.6140
17854TIP3    H275054   3.658  -0.034  14.439  0.7773  0.1545  0.2018
17855TIP3   OH275055   4.749   2.270   4.745 -0.1010 -0.2182  0.3160
17855TIP3    H175056   4.732   2.178   4.728 -0.3269 -0.3364  1.1943
17855TIP3    H275057   4.822   2.271   4.806  0.8761  0.2187 -0.8467
17856TIP3   OH275058   6.440   5.808   6.512 -0.1821  0.2604  0.0686
17856TIP3    H175059   6.444   5.719   6.548 -2.2457  0.0363 -0.1903
17856TIP3    H275060   6.531   5.831   6.495  0.4899 -1.2456  1.4921
17857TIP3   OH275061   6.345   2.757  15.902  0.1186 -0.1500  0.6362
17857TIP3    H175062   6.357   2.732  15.993  0.3035  0.8059  0.8832
17857TIP3    H275063   6.341   2.674  15.854 -0.6320 -0.6621  1.5836
17858TIP3   OH275064   1.441   1.516   2.460 -0.1103 -0.1188  0.3999
17858TIP3    H175065   1.363   1.462   2.455 -0.9977  1.1063  0.6627
17858TIP3    H275066   1.488   1.485   2.538  0.5142 -1.9443 -0.6819
17859TIP3   OH275067   2.321   0.870   1.611 -0.4237  0.1100 -0.1859
17859TIP3    H175068   2.347   0.813   1.539 -0.9962 -1.1005  0.5301
17859TIP3    H275069   2.334   0.959   1.579 -0.6583 -0.4201 -1.7612
17860TIP3   OH275070   3.373   0.325  16.363 -0.9942  0.2141  0.2257
17860TIP3    H175071   3.451   0.323  16.419 -0.0888  0.5899 -1.0008
17860TIP3    H275072   3.308   0.273  16.411 -0.3177  0.7066  1.7294
17861TIP3   OH275073   4.685   2.586   1.962 -0.0762  0.4877 -0.1992
17861TIP3    H175074   4.667   2.623   2.048 -3.2061 -1.1544 -0.0844
17861TIP3    H275075   4.687   2.662   1.904  0.8847  1.4949  1.1185
17862TIP3   OH275076   5.338   5.527   2.964 -0.3612  0.0841 -0.3668
17862TIP3    H175077   5.288   5.600   2.929 -0.5170 -0.2266 -0.7937
17862TIP3    H275078   5.428   5.559   2.969 -0.6368  0.7382  0.6617
17863TIP3   OH275079   6.562   0.683   5.896 -0.3607 -0.1983  0.8562
17863TIP3    H175080   6.477   0.699   5.936 -0.5523  1.1344 -0.0461
17863TIP3    H275081   6.619   0.750   5.934 -0.1974  0.1470  0.0285
17864TIP3   OH275082   1.446   6.339  16.119 -0.3457  0.1168 -0.1745
17864TIP3    H175083   1.403   6.333  16.034  1.0165 -0.4080 -0.8421
17864TIP3    H275084   1.462   6.433  16.131 -1.4591  0.2949 -0.0168
17865TIP3   OH275085   6.082   0.147  10.998 -0.2827 -0.9536 -0.3224
17865TIP3    H175086   6.132   0.193  10.930 -1.0214  0.7681  0.2797
17865TIP3    H275087   6.145   0.135  11.069 -0.2359 -0.3322 -0.2512
17866TIP3   OH275088   3.675   1.401   2.701 -0.5142 -0.5804  0.8362
17866TIP3    H175089   3.747   1.464   2.704  0.0805 -1.2523  0.6758
17866TIP3    H275090   3.660   1.377   2.792 -0.7374 -0.2128  0.8971
17867TIP3   OH275091   0.727   2.146  13.249 -0.3366  0.6489  0.5717
17867TIP3    H175092   0.736   2.073  13.187  0.5125  0.5093  0.8548
17867TIP3    H275093   0.683   2.214  13.198  0.7576  0.6926 -0.3248
17868TIP3   OH275094   0.897   2.108  12.045  0.1182  0.0178  0.1775
17868TIP3    H175095   0.965   2.040  12.038 -0.6379 -0.6574 -0.7218
17868TIP3    H275096   0.934   2.183  11.997  0.1578 -0.4120 -0.4719
17869TIP3   OH275097   2.619   2.408   0.135  0.2023 -0.0859  0.8040
17869TIP3    H175098   2.643   2.334   0.079  0.0548  1.2649 -1.0734
17869TIP3    H275099   2.685   2.475   0.117 -0.6141  0.8533  1.2519
17870TIP3   OH275100   2.273   1.990   1.783 -0.1536 -0.3050  0.0189
17870TIP3    H175101   2.352   1.950   1.818 -0.1094 -0.2875 -0.0595
17870TIP3    H275102   2.205   1.924   1.793 -0.1294 -0.3180  0.0915
17871TIP3   OH275103   6.045   2.145   1.435 -0.5947 -0.4526 -0.5477
17871TIP3    H175104   5.990   2.069   1.418 -0.9421 -0.3623  0.1370
17871TIP3    H275105   6.020   2.173   1.524 -1.1422  1.0109 -1.1427
17872TIP3   OH275106   4.135   0.660   2.032 -0.7436 -0.2921  0.2685
17872TIP3    H175107   4.209   0.666   1.971 -2.4138 -0.1652 -1.8264
17872TIP3    H275108   4.082   0.737   2.012 -1.5009 -0.4419  1.6662
17873TIP3   OH275109   0.712   0.485  15.223  0.4720 -0.3173  0.3887
17873TIP3    H175110   0.746   0.441  15.302 -1.4273 -0.4286  1.1653
17873TIP3    H275111   0.621   0.457  15.218  0.6492 -0.5407 -2.0427
17874TIP3   OH275112   2.010   0.473  14.570  0.2748 -0.3105 -0.5250
17874TIP3    H175113   1.941   0.417  14.534  2.9008 -3.2696 -1.1616
17874TIP3    H275114   2.053   0.510  14.493  1.3483 -0.9202 -0.2195
17875TIP3   OH275115   3.051   5.146   2.622  0.6495  0.2106 -0.5948
17875TIP3    H175116   2.964   5.122   2.591  1.0362  0.1075 -1.6219
17875TIP3    H275117   3.111   5.097   2.566  1.3991  1.5927 -1.0422
17876TIP3   OH275118   6.550   5.775   2.289  0.0087 -0.5393 -0.3040
17876TIP3    H175119   6.523   5.854   2.335  1.8683  0.1495 -0.3795
17876TIP3    H275120   6.535   5.794   2.196 -1.6472 -1.1258 -0.1916
17877TIP3   OH275121   5.526   6.098   0.199  0.0242  0.2383  0.3822
17877TIP3    H175122   5.580   6.169   0.233  0.8824 -0.1210 -0.2368
17877TIP3    H275123   5.473   6.139   0.131  1.3110  0.0624 -0.7439
17878TIP3   OH275124   5.274   4.688  10.815  0.4326  0.4706  0.2580
17878TIP3    H175125   5.301   4.726  10.899 -0.2324  3.1758 -0.7006
17878TIP3    H275126   5.257   4.596  10.834  3.9663  0.1534  2.2805
17879TIP3   OH275127   1.730   4.134  13.922 -0.2885  0.3578  0.1828
17879TIP3    H175128   1.739   4.175  14.007 -0.3800  1.6651 -0.4286
17879TIP3    H275129   1.684   4.199  13.868 -0.9393 -0.7596 -0.6320
17880TIP3   OH275130   1.611   5.837   5.698 -0.2185 -0.0540  0.4832
17880TIP3    H175131   1.639   5.849   5.607  2.0743  1.8223  1.3855
17880TIP3    H275132   1.655   5.757   5.726 -2.3323 -1.6262 -0.5455
17881TIP3   OH275133   2.308   0.010   5.098 -0.0343  0.2078 -0.3322
17881TIP3    H175134   2.291   0.006   5.004  1.3341  0.8321 -0.6182
17881TIP3    H275135   2.381   0.071   5.107 -1.9971  2.3557  1.4074
17882TIP3   OH275136   5.526   3.858   4.121 -0.5898  0.2154 -0.0336
17882TIP3    H175137   5.564   3.901   4.044  0.5071 -0.7184 -0.0289
17882TIP3    H275138   5.521   3.765   4.096 -2.3590  0.2337  0.1809
17883TIP3   OH275139   5.096   3.024  16.741  0.1969  0.2988  0.1243
17883TIP3    H175140   5.079   3.118  16.748 -0.5173  0.0457  2.3054
17883TIP3    H275141   5.044   2.985  16.812  1.0154 -1.6777 -0.3202
17884TIP3   OH275142   0.638   6.417   2.908 -0.0867 -0.0764  0.1103
17884TIP3    H175143   0.574   6.486   2.929  1.3839  1.5634 -0.7428
17884TIP3    H275144   0.672   6.441   2.822 -0.8276 -2.8574 -1.0225
17885TIP3   OH275145   4.963   4.539   0.548  0.9299 -0.4522 -0.6525
17885TIP3    H175146   4.947   4.571   0.459  1.8578 -1.1320 -1.0682
17885TIP3    H275147   5.047   4.578   0.573  0.1222  0.6748  0.3764
17886TIP3   OH275148   5.221   2.386  12.139 -0.4765 -0.4986  0.3682
17886TIP3    H175149   5.136   2.386  12.184 -0.7921 -2.5285 -0.1516
17886TIP3    H275150   5.199   2.391  12.046 -0.1063 -2.0314  0.1778
17887TIP3   OH275151   6.378   1.028  16.837 -0.2914  0.2548  0.6163
17887TIP3    H175152   6.301   1.009  16.891  0.1145  1.1551  1.5215
17887TIP3    H275153   6.370   1.121  16.816 -1.0443 -0.3253 -1.8513
17888TIP3   OH275154   2.131   3.132   6.057  0.6651 -0.0624 -0.0766
17888TIP3    H175155   2.132   3.221   6.023  0.5183  0.1747  0.5435
17888TIP3    H275156   2.179   3.081   5.991  2.5313  0.8407  0.5637
17889TIP3   OH275157   4.484   5.528   4.156 -0.4063  0.0279 -0.2956
17889TIP3    H175158   4.459   5.586   4.228  3.1695  1.7713 -0.3427
17889TIP3    H275159   4.456   5.575   4.077 -0.9165 -0.0848 -0.1795
17890TIP3   OH275160   2.544   5.630   3.252  0.1413 -0.7375  0.3648
17890TIP3    H175161   2.579   5.579   3.179 -0.2427 -1.0766  0.4160
17890TIP3    H275162   2.607   5.701   3.264  0.4692 -0.9698  0.0311
17891TIP3   OH275163   5.449   3.740  11.573  0.6263 -0.1947  0.0236
17891TIP3    H175164   5.515   3.673  11.590  0.9668  0.0638 -0.2614
17891TIP3    H275165   5.366   3.699  11.596  1.1591  0.5215  3.3633
17892TIP3   OH275166   5.364   5.541  12.265 -0.3436 -0.2047 -0.6211
17892TIP3    H175167   5.335   5.554  12.356 -0.4491 -0.7046 -0.5854
17892TIP3    H275168   5.369   5.630  12.230 -2.0286 -0.1062 -0.6557
17893TIP3   OH275169   5.708   0.566   5.328 -1.3382  0.0445 -0.3195
17893TIP3    H175170   5.630   0.527   5.289  0.1257 -0.7488 -2.5750
17893TIP3    H275171   5.741   0.626   5.261 -0.5550  1.1017  0.9932
17894TIP3   OH275172   6.184   2.648   3.540  0.0664  0.5092 -0.3616
17894TIP3    H175173   6.211   2.557   3.528 -1.1703  0.3088 -1.8184
17894TIP3    H275174   6.089   2.643   3.555  0.2865  1.4238  1.4146
17895TIP3   OH275175   6.817   6.438  16.206  0.2525  0.3104  0.4539
17895TIP3    H175176   6.910   6.432  16.227 -0.2585  0.6014  2.9589
17895TIP3    H275177   6.780   6.356  16.239 -0.6642  1.0062  1.1708
17896TIP3   OH275178   4.370   2.187  15.556 -0.1366  0.0572 -0.7044
17896TIP3    H175179   4.285   2.195  15.598  0.2255 -1.9732  0.5100
17896TIP3    H275180   4.424   2.140  15.620  1.7733  0.9305 -1.6206
17897TIP3   OH275181   1.517   2.508   0.856 -0.0493 -0.0430 -0.2003
17897TIP3    H175182   1.542   2.420   0.830  1.0508  0.3735 -0.5552
17897TIP3    H275183   1.599   2.554   0.871 -0.6140 -0.2916  4.1776
17898TIP3   OH275184   0.433   5.338   4.470  0.3682 -0.1963  0.2717
17898TIP3    H175185   0.492   5.319   4.544  0.7374 -1.0114 -0.2289
17898TIP3    H275186   0.448   5.431   4.453  2.8204 -0.7641 -0.9511
17899TIP3   OH275187   3.518   5.360  15.073  0.3488 -0.5208  0.0721
17899TIP3    H175188   3.568   5.404  15.142 -0.0777  0.3040 -0.1295
17899TIP3    H275189   3.507   5.271  15.104  1.4086 -0.5484  0.4092
17900TIP3   OH275190   5.844   0.233   3.498  0.4768  0.0156  0.1914
17900TIP3    H175191   5.935   0.239   3.528  0.5524  0.6310 -0.1470
17900TIP3    H275192   5.829   0.315   3.451 -0.4737  0.2143  0.8444
17901TIP3   OH275193   3.604   0.935   4.880 -0.2422  0.4823 -0.0967
17901TIP3    H175194   3.651   0.936   4.963  0.5045  0.4344 -0.5128
17901TIP3    H275195   3.673   0.938   4.813 -0.7636 -0.8968 -0.7250
17902TIP3   OH275196   5.265   1.345  15.769  0.4479 -0.4171  0.3641
17902TIP3    H175197   5.260   1.298  15.686  0.3427 -1.7230  1.0995
17902TIP3    H275198   5.357   1.372  15.775  0.4706 -0.3786 -0.1468
17903TIP3   OH275199   5.240   4.148   0.011 -0.0885  0.3637 -0.4138
17903TIP3    H175200   5.330   4.156  -0.019 -0.1851  0.5793 -0.6417
17903TIP3    H275201   5.239   4.191   0.096 -0.2992  1.6017 -1.0373
17904TIP3   OH275202   4.483   3.966   6.429 -0.0860 -0.0670  0.0314
17904TIP3    H175203   4.571   4.003   6.429  0.6064 -1.5935 -2.4538
17904TIP3    H275204   4.493   3.879   6.467 -0.4732 -0.3241 -0.4409
17905TIP3   OH275205   0.156   1.687   2.389 -0.5950  0.1436 -0.3770
17905TIP3    H175206   0.104   1.729   2.321 -1.1144  0.3155  0.1259
17905TIP3    H275207   0.100   1.688   2.467 -0.3152 -0.7758 -0.1573
17906TIP3   OH275208   1.217   1.957  14.939 -0.0618  0.1125  0.8691
17906TIP3    H175209   1.247   1.956  15.030  1.5639 -1.6282  0.3498
17906TIP3    H275210   1.207   2.049  14.918  1.7692  0.6343  2.1198
17907TIP3   OH275211   6.515   6.462   4.328 -0.4117  0.0824  0.4977
17907TIP3    H175212   6.547   6.396   4.267 -2.1910  0.0166 -0.3759
17907TIP3    H275213   6.466   6.413   4.394  0.8032  0.2375  1.5308
17908TIP3   OH275214   4.834   4.162   4.058  0.1224 -0.4160  0.3022
17908TIP3    H175215   4.862   4.165   3.966 -1.2250 -2.1033 -0.2039
17908TIP3    H275216   4.772   4.089   4.061  0.4480 -0.6306  2.6537
17909TIP3   OH275217   4.170   0.099  12.086  0.3320  0.1746 -0.5172
17909TIP3    H175218   4.163   0.116  11.993  1.0968 -0.7801 -0.7571
17909TIP3    H275219   4.187   0.185  12.125 -2.7926  1.0396 -0.9205
17910TIP3   OH275220   5.124   0.988   6.366  0.1784  0.6749  0.3210
17910TIP3    H175221   5.035   1.024   6.367 -0.3396 -0.4387 -2.0165
17910TIP3    H275222   5.112   0.896   6.392  0.6421  0.5349  0.0423
17911TIP3   OH275223   5.053   4.575   5.474 -0.0618 -0.1281  0.5095
17911TIP3    H175224   4.961   4.560   5.493  0.0221 -1.1059  0.1558
17911TIP3    H275225   5.088   4.489   5.452  1.4930 -0.2007  2.9927
17912TIP3   OH275226   3.881   2.302  15.143  0.1413 -0.6068 -0.5687
17912TIP3    H175227   3.879   2.207  15.135  0.1008 -0.7106  0.6309
17912TIP3    H275228   3.897   2.319  15.235  0.9319  0.5579 -0.9061
17913TIP3   OH275229   5.425   3.047  10.999  0.6074 -0.3594  0.0652
17913TIP3    H175230   5.394   2.981  10.937  0.5267 -0.1589 -0.1054
17913TIP3    H275231   5.497   3.090  10.955 -0.6965  1.1080 -0.6760
17914TIP3   OH275232   5.363   2.207  15.916  0.0823  0.3953  0.1309
17914TIP3    H175233   5.424   2.158  15.861  0.5464  0.8581  0.2311
17914TIP3    H275234   5.407   2.212  16.001 -1.1904 -1.4510  0.9455
17915TIP3   OH275235   4.348   1.535  13.872 -0.0134 -0.5002  0.3193
17915TIP3    H175236   4.345   1.630  13.859  1.7887 -0.3886  0.5537
17915TIP3    H275237   4.388   1.525  13.959 -0.9243 -1.4605  0.6299
17916TIP3   OH275238   1.355   5.986  14.132  0.2650 -0.1270  0.0543
17916TIP3    H175239   1.277   6.017  14.085 -0.7248  2.2761  3.0850
17916TIP3    H275240   1.320   5.931  14.202  1.2433  1.1188  1.5501
17917TIP3   OH275241   1.316   2.916   3.156  0.4835 -0.5261  0.2933
17917TIP3    H175242   1.348   3.001   3.125 -0.2763 -0.8900 -1.5824
17917TIP3    H275243   1.394   2.860   3.159  0.9345  0.1348  1.2478
17918TIP3   OH275244   0.605   6.205  14.524 -0.0249 -0.0976  0.0647
17918TIP3    H175245   0.575   6.128  14.572  0.1026 -0.3261 -0.2218
17918TIP3    H275246   0.615   6.272  14.591 -0.3379 -0.2686  0.2864
17919TIP3   OH275247   3.051   1.309   2.684  0.3141  0.5428  0.2059
17919TIP3    H175248   3.118   1.248   2.715  0.8191  0.7422 -0.5028
17919TIP3    H275249   2.984   1.253   2.645  1.1244  0.4647 -1.1210
17920TIP3   OH275250   4.010   5.339  14.784 -0.0579  0.6050 -0.5920
17920TIP3    H175251   4.020   5.255  14.828 -0.9281 -0.4033 -2.2927
17920TIP3    H275252   4.034   5.404  14.851  2.5568 -1.0527  0.1579
17921TIP3   OH275253   5.291   5.398   3.470  0.3680  0.0671 -0.2295
17921TIP3    H175254   5.226   5.460   3.437  0.3497  1.1244  1.7329
17921TIP3    H275255   5.263   5.313   3.434 -1.1701  0.7660 -0.7362
17922TIP3   OH275256   4.471   4.693   1.596  0.5334  0.0088  0.0688
17922TIP3    H175257   4.545   4.750   1.619 -0.1278  0.6156  0.7214
17922TIP3    H275258   4.423   4.742   1.529 -0.6953  0.7614  1.4745
17923TIP3   OH275259   2.951   5.825   1.234 -0.4172  0.1282 -0.6097
17923TIP3    H175260   2.979   5.774   1.309 -0.1305  0.1027 -0.7332
17923TIP3    H275261   2.870   5.868   1.262  0.4659  1.2615  0.2070
17924TIP3   OH275262   3.046   0.001   4.608  0.0644 -0.8246 -0.4564
17924TIP3    H175263   2.965  -0.048   4.621 -0.0408 -0.4396  0.3841
17924TIP3    H275264   3.018   0.088   4.583  0.2074 -0.6541 -0.0419
17925TIP3   OH275265   3.441   0.692   5.147  0.0183  0.6741  0.2237
17925TIP3    H175266   3.436   0.596   5.148  0.0650  0.6822  2.3763
17925TIP3    H275267   3.502   0.712   5.076 -0.6458 -0.8471 -0.8091
17926TIP3   OH275268   1.501   0.314   4.094  0.1044  0.5488  0.0536
17926TIP3    H175269   1.542   0.346   4.174  1.2580  0.1167 -0.3469
17926TIP3    H275270   1.408   0.335   4.104  0.0528 -0.4325  1.9795
17927TIP3   OH275271   1.419   2.932  15.856 -0.6208 -0.1981 -0.2682
17927TIP3    H175272   1.499   2.984  15.853 -0.8309  0.4112  2.7881
17927TIP3    H275273   1.447   2.848  15.892 -1.2080 -0.2303  0.1288
17928TIP3   OH275274   6.016   6.555  13.458  0.1524  0.4303  0.2338
17928TIP3    H175275   6.050   6.486  13.515 -0.4658 -0.4349 -0.4318
17928TIP3    H275276   5.982   6.622  13.517 -0.0947 -0.2645  0.8730
17929TIP3   OH275277   2.479   0.070  13.152 -0.3609 -0.1098 -0.0906
17929TIP3    H175278   2.484   0.103  13.062  0.7790 -0.2455 -0.0836
17929TIP3    H275279   2.445   0.143  13.203 -1.4340 -0.1711 -0.6998
17930TIP3   OH275280   4.267   1.795  16.740 -0.7726 -0.0286  0.0337
17930TIP3    H175281   4.273   1.882  16.699  1.3280 -1.4547 -2.8592
17930TIP3    H275282   4.202   1.749  16.687  1.8567 -1.8566 -1.6744
17931TIP3   OH275283   4.946   2.140  13.395  0.4925  0.0234  0.0102
17931TIP3    H175284   4.979   2.221  13.432 -0.6025  0.1934  0.6495
17931TIP3    H275285   4.851   2.151  13.392  0.1786 -1.8493  1.6597
17932TIP3   OH275286   0.539   0.106   2.120  0.1291  0.4293  0.4394
17932TIP3    H175287   0.634   0.105   2.126  0.2638  2.3284 -0.8712
17932TIP3    H275288   0.519   0.184   2.068 -2.0846 -0.7016 -0.4693
17933TIP3   OH275289   2.329   3.134   3.486 -0.1656  0.7217  0.1599
17933TIP3    H175290   2.406   3.189   3.499 -0.0092  0.7366 -0.8240
17933TIP3    H275291   2.273   3.184   3.427  0.3193 -0.4932 -1.3572
17934TIP3   OH275292   3.815   2.943   5.498  0.5797  0.7326 -0.4365
17934TIP3    H175293   3.767   2.861   5.511 -0.1618  1.4210  1.1892
17934TIP3    H275294   3.773   2.984   5.422 -0.1171  0.3961 -0.2322
17935TIP3   OH275295   1.708   0.769   6.385 -0.2047  0.1298 -0.1304
17935TIP3    H175296   1.777   0.731   6.331 -0.5817  0.3618 -0.7874
17935TIP3    H275297   1.708   0.716   6.465  0.0176 -0.5554 -0.5762
17936TIP3   OH275298   1.463   2.019  12.723 -0.6097 -0.1515  0.2692
17936TIP3    H175299   1.439   1.958  12.793 -1.9305  1.1182  0.9417
17936TIP3    H275300   1.557   2.004  12.710 -0.6002 -1.2487  1.4767
17937TIP3   OH275301   3.530   1.479   2.480  0.7544  0.0061  0.0273
17937TIP3    H175302   3.574   1.431   2.551  2.6107 -0.3277 -1.3086
17937TIP3    H275303   3.541   1.571   2.503  0.4860 -0.1157  0.6660
17938TIP3   OH275304   0.585   4.537  12.538  0.3024  0.5707  0.2786
17938TIP3    H175305   0.570   4.558  12.630 -2.2235  1.5595 -0.3132
17938TIP3    H275306   0.609   4.620  12.498 -2.7142  1.0593 -0.6927
17939TIP3   OH275307   0.128   2.362   4.634  0.9969 -0.4180 -0.3820
17939TIP3    H175308   0.131   2.397   4.723 -2.0617  2.0694 -1.1672
17939TIP3    H275309   0.208   2.396   4.593  0.7405  1.2223  0.4333
17940TIP3   OH275310   0.919   0.919  16.644  0.2376  0.5515 -0.3191
17940TIP3    H175311   0.998   0.972  16.656  0.3561  0.2252  0.3377
17940TIP3    H275312   0.851   0.966  16.692 -0.8803  2.8672 -3.9739
17941TIP3   OH275313   2.067   4.148  15.093 -0.9216 -0.0641 -0.5225
17941TIP3    H175314   2.056   4.083  15.162 -1.0439 -0.2328 -0.6981
17941TIP3    H275315   1.979   4.162  15.059 -1.0468  0.9933  0.2280
17942TIP3   OH275316   1.788   3.357  16.734  0.0089  0.1429 -0.0183
17942TIP3    H175317   1.726   3.285  16.733  0.2459 -0.0797  1.0894
17942TIP3    H275318   1.759   3.413  16.806  1.9382 -0.7140  1.4615
17943TIP3   OH275319   0.830   2.107   1.270 -0.0848 -0.0511 -0.0177
17943TIP3    H175320   0.745   2.064   1.282 -0.2850 -0.5461 -2.8618
17943TIP3    H275321   0.810   2.200   1.260 -0.7035 -0.5157 -3.9420
17944TIP3   OH275322   1.283   4.766  15.977 -0.4811 -0.9443  0.4523
17944TIP3    H175323   1.339   4.688  15.985 -1.9263 -2.0101  0.4010
17944TIP3    H275324   1.262   4.790  16.067 -0.9956 -1.3276  0.4351
17945TIP3   OH275325   5.934   6.544   3.886  0.5499  0.0848 -0.1271
17945TIP3    H175326   5.930   6.639   3.892  1.3079  0.1031  0.2977
17945TIP3    H275327   5.905   6.523   3.798 -1.2173  0.5895  0.3172
17946TIP3   OH275328   5.848   6.215  13.773 -0.3167 -0.1141  0.1322
17946TIP3    H175329   5.872   6.143  13.715 -0.1566 -0.0951  0.1737
17946TIP3    H275330   5.790   6.270  13.720 -0.5077 -0.3161  0.1273
17947TIP3   OH275331   1.649   4.704  15.011 -0.3119 -0.4354 -0.0455
17947TIP3    H175332   1.593   4.764  14.960  0.7423  0.2719 -0.3997
17947TIP3    H275333   1.695   4.653  14.945  0.1140 -0.3972  0.2187
17948TIP3   OH275334   4.914   6.089   3.636 -0.2558 -0.6567 -0.1407
17948TIP3    H175335   4.944   6.133   3.556 -0.6576 -1.7683 -0.9104
17948TIP3    H275336   4.981   6.110   3.701 -0.3882  1.0064 -0.5212
17949TIP3   OH275337   4.235   0.274   1.372  0.6583 -0.1670  0.2950
17949TIP3    H175338   4.240   0.311   1.284  0.2525  1.6299  1.0039
17949TIP3    H275339   4.250   0.348   1.430  0.7045 -1.2966  1.7548
17950TIP3   OH275340   6.763   1.213   5.190 -0.4153 -0.2525 -0.4047
17950TIP3    H175341   6.750   1.138   5.132 -1.1358  1.0447 -1.9873
17950TIP3    H275342   6.810   1.276   5.136  1.9527 -0.2973  1.5245
17951TIP3   OH275343   1.908   5.080   3.276 -0.2194 -0.4518  1.0053
17951TIP3    H175344   1.931   5.039   3.360  0.8409 -1.8288  0.0573
17951TIP3    H275345   1.930   5.014   3.210  0.2352  1.1363 -0.4607
17952TIP3   OH275346   4.319   1.869   2.948 -0.4593 -0.2363  0.5807
17952TIP3    H175347   4.398   1.859   3.000 -0.4681 -0.3616  0.5691
17952TIP3    H275348   4.324   1.958   2.913  0.9449 -1.1152 -1.5257
17953TIP3   OH275349   0.554   0.114  15.043 -0.3312  0.4615  0.4576
17953TIP3    H175350   0.577   0.200  15.009  2.3611 -0.4743 -0.2541
17953TIP3    H275351   0.618   0.097  15.112 -2.0008 -0.2078  1.8828
17954TIP3   OH275352   0.823   3.118  16.672 -0.3587 -0.1732  0.2831
17954TIP3    H175353   0.852   3.198  16.716  1.0565 -0.6909  0.3376
17954TIP3    H275354   0.890   3.102  16.605 -2.3559  0.4892 -1.9311
17955TIP3   OH275355   3.830   5.444  11.510 -0.3767 -0.0928  0.3631
17955TIP3    H175356   3.820   5.520  11.568  3.8870  1.1814 -0.3746
17955TIP3    H275357   3.842   5.370  11.570 -0.8359  0.3980  1.0785
17956TIP3   OH275358   5.772   4.567   2.186 -0.5222 -0.2007 -0.3943
17956TIP3    H175359   5.764   4.484   2.232  1.9567  1.7405  3.8113
17956TIP3    H275360   5.857   4.561   2.142 -0.6313 -0.1061 -0.6199
17957TIP3   OH275361   4.673   2.362   3.128 -0.9878 -0.8158  0.1372
17957TIP3    H175362   4.752   2.355   3.182 -1.2484 -2.1991  0.3406
17957TIP3    H275363   4.686   2.299   3.057 -0.9694  0.4833 -1.0320
17958TIP3   OH275364   1.333   2.939   0.796 -0.4507  0.4547  0.1385
17958TIP3    H175365   1.338   2.997   0.872 -2.2884  0.9416 -0.0893
17958TIP3    H275366   1.370   2.991   0.724  0.5601  0.2799  0.5184
17959TIP3   OH275367   1.757   4.570  14.546 -0.0117  0.2261  0.4314
17959TIP3    H175368   1.719   4.486  14.523 -0.8337  0.1888  1.8929
17959TIP3    H275369   1.737   4.627  14.471  0.2033 -0.7605 -0.3793
17960TIP3   OH275370   3.690   5.465   0.716  0.0435  0.2702  0.5163
17960TIP3    H175371   3.745   5.406   0.663  0.2665  1.7498 -0.9298
17960TIP3    H275372   3.666   5.412   0.792 -1.0860 -2.2813 -1.4986
17961TIP3   OH275373   6.531   3.302   3.171  0.2061 -0.0723  0.7320
17961TIP3    H175374   6.535   3.395   3.148  0.4706 -0.3355 -0.2812
17961TIP3    H275375   6.469   3.264   3.108 -0.4024 -0.4695  1.5497
17962TIP3   OH275376   0.177   1.821  11.562 -0.7052 -0.3264  0.1793
17962TIP3    H175377   0.209   1.906  11.531 -0.4247 -0.9656 -1.3543
17962TIP3    H275378   0.188   1.824  11.657  0.9935  0.6536 -0.0214
17963TIP3   OH275379   5.126   0.072   4.736 -0.3663  0.4316 -0.3668
17963TIP3    H175380   5.190   0.113   4.678  0.3620 -2.5863 -1.7484
17963TIP3    H275381   5.161   0.086   4.824  2.1939 -1.1630 -1.1075
17964TIP3   OH275382   5.754   5.716   2.660  0.0742  0.2171  0.2570
17964TIP3    H175383   5.815   5.771   2.611 -0.2822 -0.2142 -0.6729
17964TIP3    H275384   5.695   5.778   2.703 -0.2913  0.5815 -0.7393
17965TIP3   OH275385   4.262   3.103  11.972 -0.0425 -0.0505 -0.3337
17965TIP3    H175386   4.215   3.148  12.043  1.0679  0.8494 -0.1612
17965TIP3    H275387   4.294   3.022  12.013 -0.9196 -0.3904 -0.2962
17966TIP3   OH275388   2.590   1.069  12.714  0.7508  0.3247 -0.3315
17966TIP3    H175389   2.534   1.030  12.647  0.4133  0.1005  0.0769
17966TIP3    H275390   2.674   1.084  12.670  1.4884 -2.5438 -0.0529
17967TIP3   OH275391   3.639   5.807  12.143  0.1174 -0.6626 -0.6655
17967TIP3    H175392   3.711   5.824  12.204  2.9860 -2.2759 -3.4264
17967TIP3    H275393   3.598   5.727  12.176  1.0869 -1.0360 -0.3438
17968TIP3   OH275394   3.529   5.322  16.178 -0.2233  0.4570 -0.5174
17968TIP3    H175395   3.594   5.339  16.110  0.2258 -0.5221 -0.3376
17968TIP3    H275396   3.457   5.382  16.157 -0.3924 -0.3245 -2.2869
17969TIP3   OH275397   1.666   2.772   4.656  0.2344  0.4557  0.5939
17969TIP3    H175398   1.661   2.773   4.751 -0.3463 -0.8442  0.5827
17969TIP3    H275399   1.757   2.746   4.637  0.4268  0.9875  0.7904
17970TIP3   OH275400   6.126   2.068   0.380  0.1453 -0.0643  0.0751
17970TIP3    H175401   6.053   2.090   0.438 -0.0679 -1.9250  0.5337
17970TIP3    H275402   6.105   2.112   0.298 -0.0388  1.7779  1.0848
17971TIP3   OH275403   5.126   0.873  13.220 -0.1119 -0.0574 -0.1628
17971TIP3    H175404   5.040   0.858  13.261 -0.3682 -1.7356 -1.2975
17971TIP3    H275405   5.135   0.968  13.219 -1.9285  0.1385  0.0409
17972TIP3   OH275406   5.179   0.439   5.449 -0.3739 -0.2517  0.4880
17972TIP3    H175407   5.152   0.474   5.534 -1.9235  1.1840 -0.5480
17972TIP3    H275408   5.274   0.432   5.455 -0.4063  0.4881  2.1025
17973TIP3   OH275409   2.711   0.420   3.190  0.0040 -0.6366 -0.1409
17973TIP3    H175410   2.731   0.490   3.251 -1.6108 -0.6859  0.4618
17973TIP3    H275411   2.639   0.372   3.231  1.5190 -3.0722 -0.2085
17974TIP3   OH275412   5.966   5.653   0.643 -0.2219  0.4444 -0.5739
17974TIP3    H175413   5.904   5.647   0.715 -0.9974 -0.2678 -1.2875
17974TIP3    H275414   5.930   5.595   0.576 -0.3184  2.2523 -2.1236
17975TIP3   OH275415   2.006   0.009   1.811  0.4718  0.2686  0.2969
17975TIP3    H175416   2.050  -0.032   1.736 -2.1730  0.5725 -1.5281
17975TIP3    H275417   2.033  -0.043   1.886  0.1169 -2.5849 -1.4480
17976TIP3   OH275418   1.213   2.415  11.477  0.0539  0.3676  0.2391
17976TIP3    H175419   1.173   2.372  11.401  0.9950  0.9049 -0.5719
17976TIP3    H275420   1.139   2.453  11.525 -0.4031  1.5946 -1.3990
17977TIP3   OH275421   6.026   4.962  12.586 -0.2443  0.1576  0.6754
17977TIP3    H175422   6.103   4.993  12.539 -0.7096  0.9751  0.4260
17977TIP3    H275423   6.058   4.939  12.673  0.3946 -0.1424  0.3642
17978TIP3   OH275424   3.696   4.153  11.467  0.1277 -0.4850  0.0187
17978TIP3    H175425   3.742   4.197  11.539  0.0253 -0.0360 -0.1861
17978TIP3    H275426   3.739   4.068  11.459  0.3413 -0.4141  0.4101
17979TIP3   OH275427   3.436   3.060   5.142  0.3302 -0.0076 -0.0082
17979TIP3    H175428   3.385   2.985   5.113 -0.0294  0.2247  0.0179
17979TIP3    H275429   3.388   3.095   5.217 -0.0672  0.8561 -0.6514
17980TIP3   OH275430   2.970   5.785  14.575 -0.3702 -0.1024 -0.0176
17980TIP3    H175431   3.013   5.752  14.654  0.0725  2.0150  0.6521
17980TIP3    H275432   2.877   5.781  14.595 -0.3508 -1.3838 -0.1375
17981TIP3   OH275433   1.766   1.679  15.556  0.2830  0.4806  0.1390
17981TIP3    H175434   1.861   1.668  15.562  0.0323 -2.2506 -0.1092
17981TIP3    H275435   1.751   1.719  15.471  1.1908  0.3239 -0.0999
17982TIP3   OH275436   5.431   3.159   0.918 -0.2279 -0.0572  1.0462
17982TIP3    H175437   5.336   3.147   0.924 -0.3684  1.4173  1.8746
17982TIP3    H275438   5.467   3.095   0.979 -0.6922 -0.4334  0.9279
17983TIP3   OH275439   5.404   1.846  12.781  0.1347  0.1094 -0.0089
17983TIP3    H175440   5.364   1.926  12.745  0.3950  0.0013 -0.5417
17983TIP3    H275441   5.497   1.869  12.792  0.1797 -0.0656 -0.0171
17984TIP3   OH275442   3.010   3.719  12.683  0.9405 -0.0261  0.3855
17984TIP3    H175443   2.965   3.796  12.719 -1.1606 -0.9454 -0.1430
17984TIP3    H275444   2.947   3.683  12.620  2.0626 -1.9439  0.3333
17985TIP3   OH275445   4.342   1.892   4.653 -0.5108  0.3625  0.8427
17985TIP3    H175446   4.366   1.979   4.621 -0.6207 -0.1871 -0.7892
17985TIP3    H275447   4.417   1.863   4.705 -0.7486  1.6900  1.9550
17986TIP3   OH275448   5.736   5.558  14.681  0.1285  0.2452 -0.0446
17986TIP3    H175449   5.818   5.509  14.672 -0.2113 -0.4769  0.6847
17986TIP3    H275450   5.754   5.643  14.642  1.1293 -0.0197 -0.1692
17987TIP3   OH275451   4.250   1.829   4.957 -0.3347  0.5261 -0.0555
17987TIP3    H175452   4.213   1.913   4.928 -0.7515  0.4303  0.1973
17987TIP3    H275453   4.318   1.810   4.893 -0.9054  0.5689 -0.6767
17988TIP3   OH275454   1.365   4.439   0.483 -0.2595 -0.2813 -0.3919
17988TIP3    H175455   1.338   4.395   0.563 -0.0398  0.6344  0.1912
17988TIP3    H275456   1.430   4.379   0.444 -0.2190 -0.6353  0.2096
17989TIP3   OH275457   3.249   0.968   3.393 -0.1654 -0.2351 -0.1604
17989TIP3    H175458   3.266   0.883   3.354  1.4203  0.4276 -0.9804
17989TIP3    H275459   3.163   0.993   3.360  0.5737 -0.2704 -2.2305
17990TIP3   OH275460   2.310   4.207  13.756  0.3530 -0.1947  0.1603
17990TIP3    H175461   2.339   4.117  13.766  0.0523 -0.2034  1.0091
17990TIP3    H275462   2.227   4.201  13.710  0.1911 -0.3737  0.4745
17991TIP3   OH275463   2.637   5.980  11.083 -0.5406 -0.0853  0.6656
17991TIP3    H175464   2.604   6.065  11.112  0.4833  0.2016  1.0278
17991TIP3    H275465   2.566   5.942  11.031 -1.1225  0.8489  0.7789
17992TIP3   OH275466   4.162   2.679  17.133 -0.6011 -0.4605  0.2496
17992TIP3    H175467   4.178   2.607  17.072 -2.1034 -0.1694 -0.4896
17992TIP3    H275468   4.249   2.702  17.165  0.3039 -0.0816 -2.3679
17993TIP3   OH275469   3.479   2.056  11.644  0.2729 -0.4927 -0.0140
17993TIP3    H175470   3.563   2.061  11.690 -1.0789 -0.4130  2.5595
17993TIP3    H275471   3.495   1.998  11.570  2.4521 -0.9029  0.7449
17994TIP3   OH275472   5.519   4.792  10.682  0.5809 -0.2579  0.1305
17994TIP3    H175473   5.457   4.724  10.707  1.0598 -0.1387  1.7136
17994TIP3    H275474   5.605   4.751  10.691  0.7292 -0.8783 -3.4555
17995TIP3   OH275475   2.072   3.278  13.852 -0.0969  0.3638 -0.6164
17995TIP3    H175476   2.131   3.246  13.920 -0.9756 -0.0528 -0.0352
17995TIP3    H275477   2.120   3.350  13.811  0.9962 -0.2745 -0.4763
17996TIP3   OH275478   1.464   2.725   6.104 -0.2791 -0.2962 -0.3118
17996TIP3    H175479   1.559   2.717   6.091 -0.2614  0.5923 -0.7442
17996TIP3    H275480   1.430   2.637   6.084  0.3271 -0.3151 -1.2863
17997TIP3   OH275481   2.938   0.469  17.260 -0.3379  0.1467  0.5557
17997TIP3    H175482   2.909   0.407  17.326  3.5536 -1.6584  0.7270
17997TIP3    H275483   2.909   0.431  17.177  1.7263 -1.8451  0.6838
17998TIP3   OH275484   2.059   2.286  12.995 -0.4106 -0.2125 -0.6313
17998TIP3    H175485   2.146   2.324  12.983 -0.7144  0.3204 -1.2229
17998TIP3    H275486   2.040   2.297  13.088 -1.0905  2.4575 -1.0408
17999TIP3   OH275487   3.814   4.555  15.461 -0.1855  0.1058 -0.1916
17999TIP3    H175488   3.856   4.499  15.527  0.3079  1.3774  0.6032
17999TIP3    H275489   3.720   4.539  15.472 -0.0473 -0.6569 -0.0646
18000TIP3   OH275490   5.257   0.615   4.943  0.1034  0.8057 -0.7752
18000TIP3    H175491   5.176   0.663   4.927 -1.0116 -0.9029 -0.3442
18000TIP3    H275492   5.304   0.668   5.008 -1.2571  1.1394 -0.0510
18001TIP3   OH275493   3.982   5.051   0.692  0.2709 -0.1098 -0.4923
18001TIP3    H175494   4.073   5.081   0.694  0.5741 -0.8805 -2.1559
18001TIP3    H275495   3.974   5.002   0.610 -1.3573 -0.9751  0.1597
18002TIP3   OH275496   4.960   5.050  16.729  0.1189  0.3189 -0.1213
18002TIP3    H175497   4.954   4.980  16.664  0.6134  1.2581 -1.2149
18002TIP3    H275498   5.048   5.040  16.767  0.2711  0.4600 -0.4282
18003TIP3   OH275499   2.940   0.138   0.433  0.2029 -0.4670  0.3143
18003TIP3    H175500   2.975   0.081   0.501  0.2505  0.7401  1.3080
18003TIP3    H275501   2.889   0.204   0.480 -0.5627 -0.1899 -0.8850
18004TIP3   OH275502   1.423   3.041  12.493  0.1122 -0.5824 -0.0764
18004TIP3    H175503   1.351   3.023  12.554 -0.2146  1.4137  0.1305
18004TIP3    H275504   1.487   3.089  12.545  0.5366 -0.2498 -0.8995
18005TIP3   OH275505   4.559   4.117  14.015  0.1472 -0.0911  0.6038
18005TIP3    H175506   4.631   4.101  13.953  0.8505 -1.3769  1.7312
18005TIP3    H275507   4.593   4.185  14.073 -0.0552  0.2494  0.3261
18006TIP3   OH275508   2.195   1.178   2.648  0.1296  0.6735 -0.0336
18006TIP3    H175509   2.111   1.151   2.609  1.2548 -2.4214 -0.4180
18006TIP3    H275510   2.249   1.204   2.573 -0.0057  1.3785  0.1047
18007TIP3   OH275511   6.389   3.615   1.959  0.2248 -0.1489  0.3699
18007TIP3    H175512   6.303   3.613   1.916 -0.6516  0.9860  1.9914
18007TIP3    H275513   6.377   3.562   2.038  1.2241 -0.5685  0.2431
18008TIP3   OH275514   5.068   1.062  11.952  0.2277  0.1399 -0.5316
18008TIP3    H175515   5.085   1.025  12.039 -0.2974 -1.8456 -1.2415
18008TIP3    H275516   5.026   0.991  11.904  1.9555  0.6689 -2.9214
18009TIP3   OH275517   6.248   0.649   4.606 -0.0938 -0.0221 -0.0848
18009TIP3    H175518   6.222   0.741   4.602  0.5592  0.2564  1.5644
18009TIP3    H275519   6.335   0.647   4.564  0.5925  0.3996  1.3054
18010TIP3   OH275520   1.195   3.050  16.741  0.3143  0.0554  0.3132
18010TIP3    H175521   1.182   3.141  16.769 -0.6754  0.1600 -0.4643
18010TIP3    H275522   1.137   3.039  16.666 -1.3065 -1.9058  1.8041
18011TIP3   OH275523   5.321   0.270  11.416 -0.0452 -0.2235 -0.8769
18011TIP3    H175524   5.235   0.303  11.443 -0.9330 -2.2864 -1.1268
18011TIP3    H275525   5.377   0.286  11.492 -1.1423 -0.7044  0.0527
18012TIP3   OH275526   5.025   1.862  13.761 -0.5371 -0.6677  0.2689
18012TIP3    H175527   5.004   1.849  13.669 -1.6797  0.4026  0.3623
18012TIP3    H275528   5.120   1.873  13.764 -0.8765  3.6072 -1.3236
18013TIP3   OH275529   2.928   3.317  14.803  0.3254  0.3721 -0.1383
18013TIP3    H175530   2.921   3.230  14.765 -0.3548  1.2942 -2.1914
18013TIP3    H275531   2.856   3.321  14.866 -0.9000  0.1348 -1.4875
18014TIP3   OH275532   2.384   6.513   1.828  0.1065 -0.1816 -0.3515
18014TIP3    H175533   2.375   6.608   1.830 -2.2783 -0.3828  1.8901
18014TIP3    H275534   2.391   6.487   1.920 -0.4940 -2.2645 -0.8462
18015TIP3   OH275535   4.116   5.513  12.104  0.6150  0.1886 -0.1099
18015TIP3    H175536   4.066   5.432  12.115  0.1531  0.4157 -0.5265
18015TIP3    H275537   4.115   5.554  12.190  1.5147 -0.6382  0.2897
18016TIP3   OH275538   4.857   6.574  14.372 -0.9279  0.3980 -0.0724
18016TIP3    H175539   4.907   6.531  14.441  0.3673  0.8974 -0.6721
18016TIP3    H275540   4.798   6.633  14.417  0.8194  1.6881  0.5800
18017TIP3   OH275541   5.467   0.127   3.071  0.1590 -0.3248  0.3969
18017TIP3    H175542   5.478   0.105   2.978  1.4702  2.2097 -0.0927
18017TIP3    H275543   5.516   0.059   3.118  0.3051 -1.0756 -0.8075
18018TIP3   OH275544   4.101   4.074  14.190  0.2719 -0.1297  0.0963
18018TIP3    H175545   4.143   4.158  14.173 -1.1109  0.6041  0.2545
18018TIP3    H275546   4.009   4.088  14.167 -0.0890 -1.4084  0.7332
18019TIP3   OH275547   2.163   6.152  17.242  0.1622 -0.8732  0.1558
18019TIP3    H175548   2.218   6.219  17.281  0.3142 -1.3576  0.7851
18019TIP3    H275549   2.183   6.155  17.148 -0.7063  0.7647 -0.0025
18020TIP3   OH275550   3.368   2.105  15.615  0.1576  0.1535 -0.1330
18020TIP3    H175551   3.300   2.127  15.552 -1.8365 -0.6062  1.6883
18020TIP3    H275552   3.386   2.012  15.601  2.0777  0.7360 -1.7442
18021TIP3   OH275553   4.745   2.758  11.358 -0.1613  0.3362  0.7877
18021TIP3    H175554   4.724   2.712  11.439 -2.4868  0.4892  0.3048
18021TIP3    H275555   4.820   2.711  11.322  1.9074  1.2469  3.8079
18022TIP3   OH275556   2.760   2.022  13.299  0.2812  0.0839  0.2089
18022TIP3    H175557   2.677   2.054  13.334  1.0328  0.4566  1.6769
18022TIP3    H275558   2.791   1.959  13.364  1.5930  0.6119  0.0979
18023TIP3   OH275559   4.513   0.056   5.600 -0.2707 -0.2748 -0.5268
18023TIP3    H175560   4.488  -0.002   5.672 -1.4010  0.2195 -0.5096
18023TIP3    H275561   4.540  -0.003   5.530 -1.8360 -0.8628 -0.6646
18024TIP3   OH275562   2.808   3.626  16.456 -0.2667  0.0487  0.6816
18024TIP3    H175563   2.869   3.600  16.525  0.0276 -0.1981  0.3276
18024TIP3    H275564   2.799   3.721  16.467  0.7015  0.1886  0.3092
18025TIP3   OH275565   1.412   4.955   5.230  0.5950 -0.5265 -0.0774
18025TIP3    H175566   1.497   4.916   5.209  0.8450 -0.7097  1.2208
18025TIP3    H275567   1.360   4.945   5.150  2.3156  1.0609 -1.4487
18026TIP3   OH275568   6.364   2.494  15.834 -0.0256  0.1910  0.3542
18026TIP3    H175569   6.431   2.427  15.818 -0.1017  0.5906 -1.7786
18026TIP3    H275570   6.291   2.445  15.872  0.6760 -0.5855  0.7425
18027TIP3   OH275571   0.610   5.153  12.180  0.5324  0.3463 -0.0165
18027TIP3    H175572   0.600   5.088  12.110  0.6540 -0.3656  0.6265
18027TIP3    H275573   0.569   5.232  12.145  0.9055  0.0963 -1.0380
18028TIP3   OH275574   4.497   3.605   1.370 -0.1237  0.0353  0.1441
18028TIP3    H175575   4.463   3.548   1.301  0.0137 -1.4280  1.2657
18028TIP3    H275576   4.420   3.641   1.412 -0.2372 -0.2189  0.1568
18029TIP3   OH275577   6.697   0.321  11.460  0.5502 -0.0377 -0.0075
18029TIP3    H175578   6.768   0.259  11.474  0.4422  0.2165  1.7598
18029TIP3    H275579   6.716   0.360  11.375  1.8751 -0.8346 -0.0886
18030TIP3   OH275580   5.649   5.629  11.840 -0.2446 -0.6955  0.5868
18030TIP3    H175581   5.556   5.648  11.846 -0.2556 -0.8688  1.0083
18030TIP3    H275582   5.653   5.544  11.796 -0.3913 -1.7603  2.6045
18031TIP3   OH275583   2.878   1.577   5.148 -0.0379  0.0926  0.4626
18031TIP3    H175584   2.929   1.500   5.174  0.0325 -0.0202 -0.0077
18031TIP3    H275585   2.904   1.645   5.210 -0.3090 -0.3426  1.0537
18032TIP3   OH275586   1.865   0.877   3.582 -0.0721  0.2269 -0.2071
18032TIP3    H175587   1.787   0.844   3.538  0.3666 -0.9639 -0.0997
18032TIP3    H275588   1.855   0.973   3.579 -0.5474  0.1450 -1.9561
18033TIP3   OH275589   5.803   6.632  13.258 -0.5511  0.4524 -0.0664
18033TIP3    H175590   5.834   6.596  13.341 -1.3531  0.3911  0.2139
18033TIP3    H275591   5.777   6.555  13.207  0.5387  0.4507 -0.6163
18034TIP3   OH275592   4.070   6.326  15.453 -0.0414  0.2797  0.1614
18034TIP3    H175593   4.156   6.285  15.442  0.5031  1.7691 -1.4989
18034TIP3    H275594   4.090   6.415  15.482 -0.9962  0.6759 -0.3833
18035TIP3   OH275595   4.437   5.990   6.259 -0.3825  0.2411 -0.4267
18035TIP3    H175596   4.502   6.010   6.192 -1.0952  0.0605 -1.1805
18035TIP3    H275597   4.417   6.075   6.299 -1.2692  0.6258 -1.6603
18036TIP3   OH275598   1.494   3.221  17.044  0.3521  0.0478 -0.1342
18036TIP3    H175599   1.575   3.221  17.095  0.2780  0.8608 -0.0109
18036TIP3    H275600   1.447   3.143  17.073  0.4455  0.3422  0.8159
18037TIP3   OH275601   1.053   2.932  13.508 -0.2383  0.5815 -0.4253
18037TIP3    H175602   0.982   2.988  13.540 -0.3695  0.9616 -1.3782
18037TIP3    H275603   1.131   2.962  13.553 -1.0667 -1.3907  2.4889
18038TIP3   OH275604   4.571   5.764   3.262 -0.1120  0.3622 -0.1391
18038TIP3    H175605   4.583   5.765   3.167 -1.7507 -0.6869 -0.3829
18038TIP3    H275606   4.653   5.800   3.297  0.6473  0.4344 -1.9212
18039TIP3   OH275607   5.963   1.677   5.393  0.1040  0.3640 -0.5241
18039TIP3    H175608   5.888   1.659   5.336  0.5094  0.8134 -1.2151
18039TIP3    H275609   6.023   1.604   5.378  0.5311  0.8457 -1.2406
18040TIP3   OH275610   1.281   3.241  13.023 -0.0629  0.3373  0.4526
18040TIP3    H175611   1.225   3.199  13.088  0.3195  1.2870  1.4035
18040TIP3    H275612   1.229   3.313  12.989 -0.3705 -0.3274 -0.5190
18041TIP3   OH275613   0.364   4.759  13.637 -0.2256  0.2699 -0.2371
18041TIP3    H175614   0.310   4.680  13.629 -0.1342  0.2828 -1.0051
18041TIP3    H275615   0.367   4.776  13.731  0.5894 -1.2381  0.0266
18042TIP3   OH275616   0.127   4.939   3.464  0.9918 -0.4449  0.1051
18042TIP3    H175617   0.135   4.962   3.557 -0.9221  0.3613  0.0834
18042TIP3    H275618   0.120   4.844   3.463 -0.1478 -0.3703  0.8749
18043TIP3   OH275619   5.137   1.056   5.791  0.0786  0.1763 -0.5108
18043TIP3    H175620   5.062   1.077   5.847  0.3837 -0.7059  0.2358
18043TIP3    H275621   5.213   1.061   5.849  0.4533 -0.2349 -0.9647
18044TIP3   OH275622   0.032   2.289   4.327  0.5362 -0.1626  0.0620
18044TIP3    H175623   0.069   2.213   4.373  2.2099  0.2502 -0.5722
18044TIP3    H275624  -0.051   2.257   4.291  0.2692 -1.1274  1.4639
18045TIP3   OH275625   1.716   3.495   2.774 -0.3867  0.2778 -0.3149
18045TIP3    H175626   1.805   3.460   2.782 -0.6739 -0.0380  1.7907
18045TIP3    H275627   1.663   3.436   2.827 -1.7754  0.7622 -1.1540
18046TIP3   OH275628   2.010   5.296  12.347 -0.4510  0.2983 -0.0886
18046TIP3    H175629   1.941   5.237  12.318  0.4424  0.1181 -1.8862
18046TIP3    H275630   2.091   5.246  12.339  0.0795  1.0308  0.5125
18047TIP3   OH275631   2.826   4.951  16.522  0.2424 -0.1916  0.4028
18047TIP3    H175632   2.811   4.871  16.473  2.6916  0.1325 -0.9877
18047TIP3    H275633   2.744   5.000  16.516 -1.3027 -2.5851  1.3416
18048TIP3   OH275634   5.758   5.164   1.691  0.2907 -0.3075 -0.6690
18048TIP3    H175635   5.701   5.145   1.616 -2.1655  1.1593  0.7726
18048TIP3    H275636   5.752   5.086   1.746  0.2459 -0.4316 -0.8493
18049TIP3   OH275637   2.304   0.009   0.582 -0.5329  0.1025  0.0010
18049TIP3    H175638   2.316   0.097   0.619 -0.7559  0.8773 -1.7237
18049TIP3    H275639   2.267  -0.042   0.654 -0.7079  1.5064  0.9340
18050TIP3   OH275640   6.763   4.291   4.821 -0.4793  0.1698 -0.0810
18050TIP3    H175641   6.697   4.338   4.872 -1.6788 -0.3271 -1.1310
18050TIP3    H275642   6.728   4.202   4.812 -0.4669  0.3194 -1.9900
18051TIP3   OH275643   0.142   0.467  12.496  0.8903  0.6887  0.3605
18051TIP3    H175644   0.179   0.487  12.410  2.0469  0.9906  0.9106
18051TIP3    H275645   0.204   0.405  12.535 -1.7215 -2.6604 -0.6052
18052TIP3   OH275646   1.895   1.156   0.207 -0.2458  0.3934  0.6017
18052TIP3    H175647   1.803   1.181   0.218 -0.2949  0.5029 -0.0018
18052TIP3    H275648   1.902   1.071   0.249 -0.6933  0.2648  0.4235
18053TIP3   OH275649   5.459   3.564   2.899  0.3070 -0.8172  0.7389
18053TIP3    H175650   5.493   3.610   2.975 -1.6081 -1.2866  1.9145
18053TIP3    H275651   5.406   3.630   2.853  0.4578 -0.8736  0.4832
18054TIP3   OH275652   5.429   4.350  15.762  0.0777 -0.1205  0.1508
18054TIP3    H175653   5.523   4.337  15.762  0.5598  2.6910 -2.3546
18054TIP3    H275654   5.400   4.320  15.675 -1.1375  0.0709  0.4749
18055TIP3   OH275655   5.740   1.863  11.075  0.3298  0.1619  0.1305
18055TIP3    H175656   5.806   1.909  11.025 -0.5437 -0.1084 -1.3013
18055TIP3    H275657   5.773   1.863  11.165  1.6906  1.0498 -0.3603
18056TIP3   OH275658   2.783   5.360  15.631  0.3994  0.8355  0.5217
18056TIP3    H175659   2.697   5.378  15.668 -0.3726 -2.5922  0.5347
18056TIP3    H275660   2.836   5.332  15.706  0.1527 -1.5988 -0.1717
18057TIP3   OH275661   2.776   0.830  13.957  0.2560 -0.1795 -0.1022
18057TIP3    H175662   2.839   0.832  14.029  1.3552 -1.1189 -1.0163
18057TIP3    H275663   2.694   0.804  13.998  0.6010  0.4424  1.0024
18058TIP3   OH275664   1.168   6.000   4.644  0.3089  0.6927  0.0751
18058TIP3    H175665   1.077   6.000   4.675  0.3086  1.5383  0.0920
18058TIP3    H275666   1.161   6.019   4.550  0.3770 -0.8186 -0.2567
18059TIP3   OH275667   0.623   1.442  17.263  0.1813  1.0351  0.2513
18059TIP3    H175668   0.536   1.425  17.228 -0.0553  1.7904  0.4581
18059TIP3    H275669   0.655   1.517  17.212  0.9098  0.4485 -0.1651
18060TIP3   OH275670   3.397   2.891   1.340  0.4282  0.0414 -0.2201
18060TIP3    H175671   3.424   2.884   1.249 -0.2967 -1.7648 -0.3116
18060TIP3    H275672   3.470   2.855   1.390  0.2830 -0.1941 -0.1744
18061TIP3   OH275673   6.365   5.349  11.618 -0.2632  0.0009 -0.3731
18061TIP3    H175674   6.436   5.406  11.587 -0.1958 -0.3546 -0.8703
18061TIP3    H275675   6.362   5.365  11.713 -1.1881  1.8829 -0.6964
18062TIP3   OH275676   2.520   3.096   4.985  0.0504 -0.0817 -0.1306
18062TIP3    H175677   2.539   3.112   5.078 -0.2250 -0.9175  0.0766
18062TIP3    H275678   2.595   3.132   4.938  0.3252  0.0955  0.4415
18063TIP3   OH275679   0.163   1.270   1.598  0.4422 -0.4426 -0.1349
18063TIP3    H175680   0.089   1.327   1.615  0.2643 -0.1389 -1.8449
18063TIP3    H275681   0.130   1.182   1.616  0.0826 -0.1877  0.4516
18064TIP3   OH275682   3.007   6.491   0.827  0.0189  0.0823 -0.2169
18064TIP3    H175683   2.951   6.495   0.904  0.5541 -0.6245  0.2035
18064TIP3    H275684   3.095   6.476   0.861  1.0871  4.5339 -0.6292
18065TIP3   OH275685   0.417   0.566   1.521  0.3826 -0.2588  0.0527
18065TIP3    H175686   0.472   0.519   1.583  0.2807  0.3100  0.5774
18065TIP3    H275687   0.477   0.628   1.479  0.1508  0.3469  0.6102
18066TIP3   OH275688   2.960   4.672  13.469  0.3890  0.2958 -0.5937
18066TIP3    H175689   2.938   4.647  13.379  1.2999 -0.0885 -0.7117
18066TIP3    H275690   3.028   4.739  13.461  0.5322  0.2054 -0.1920
18067TIP3   OH275691   0.067   1.718  14.658  0.7966  0.4141  0.7383
18067TIP3    H175692  -0.019   1.726  14.698  0.9491 -0.8280  1.3318
18067TIP3    H275693   0.105   1.639  14.696  0.7303 -1.1246 -2.2108
18068TIP3   OH275694   3.162   6.291   3.207 -0.0378 -0.1985  0.2212
18068TIP3    H175695   3.152   6.344   3.128  0.6901 -0.5991 -0.1390
18068TIP3    H275696   3.252   6.308   3.236  0.4914 -1.9321 -0.3934
18069TIP3   OH275697   6.220   5.725   0.445 -0.0685 -0.5209 -0.3353
18069TIP3    H175698   6.304   5.704   0.405  0.1518  0.9204 -0.6543
18069TIP3    H275699   6.239   5.799   0.503 -1.3267  0.5805 -1.2957
18070TIP3   OH275700   3.596   3.783  15.097 -0.0832  0.1363 -0.0179
18070TIP3    H175701   3.606   3.860  15.042 -0.3827  0.6414  0.6275
18070TIP3    H275702   3.682   3.742  15.098 -0.0407  0.2141 -0.7339
18071TIP3   OH275703   6.628   2.852  16.834 -0.0524 -0.1932 -0.1750
18071TIP3    H175704   6.689   2.923  16.819  0.9501 -1.0164 -0.0484
18071TIP3    H275705   6.636   2.796  16.756 -0.5061 -0.4099 -0.0699
18072TIP3   OH275706   6.255   0.632   4.273 -0.2659 -0.3851 -0.0179
18072TIP3    H175707   6.287   0.705   4.327 -0.0925  1.6821 -2.7501
18072TIP3    H275708   6.308   0.557   4.300  0.7115  0.8781  1.7199
18073TIP3   OH275709   5.318   6.025  13.700  0.5030 -0.3740 -0.1363
18073TIP3    H175710   5.234   5.986  13.678  1.0201 -1.0947 -0.8570
18073TIP3    H275711   5.317   6.032  13.795 -0.6426  0.2583 -0.1786
18074TIP3   OH275712   4.606   4.735   2.795 -0.5165  0.1289  0.0366
18074TIP3    H175713   4.579   4.655   2.839 -2.5185  0.8551  0.1831
18074TIP3    H275714   4.587   4.720   2.702 -0.4696  0.2472  0.0068
18075TIP3   OH275715   3.697   6.805   0.145 -0.9006  0.1314  0.5152
18075TIP3    H175716   3.691   6.899   0.161  0.7700  0.1076  1.4983
18075TIP3    H275717   3.638   6.788   0.072 -1.4682  1.8894  0.5563
18076TIP3   OH275718   2.633   5.718   5.003 -0.4676  0.1413 -0.3839
18076TIP3    H175719   2.596   5.642   4.956 -0.5619  0.0492 -0.1595
18076TIP3    H275720   2.557   5.764   5.038 -0.4011  0.2556 -0.3902
18077TIP3   OH275721   1.768   2.905   1.341  0.3245 -0.4498 -0.3175
18077TIP3    H175722   1.788   2.887   1.249 -1.8105 -2.0268 -0.5145
18077TIP3    H275723   1.713   2.983   1.339  0.3307 -0.4467 -0.3754
18078TIP3   OH275724   4.956   4.316  16.345 -0.3615 -0.2765 -0.2674
18078TIP3    H175725   5.038   4.322  16.394 -0.3918 -0.7501 -0.1475
18078TIP3    H275726   4.925   4.406  16.337 -0.4307 -0.2065  0.7138
18079TIP3   OH275727   1.297   4.909  13.798 -0.2296 -0.2560 -0.3283
18079TIP3    H175728   1.237   4.916  13.724 -1.6836 -1.5094  0.7119
18079TIP3    H275729   1.341   4.825  13.786  0.2441 -0.0196 -0.2760
18080TIP3   OH275730   3.012   0.614   6.090  0.6267 -0.1050  0.1592
18080TIP3    H175731   2.979   0.573   6.170  1.5658  0.3313  0.7832
18080TIP3    H275732   2.989   0.553   6.021 -0.9146 -0.1065  0.6542
18081TIP3   OH275733   0.926   1.972   4.584 -0.1978 -0.3100  0.4124
18081TIP3    H175734   0.877   1.967   4.666  0.5840  0.3023  0.9269
18081TIP3    H275735   1.000   1.912   4.596 -0.3600 -0.5963 -0.0313
18082TIP3   OH275736   0.225   0.866   3.764 -0.6094 -0.1421  0.3508
18082TIP3    H175737   0.270   0.911   3.692  0.6849  1.4121  2.1094
18082TIP3    H275738   0.138   0.845   3.728 -0.1815  1.0795 -1.4769
18083TIP3   OH275739   1.308   3.862   2.673  0.0918  0.4863 -0.3501
18083TIP3    H175740   1.369   3.936   2.672  1.6068 -0.7414 -0.4349
18083TIP3    H275741   1.308   3.829   2.583 -0.3843  0.2186 -0.2540
18084TIP3   OH275742   1.592   6.544  16.506 -0.0285 -0.2175  0.1565
18084TIP3    H175743   1.548   6.474  16.555 -3.7005  1.5474 -0.4693
18084TIP3    H275744   1.525   6.612  16.497  3.5124  3.5677  1.0288
18085TIP3   OH275745   4.183   4.651  16.355  0.0715 -0.3175  0.7038
18085TIP3    H175746   4.147   4.607  16.277 -1.0580 -0.9831  1.5839
18085TIP3    H275747   4.116   4.716  16.378  0.9503  0.6965  0.4285
18086TIP3   OH275748   0.544   2.570  15.640 -0.1920  0.7601 -0.0211
18086TIP3    H175749   0.456   2.606  15.642  0.0508  1.3904 -0.5207
18086TIP3    H275750   0.590   2.613  15.712 -0.9429 -1.3067  1.7530
18087TIP3   OH275751   3.426   5.619  13.378 -0.2488 -0.3979 -0.7416
18087TIP3    H175752   3.497   5.582  13.430  0.3846 -0.9474 -1.9597
18087TIP3    H275753   3.354   5.631  13.440  2.1294  3.9798  1.4018
18088TIP3   OH275754   4.775   6.360  14.240  0.8576 -0.2998  0.0279
18088TIP3    H175755   4.828   6.421  14.291 -0.2074  1.0016 -0.3837
18088TIP3    H275756   4.774   6.397  14.152 -0.8418 -0.2204  0.0663
18089TIP3   OH275757   1.278   3.626  16.763  0.5524  0.1076 -0.7602
18089TIP3    H175758   1.262   3.611  16.856  0.1938  1.0712 -0.6562
18089TIP3    H275759   1.284   3.722  16.755 -1.1008  0.1352 -1.9950
18090TIP3   OH275760   6.676   4.059  12.980  0.1361  0.6716  0.1256
18090TIP3    H175761   6.622   3.982  12.964 -0.6325  1.1901  0.2279
18090TIP3    H275762   6.615   4.132  12.982  0.8349  1.2622  0.2545
18091TIP3   OH275763   2.650   3.861  11.489 -0.5974 -0.0476 -0.5440
18091TIP3    H175764   2.682   3.778  11.525 -0.4679 -1.3585 -3.5768
18091TIP3    H275765   2.724   3.920  11.496 -0.3841 -0.4534  0.7675
18092TIP3   OH275766   2.859   4.592  15.328  0.3283  0.8534  0.3348
18092TIP3    H175767   2.771   4.626  15.340  0.1731  0.8239 -0.6417
18092TIP3    H275768   2.906   4.663  15.282  0.8638  0.9417  1.0049
18093TIP3   OH275769   2.355   2.471  15.913 -0.2088  0.3442  0.2256
18093TIP3    H175770   2.375   2.531  15.841 -0.7582  0.6077  0.2928
18093TIP3    H275771   2.440   2.433  15.936  0.6534  3.2060  2.1076
18094TIP3   OH275772   6.336   0.099   3.926 -0.0260  0.2187  0.2711
18094TIP3    H175773   6.372   0.032   3.983 -0.6689 -0.0762  0.3348
18094TIP3    H275774   6.262   0.057   3.882  0.1056  0.6196 -0.3411
18095TIP3   OH275775   0.167   1.435  15.301  0.0877 -0.0413 -0.0170
18095TIP3    H175776   0.191   1.500  15.367 -0.9106 -1.0953  1.4120
18095TIP3    H275777   0.088   1.394  15.335  1.7431 -3.3611  0.1129
18096TIP3   OH275778   3.360   5.889   2.317  0.0180 -0.2623  0.4654
18096TIP3    H175779   3.338   5.827   2.386 -1.5050 -0.5456 -0.2412
18096TIP3    H275780   3.455   5.888   2.312  0.1323 -0.2813  2.5035
18097TIP3   OH275781   1.343   0.843   5.706  0.1919  0.4399 -0.1582
18097TIP3    H175782   1.258   0.801   5.691  0.0349  0.3712  0.8790
18097TIP3    H275783   1.406   0.785   5.663  0.0236 -1.1639  1.6387
18098TIP3   OH275784   6.294   6.397  11.568  0.0050 -0.3491  0.3078
18098TIP3    H175785   6.350   6.371  11.641 -0.7390 -1.7582  0.3948
18098TIP3    H275786   6.342   6.369  11.490 -0.2135 -0.8606  0.3538
18099TIP3   OH275787   6.516   2.154   5.549 -0.5606 -0.2324  0.3628
18099TIP3    H175788   6.425   2.171   5.573 -0.7403 -1.2799  0.4045
18099TIP3    H275789   6.552   2.241   5.529 -0.9064  0.4533  2.6375
18100TIP3   OH275790   1.385   1.996   3.769 -0.0779 -0.4283 -0.3904
18100TIP3    H175791   1.446   1.991   3.696 -1.2007  1.2869 -1.4967
18100TIP3    H275792   1.417   1.932   3.833  1.1368 -1.6526 -2.2120
18101TIP3   OH275793   3.951   0.933  11.729 -0.1352  0.3350  0.2610
18101TIP3    H175794   3.888   0.862  11.733  1.0631 -0.7417  0.3172
18101TIP3    H275795   3.925   0.984  11.652 -1.4422  0.2724  0.6516
18102TIP3   OH275796   4.386   1.016   5.985 -0.1969 -0.7818  0.1834
18102TIP3    H175797   4.388   1.099   5.937  0.2438 -0.1141  1.3353
18102TIP3    H275798   4.300   1.013   6.026  0.2614 -0.2414  1.2285
18103TIP3   OH275799   2.549   4.793   5.180  0.2019  0.1805 -0.0492
18103TIP3    H175800   2.561   4.787   5.275  0.1833 -0.5785 -0.0966
18103TIP3    H275801   2.632   4.828   5.148 -0.2802  1.7575  0.3907
18104TIP3   OH275802   4.187   3.570  14.607 -0.1256 -0.3713  0.2609
18104TIP3    H175803   4.136   3.542  14.684 -0.2059  0.5444  0.5406
18104TIP3    H275804   4.239   3.643  14.638  0.5221 -0.5769 -0.3329
18105TIP3   OH275805   4.575   0.934  14.796  0.5887  0.2819  0.3049
18105TIP3    H175806   4.483   0.914  14.777  0.3986  0.9649  0.4900
18105TIP3    H275807   4.593   0.889  14.879 -0.0559  1.5131  1.1126
18106TIP3   OH275808   4.201   2.072  11.448  0.4449  0.2084 -0.4221
18106TIP3    H175809   4.149   1.994  11.428  0.8046  0.0667 -0.7912
18106TIP3    H275810   4.187   2.086  11.542 -0.7334  0.5126 -0.6315
18107TIP3   OH275811   3.072   4.726  13.829 -0.2943  0.3027  0.0690
18107TIP3    H175812   3.098   4.812  13.794  0.0767 -0.2156 -0.9671
18107TIP3    H275813   2.994   4.744  13.881 -0.3068  1.2562 -0.2605
18108TIP3   OH275814   0.102   4.045   3.147 -0.2995 -0.2347  0.0088
18108TIP3    H175815   0.193   4.016   3.148 -0.3056 -0.4206 -2.5711
18108TIP3    H275816   0.064   4.004   3.069 -2.1352  1.2239  0.1039
18109TIP3   OH275817   2.865   0.406  16.131 -0.6848  0.9759 -0.6656
18109TIP3    H175818   2.936   0.373  16.187 -1.3248 -1.6496 -1.3128
18109TIP3    H275819   2.905   0.416  16.045 -1.2806 -1.4096 -1.2510
18110TIP3   OH275820   4.572   4.356   4.192 -0.0785 -0.2319  0.6991
18110TIP3    H175821   4.500   4.296   4.174 -1.3469  1.3105  0.5560
18110TIP3    H275822   4.635   4.341   4.121 -1.3868  0.1644 -0.5580
18111TIP3   OH275823   4.065   1.156   5.770 -0.3086 -0.3627 -0.2057
18111TIP3    H175824   3.974   1.126   5.767 -0.3717 -0.1215 -0.6071
18111TIP3    H275825   4.113   1.079   5.800 -0.8179 -0.1001  1.3588
18112TIP3   OH275826   0.781   3.997  16.313  0.3623  0.4367  0.1236
18112TIP3    H175827   0.865   3.985  16.357 -0.2537  0.8273  1.4322
18112TIP3    H275828   0.729   3.921  16.340 -0.3512  1.1853  0.8586
18113TIP3   OH275829   1.822   3.345   4.725  0.0075 -0.2335 -0.1201
18113TIP3    H175830   1.809   3.373   4.815  0.5005 -1.4301  0.3293
18113TIP3    H275831   1.733   3.334   4.690 -0.1814  0.3083  0.1803
18114TIP3   OH275832   5.723   3.267   2.372  0.1160  0.2885  0.0070
18114TIP3    H175833   5.645   3.313   2.403 -0.5799 -0.5954 -0.4098
18114TIP3    H275834   5.755   3.321   2.300  0.3623  1.0833  0.7047
18115TIP3   OH275835   2.932   6.503  12.218 -0.4189 -0.1688  0.2587
18115TIP3    H175836   2.891   6.462  12.294  0.6426 -2.1494 -0.2067
18115TIP3    H275837   2.868   6.491  12.147 -0.7893  0.3972  0.4968
18116TIP3   OH275838   1.789   2.417  15.340 -0.0648  0.5085  0.2177
18116TIP3    H175839   1.875   2.460  15.341 -0.2075  0.7936  0.4363
18116TIP3    H275840   1.809   2.325  15.355  0.4732  0.0471 -3.0051
18117TIP3   OH275841   4.890   3.832  12.661  0.3305 -0.3476  0.1048
18117TIP3    H175842   4.833   3.759  12.688 -0.7596  0.8160  1.0267
18117TIP3    H275843   4.829   3.896  12.623  1.3972 -0.3162 -1.6063
18118TIP3   OH275844   6.325   5.900   4.229  0.1547 -0.3712 -0.1379
18118TIP3    H175845   6.316   5.957   4.153  0.8199  0.6163  0.5072
18118TIP3    H275846   6.288   5.816   4.201 -1.1637  0.4781 -0.9750
18119TIP3   OH275847   1.541   1.785   4.671 -0.7566  0.2212 -0.0777
18119TIP3    H175848   1.621   1.837   4.669 -0.0995 -0.7729  0.0663
18119TIP3    H275849   1.487   1.821   4.600  0.2161  0.2468 -0.8122
18120TIP3   OH275850   1.030   1.116  12.277  0.1578 -0.2707  0.1322
18120TIP3    H175851   1.085   1.046  12.311 -0.0202 -0.2609  0.4436
18120TIP3    H275852   0.982   1.076  12.204  0.2243 -0.4098  0.1664
18121TIP3   OH275853   4.371   4.251  11.192 -0.1318 -0.5141 -0.1583
18121TIP3    H175854   4.429   4.188  11.234 -0.3688  0.6181  1.9092
18121TIP3    H275855   4.303   4.197  11.150 -0.0341 -1.6526  1.1356
18122TIP3   OH275856   0.156   4.391   4.326  0.1593  0.1959 -0.3537
18122TIP3    H175857   0.204   4.308   4.326  0.7919  0.4906 -3.5457
18122TIP3    H275858   0.064   4.365   4.322  0.4030 -0.3846 -2.7916
18123TIP3   OH275859   2.121   2.830   1.382 -0.0342  0.4107  0.0129
18123TIP3    H175860   2.164   2.789   1.457 -1.4597  2.2904  1.9172
18123TIP3    H275861   2.188   2.832   1.314  0.9759 -2.2899  0.8494
18124TIP3   OH275862   3.279   0.259   0.557 -0.2819 -0.1773 -0.6506
18124TIP3    H175863   3.294   0.287   0.467 -0.2296 -1.6874 -1.1239
18124TIP3    H275864   3.271   0.164   0.552 -1.8541 -0.1366  0.7347
18125TIP3   OH275865   2.812   5.508  14.739  0.3939  0.1814  0.0952
18125TIP3    H175866   2.907   5.513  14.748  0.3615  1.0653  0.0342
18125TIP3    H275867   2.779   5.555  14.816  0.0006 -0.7247  0.4817
18126TIP3   OH275868   4.426   2.971   5.672 -0.7358  0.2175 -0.1375
18126TIP3    H175869   4.332   2.978   5.655 -0.6586  1.6479 -0.0370
18126TIP3    H275870   4.436   2.999   5.763 -0.2109  0.0217 -0.1328
18127TIP3   OH275871   0.199   2.215  13.358  0.5669 -0.7266  0.0802
18127TIP3    H175872   0.278   2.172  13.325  1.1458 -1.3052  2.1494
18127TIP3    H275873   0.222   2.242  13.447 -1.7226 -1.2904  0.8542
18128TIP3   OH275874   5.145   4.690  14.115  0.3322 -0.5503 -0.6490
18128TIP3    H175875   5.088   4.754  14.158 -0.4287 -1.0609 -0.8941
18128TIP3    H275876   5.202   4.658  14.185 -0.1507 -0.5552 -0.2570
18129TIP3   OH275877   0.088   6.565  12.100  0.1206 -0.3308  0.1483
18129TIP3    H175878   0.004   6.591  12.062  1.2038  0.9822 -1.4093
18129TIP3    H275879   0.126   6.506  12.035  2.0239  1.9919 -0.9171
18130TIP3   OH275880   2.367   2.624   0.918  0.2255  0.5488  0.4005
18130TIP3    H175881   2.312   2.606   0.995  0.2472  1.5157  0.6488
18130TIP3    H275882   2.379   2.719   0.919  1.7461  0.3696  0.2448
18131TIP3   OH275883   1.527   3.349   0.384 -0.4269  0.9093 -0.2959
18131TIP3    H175884   1.491   3.400   0.457  0.8584  1.8808 -0.3169
18131TIP3    H275885   1.574   3.277   0.426 -0.3306  1.0379 -0.1791
18132TIP3   OH275886   2.450   2.165  11.191 -0.0905 -0.8800 -0.5368
18132TIP3    H175887   2.532   2.148  11.145  0.2961 -1.2826  0.2892
18132TIP3    H275888   2.382   2.151  11.125  0.5608  0.8891 -1.6078
18133TIP3   OH275889   3.167   1.009   4.158  0.0347 -0.3741  0.3652
18133TIP3    H175890   3.191   0.978   4.246 -1.2317 -0.0806  0.8286
18133TIP3    H275891   3.214   0.951   4.098  0.9479 -0.5462  1.2441
18134TIP3   OH275892   3.809   4.724   4.139 -0.2232 -0.0614 -0.2956
18134TIP3    H175893   3.897   4.744   4.172 -0.3635  1.7770 -1.0008
18134TIP3    H275894   3.813   4.747   4.046 -0.1300 -4.2233 -1.4204
18135TIP3   OH275895   1.164   0.367   0.635 -0.1064  0.0480  0.1375
18135TIP3    H175896   1.163   0.364   0.539  0.7590  0.3442  0.1115
18135TIP3    H275897   1.108   0.441   0.657 -2.3392 -1.5650 -0.0437
18136TIP3   OH275898   4.541   2.456  10.765  0.2288 -0.3284 -0.2126
18136TIP3    H175899   4.593   2.425  10.691 -0.9698 -2.0173 -0.3840
18136TIP3    H275900   4.553   2.551  10.765  2.4966 -0.5919 -0.8437
18137TIP3   OH275901   5.091   0.173  13.507  0.0395 -0.0348  0.5744
18137TIP3    H175902   5.087   0.158  13.602 -1.3265  2.0623  0.8809
18137TIP3    H275903   5.175   0.217  13.494  0.8290 -1.4975  0.6162
18138TIP3   OH275904   5.121   2.593  11.062 -0.0776  0.0292 -0.6827
18138TIP3    H175905   5.142   2.640  10.981  0.2446  1.0239 -0.0363
18138TIP3    H275906   5.191   2.529  11.071 -0.6578 -0.7575 -1.7075
18139TIP3   OH275907   1.964   3.318   3.667 -0.2589 -0.4137 -0.8631
18139TIP3    H175908   1.999   3.229   3.679 -0.1448 -0.1743  0.7199
18139TIP3    H275909   2.011   3.352   3.592  0.7962 -1.1641 -0.5615
18140TIP3   OH275910   4.551   5.591  14.614 -0.3298 -0.3576 -0.0475
18140TIP3    H175911   4.468   5.584  14.662  0.0390 -1.8885  0.4090
18140TIP3    H275912   4.524   5.607  14.523 -1.0445  1.8371  0.5329
18141TIP3   OH275913   2.238   4.383   1.981  0.2538 -0.1562 -0.4552
18141TIP3    H175914   2.312   4.327   2.007  0.2587  0.8326  1.7302
18141TIP3    H275915   2.257   4.468   2.020 -1.9623  0.1583  0.0099
18142TIP3   OH275916   5.297   1.861  14.053  0.8441 -0.2253  0.2760
18142TIP3    H175917   5.210   1.822  14.050  0.0191  1.3058  2.8472
18142TIP3    H275918   5.352   1.792  14.091  0.5883 -0.9144 -0.6052
18143TIP3   OH275919   3.322   2.282   3.616 -0.3834  0.3300  0.3271
18143TIP3    H175920   3.327   2.353   3.552 -0.0524  0.2309  0.2440
18143TIP3    H275921   3.377   2.213   3.580 -1.2288 -0.2274  0.0791
18144TIP3   OH275922   4.242   6.214   3.857  0.9181  0.0342  0.5478
18144TIP3    H175923   4.148   6.202   3.868  0.6668  0.3976 -1.0990
18144TIP3    H275924   4.282   6.160   3.925 -0.4330 -2.0838 -0.3200
18145TIP3   OH275925   3.300   5.289  14.888  0.4116 -1.1558  0.0912
18145TIP3    H175926   3.218   5.315  14.929  0.4400 -0.9370  0.0107
18145TIP3    H275927   3.368   5.333  14.940  0.3103  1.7439 -2.1015
18146TIP3   OH275928   1.658   1.028   0.746  0.1444  0.2359  0.2430
18146TIP3    H175929   1.712   1.046   0.823 -2.9019 -0.4921  2.6539
18146TIP3    H275930   1.621   0.941   0.762 -0.8029  0.1976 -1.8980
18147TIP3   OH275931   1.942   2.186   6.076  0.2255  0.0498 -0.2455
18147TIP3    H175932   1.916   2.098   6.050  0.2241 -0.0608  0.1161
18147TIP3    H275933   2.031   2.176   6.109  0.0254  0.0820  0.3173
18148TIP3   OH275934   0.339   4.340   5.591  1.3787 -0.4970  0.3884
18148TIP3    H175935   0.379   4.402   5.531 -2.2538  0.2099 -1.4357
18148TIP3    H275936   0.298   4.393   5.658  1.4424 -1.0950  0.9107
18149TIP3   OH275937   6.111   1.833   2.327 -0.7952 -0.0897  0.1862
18149TIP3    H175938   6.031   1.781   2.327 -1.0981  0.3528 -1.2129
18149TIP3    H275939   6.087   1.914   2.282  0.0131  0.7333  1.2143
18150TIP3   OH275940   0.521   1.968   3.630 -0.4132  0.7262 -0.5575
18150TIP3    H175941   0.594   1.909   3.613  1.5710  2.4424  1.7005
18150TIP3    H275942   0.448   1.909   3.651  0.9993 -0.9897 -0.2748
18151TIP3   OH275943   5.642   4.171  11.870  0.4699  0.0556  0.4410
18151TIP3    H175944   5.580   4.215  11.928  1.0484  0.6581  0.6052
18151TIP3    H275945   5.590   4.104  11.826 -0.3013  0.5697  0.5646
18152TIP3   OH275946   2.539   3.417   1.991 -0.2764 -0.1075  0.4089
18152TIP3    H175947   2.551   3.446   2.081  0.5261  2.5301 -0.4943
18152TIP3    H275948   2.503   3.329   1.999  0.9633 -0.4200  3.2945
18153TIP3   OH275949   1.277   2.149   1.103  0.8839  0.2721  0.4845
18153TIP3    H175950   1.350   2.160   1.042  1.0764  0.0481  0.6767
18153TIP3    H275951   1.316   2.114   1.182  0.1798 -2.7669 -0.4182
18154TIP3   OH275952   2.175   3.703   3.097 -0.1482  0.3060 -0.2969
18154TIP3    H175953   2.255   3.674   3.141  0.9141  2.2047 -0.8981
18154TIP3    H275954   2.109   3.703   3.165  1.1174  1.7000  0.9898
18155TIP3   OH275955   4.288   5.409  12.493 -0.0959 -0.1612  0.0606
18155TIP3    H175956   4.339   5.347  12.442 -0.3176 -1.2353  1.1176
18155TIP3    H275957   4.349   5.442  12.560  0.3467  1.6425 -1.2002
18156TIP3   OH275958   4.711   5.582  16.463 -0.2320  0.6774  0.2638
18156TIP3    H175959   4.785   5.577  16.403 -0.0329  0.0957  0.5545
18156TIP3    H275960   4.641   5.533  16.419 -0.2947  0.8269  0.1990
18157TIP3   OH275961   5.618   0.817  13.880  0.6283  0.6081 -0.4459
18157TIP3    H175962   5.634   0.910  13.897 -1.7867  0.8877  0.4133
18157TIP3    H275963   5.613   0.777  13.967 -3.7365  0.6496 -0.5615
18158TIP3   OH275964   5.570   6.516  13.046 -0.2111  0.1853 -0.1235
18158TIP3    H175965   5.602   6.524  12.956 -0.1354 -0.3111 -0.1383
18158TIP3    H275966   5.533   6.602  13.065 -0.4447  0.2184 -0.7134
18159TIP3   OH275967   0.568   3.511  13.021 -0.2779 -0.4128 -0.4508
18159TIP3    H175968   0.576   3.549  13.108  1.3418 -0.5321 -0.5451
18159TIP3    H275969   0.540   3.420  13.036  2.1445 -1.0936  0.0475
18160TIP3   OH275970   5.139   0.753  14.023 -0.6514  0.5165 -0.4522
18160TIP3    H175971   5.203   0.743  14.094  0.8612 -3.0196 -2.1919
18160TIP3    H275972   5.055   0.755  14.068  0.3119 -0.7451  1.5115
18161TIP3   OH275973   6.485   1.336   4.424 -0.1340  0.2269  0.4404
18161TIP3    H175974   6.494   1.272   4.354  2.5418  2.5578 -1.4582
18161TIP3    H275975   6.568   1.333   4.471 -0.7320  0.9016  1.5635
18162TIP3   OH275976   2.102   4.933   1.945 -0.2108 -0.0739 -0.3122
18162TIP3    H175977   2.161   5.009   1.943  1.3255 -1.0390  3.4436
18162TIP3    H275978   2.161   4.858   1.958 -1.9986 -1.4942 -0.2333
18163TIP3   OH275979   6.156   1.953  11.623  0.4858 -0.3976 -0.0745
18163TIP3    H175980   6.172   2.036  11.578 -1.9744 -0.0066 -0.3217
18163TIP3    H275981   6.062   1.938  11.611  0.3635 -1.7724  2.4359
18164TIP3   OH275982   3.751   4.409  13.459 -0.2046  0.6417 -0.7697
18164TIP3    H175983   3.657   4.407  13.441 -0.2016 -0.0358 -0.7081
18164TIP3    H275984   3.788   4.459  13.386 -0.8470  2.7487  0.3003
18165TIP3   OH275985   6.688   3.735  14.779 -0.2059  0.0336  0.1661
18165TIP3    H175986   6.637   3.800  14.731 -0.0539  0.2150  0.2483
18165TIP3    H275987   6.779   3.767  14.774 -0.1335 -0.1658  0.2153
18166TIP3   OH275988   6.762   1.646  11.613  0.3888  0.4100  0.1578
18166TIP3    H175989   6.788   1.682  11.698 -1.6277  0.2893  0.8583
18166TIP3    H275990   6.696   1.580  11.634 -1.0091  1.2143 -1.5651
18167TIP3   OH275991   4.406   3.098  11.058 -0.4775 -0.1784  0.0373
18167TIP3    H175992   4.351   3.026  11.091  0.5179 -0.3426  1.3940
18167TIP3    H275993   4.344   3.160  11.020 -1.5283 -0.7703  0.7554
18168TIP3   OH275994   1.962   5.495   1.299 -0.4620  0.2733  0.1608
18168TIP3    H175995   1.998   5.446   1.225  1.0538  0.6911  0.6143
18168TIP3    H275996   1.976   5.587   1.278 -3.3890  0.5867 -0.7241
18169TIP3   OH275997   1.223   6.147   3.975 -0.1805  0.0835 -0.2591
18169TIP3    H175998   1.190   6.155   3.886 -1.4470 -1.5871  0.0477
18169TIP3    H275999   1.302   6.093   3.966 -1.2641 -1.5368 -0.1669
18170TIP3   OH276000   2.562   4.731   1.806  0.1092  0.1093 -0.3207
18170TIP3    H176001   2.483   4.743   1.753  0.8311 -0.6229 -1.5785
18170TIP3    H276002   2.594   4.820   1.823  0.2313  0.3217 -1.6647
18171TIP3   OH276003   6.808   0.463  16.735  0.3876  0.7864 -0.0068
18171TIP3    H176004   6.817   0.476  16.829  0.1755  0.3395  0.0736
18171TIP3    H276005   6.892   0.493  16.699  0.7091  0.3776  0.3868
18172TIP3   OH276006   1.297   1.487  11.337 -0.0751  0.4537 -0.0137
18172TIP3    H176007   1.276   1.506  11.245 -0.2308  0.1673 -0.0371
18172TIP3    H276008   1.270   1.396  11.350  0.0467  0.4594  0.2861
18173TIP3   OH276009   1.377   2.703   2.747  0.1831  0.0676 -0.3217
18173TIP3    H176010   1.349   2.740   2.831  3.6534  0.1636  0.8827
18173TIP3    H276011   1.374   2.608   2.760  0.7858  0.0836 -0.0600
18174TIP3   OH276012   3.060   0.657   1.380 -0.4234 -0.1721 -0.4141
18174TIP3    H176013   3.110   0.670   1.461  0.6401  3.7247 -1.5536
18174TIP3    H276014   2.969   0.648   1.409  0.2494 -1.6465  1.3383
18175TIP3   OH276015   0.507   4.444  11.950 -0.0972 -0.1368 -0.8232
18175TIP3    H176016   0.528   4.537  11.954 -2.9493  0.5140  0.3950
18175TIP3    H276017   0.509   4.415  12.041 -1.8595 -0.6010 -0.9143
18176TIP3   OH276018   1.789   3.921   5.740 -0.0008  0.0635 -0.5121
18176TIP3    H176019   1.877   3.955   5.722  0.9963 -0.4400  3.0027
18176TIP3    H276020   1.776   3.853   5.674  1.7215  0.9925 -1.8682
18177TIP3   OH276021   2.099   2.417   0.131 -0.9195  0.0685 -0.3468
18177TIP3    H176022   2.177   2.367   0.106 -1.4626 -1.1780  0.3928
18177TIP3    H276023   2.054   2.435   0.048 -0.3195 -0.0246 -0.6909
18178TIP3   OH276024   0.248   0.947   0.130 -0.5740  0.5961  0.1449
18178TIP3    H176025   0.185   0.886   0.092 -2.1487  0.3714  2.9765
18178TIP3    H276026   0.332   0.923   0.090 -1.2007 -3.2663  0.9756
18179TIP3   OH276027   2.682   3.483  15.010 -0.0311 -0.6139  0.0454
18179TIP3    H176028   2.622   3.459  15.080 -2.1071 -1.1896 -1.8625
18179TIP3    H276029   2.732   3.404  14.992 -1.6945 -1.4239 -1.2010
18180TIP3   OH276030   2.734   4.397   6.806  0.1638  0.1107 -0.2543
18180TIP3    H176031   2.802   4.402   6.738 -0.6425 -1.0607 -1.1625
18180TIP3    H276032   2.731   4.304   6.830  1.7091  0.7791  2.7120
18181TIP3   OH276033   6.291   1.652   1.137 -0.0429  0.0067  0.0469
18181TIP3    H176034   6.250   1.709   1.201  2.8720  1.1451  0.9763
18181TIP3    H276035   6.381   1.685   1.129  0.6431 -2.2139 -2.0938
18182TIP3   OH276036   4.253   2.902   3.445  0.3665  0.3733  0.8741
18182TIP3    H176037   4.208   2.829   3.487 -1.9229  1.2522  0.0877
18182TIP3    H276038   4.256   2.970   3.512  1.5734 -0.0731  1.2827
18183TIP3   OH276039   1.550   5.486  13.680 -0.4935 -0.7358  0.3088
18183TIP3    H176040   1.478   5.446  13.728 -2.0160  0.2663 -1.0644
18183TIP3    H276041   1.588   5.550  13.740  0.3975 -2.4820  1.6488
18184TIP3   OH276042   2.088   0.380   6.177  0.6321  0.7460 -0.0531
18184TIP3    H176043   2.177   0.366   6.145  0.5082 -2.2602  0.7461
18184TIP3    H276044   2.033   0.326   6.120 -0.3947  0.8003  0.8596
18185TIP3   OH276045   0.112   2.465   3.025  0.0975  0.7900 -0.7276
18185TIP3    H176046   0.102   2.370   3.011  0.1291  0.8656 -1.3035
18185TIP3    H276047   0.204   2.475   3.048 -0.0911  0.5930  0.1197
18186TIP3   OH276048   1.122   6.113   3.207 -0.8722 -0.0263  0.0370
18186TIP3    H176049   1.142   6.202   3.180  0.9054 -0.7613 -1.1833
18186TIP3    H276050   1.078   6.073   3.132  1.7000 -1.2773 -0.8597
18187TIP3   OH276051   3.266   5.192   0.820 -0.0227 -0.6003 -0.1672
18187TIP3    H176052   3.359   5.170   0.821 -0.0427 -0.6957 -0.3345
18187TIP3    H276053   3.259   5.260   0.752  0.3859  1.4934  1.8231
18188TIP3   OH276054   1.442   5.379   0.246  0.2345 -0.3108 -1.0225
18188TIP3    H176055   1.477   5.412   0.329  0.6183  0.1957 -1.3839
18188TIP3    H276056   1.413   5.458   0.200  0.9956 -0.4985 -1.8247
18189TIP3   OH276057   4.026   6.242   0.186 -0.0847  0.7548 -0.0575
18189TIP3    H176058   4.014   6.193   0.105 -1.0833 -0.3021  0.7004
18189TIP3    H276059   4.030   6.333   0.159  1.0301  0.3182 -1.4227
18190TIP3   OH276060   3.082   3.755  13.465  0.1319  0.1905 -0.1834
18190TIP3    H176061   3.039   3.672  13.445 -0.9224  0.5530  0.4962
18190TIP3    H276062   3.029   3.820  13.418  1.4394  0.4079 -1.3912
18191TIP3   OH276063   1.344   2.143  16.382  0.5064 -0.2357 -0.6865
18191TIP3    H176064   1.260   2.139  16.337  1.5712 -1.9903 -2.6219
18191TIP3    H276065   1.355   2.236  16.405 -2.3649 -0.1465  0.4802
18192TIP3   OH276066   6.534   1.899  14.430 -0.3496  0.6735  0.0740
18192TIP3    H176067   6.627   1.878  14.437 -0.6595 -0.8381 -0.2639
18192TIP3    H276068   6.495   1.825  14.384 -2.1451  0.0569  2.4551
18193TIP3   OH276069   0.344   6.632   3.782 -0.4452 -0.2633  0.1836
18193TIP3    H176070   0.362   6.596   3.869 -0.6287 -1.7862 -0.4046
18193TIP3    H276071   0.352   6.558   3.723  0.2110  0.8717 -1.1796
18194TIP3   OH276072   3.114   3.390  14.546 -0.5313  0.2170 -0.0052
18194TIP3    H176073   3.159   3.317  14.588 -1.6250 -0.3542  0.2002
18194TIP3    H276074   3.021   3.367  14.551 -0.8101  1.0691 -0.9794
18195TIP3   OH276075   2.873   5.172   1.392  0.5599 -0.0827  0.5957
18195TIP3    H176076   2.894   5.243   1.452  0.8482  1.9963 -1.8674
18195TIP3    H276077   2.957   5.127   1.377  1.1281  1.3553 -0.6628
18196TIP3   OH276078   5.402   4.858  12.377  0.1688  0.0706  0.6123
18196TIP3    H176079   5.444   4.827  12.457 -1.3899 -0.3670  1.2653
18196TIP3    H276080   5.318   4.894  12.405 -0.8390 -1.0079 -0.9280
18197TIP3   OH276081   5.520   3.851   5.020 -0.4069 -0.3741  0.2028
18197TIP3    H176082   5.502   3.931   4.971  0.9483  0.2230  0.6548
18197TIP3    H276083   5.591   3.875   5.079 -0.5758 -1.6802  0.9486
18198TIP3   OH276084   4.957   5.340   5.676  0.0201  0.2807  0.0890
18198TIP3    H176085   5.018   5.300   5.614 -0.9540 -0.3786 -0.4575
18198TIP3    H276086   4.872   5.332   5.634 -0.6420 -0.1503  1.5028
18199TIP3   OH276087   2.432   6.494   2.093  0.0033  0.1496  0.7115
18199TIP3    H176088   2.512   6.453   2.124  0.9400 -0.3733 -2.2145
18199TIP3    H276089   2.428   6.578   2.139  1.5515 -0.3782  1.8388
18200TIP3   OH276090   0.459   0.129  12.968 -0.5554 -0.1953 -0.1814
18200TIP3    H176091   0.409   0.085  13.037  0.4984 -0.1940  0.6005
18200TIP3    H276092   0.406   0.118  12.889 -0.8909 -1.8343  0.2516
18201TIP3   OH276093   2.729   2.625  16.109  0.5423  0.0767  0.0782
18201TIP3    H176094   2.776   2.682  16.049  0.5285 -0.4890 -0.4739
18201TIP3    H276095   2.784   2.622  16.188 -0.0363  1.7728  0.5521
18202TIP3   OH276096   4.374   5.532   5.112 -0.3809  0.0070 -0.1297
18202TIP3    H176097   4.466   5.506   5.122 -0.5575 -0.8717 -0.6756
18202TIP3    H276098   4.347   5.492   5.030 -1.4569 -0.3425  0.3814
18203TIP3   OH276099   5.714   5.802   2.076  0.0872 -0.7862  0.2779
18203TIP3    H176100   5.720   5.733   2.010  2.3494 -2.3179  1.9912
18203TIP3    H276101   5.720   5.755   2.160 -0.2597  1.3259  1.5232
18204TIP3   OH276102   6.391   1.895   2.788 -0.0615 -0.2659  0.4110
18204TIP3    H176103   6.366   1.952   2.861  0.1578 -0.6485  0.7936
18204TIP3    H276104   6.486   1.904   2.782 -0.1693  0.3404 -0.3184
18205TIP3   OH276105   3.366   2.012   4.875 -0.7383 -0.0862 -0.7277
18205TIP3    H176106   3.389   2.105   4.868  0.8077 -0.3926  0.0645
18205TIP3    H276107   3.384   1.991   4.967  1.6060 -1.8599 -1.5556
18206TIP3   OH276108   5.332   6.667  11.330  0.0027 -0.2530 -0.3030
18206TIP3    H176109   5.393   6.603  11.293  0.4869 -0.3114  0.5715
18206TIP3    H276110   5.351   6.748  11.285  0.0889 -0.4914 -0.6948
18207TIP3   OH276111   2.811   4.163   2.165  0.5649  0.5741  0.0080
18207TIP3    H176112   2.809   4.104   2.089  0.7943  2.0060 -1.1139
18207TIP3    H276113   2.840   4.107   2.237 -1.0233 -1.1574 -0.6412
18208TIP3   OH276114   4.609   2.389  14.125 -0.6557 -0.4294 -0.6412
18208TIP3    H176115   4.620   2.472  14.171 -3.2830 -1.9365  2.9076
18208TIP3    H276116   4.629   2.323  14.191 -1.6349 -2.6511 -2.5212
18209TIP3   OH276117   0.614   4.226  11.004  0.1126  0.0651 -0.0734
18209TIP3    H176118   0.637   4.168  11.077 -0.9095 -1.0708 -0.6259
18209TIP3    H276119   0.520   4.211  10.991  0.3897 -0.0915 -1.9358
18210TIP3   OH276120   2.348   3.301  12.953 -0.2218 -0.4341  0.4320
18210TIP3    H176121   2.264   3.299  12.906 -0.1978  0.0761  0.3572
18210TIP3    H276122   2.329   3.351  13.033 -0.2592 -1.3004  0.9643
18211TIP3   OH276123   4.369   4.266   4.848 -0.2460  0.2865  0.1012
18211TIP3    H176124   4.344   4.328   4.779  0.4811 -0.1519 -0.5636
18211TIP3    H276125   4.460   4.244   4.829  0.9396  2.4234  2.9152
18212TIP3   OH276126   0.707   1.045   6.640 -0.1532 -0.0134 -0.5004
18212TIP3    H176127   0.756   1.108   6.693  0.6465 -1.7211  0.8388
18212TIP3    H276128   0.630   1.024   6.693 -0.0446 -0.7053 -0.6104
18213TIP3   OH276129   1.277   4.458   1.902 -0.0481  0.7543 -0.1339
18213TIP3    H176130   1.350   4.397   1.914 -0.0619  1.1222  1.9889
18213TIP3    H276131   1.317   4.545   1.912 -0.4836  1.0085 -0.6052
18214TIP3   OH276132   1.870   5.727   6.679  0.1338  0.0666 -0.5360
18214TIP3    H176133   1.806   5.661   6.706  1.3149 -0.2272  1.6144
18214TIP3    H276134   1.949   5.678   6.657  0.3758  0.6023 -0.8802
18215TIP3   OH276135   0.398   1.382  11.173  0.2508 -0.2529 -0.4702
18215TIP3    H176136   0.472   1.374  11.232 -2.2583  0.4247  2.9385
18215TIP3    H276137   0.325   1.340  11.219 -2.3882  2.4148 -2.0057
18216TIP3   OH276138   1.769   3.915   2.514 -0.5228 -0.6392 -0.7954
18216TIP3    H176139   1.831   3.894   2.443  1.2100  1.4350  0.0277
18216TIP3    H276140   1.784   3.848   2.580  0.9064 -0.1353 -0.5923
18217TIP3   OH276141   5.896   4.938   5.607 -0.5852 -0.1414 -0.5471
18217TIP3    H176142   5.966   4.873   5.614 -0.0338  0.5684  0.5985
18217TIP3    H276143   5.926   4.998   5.538  1.1853  1.6520  1.7087
18218TIP3   OH276144   0.710   2.927   0.366  0.3730  0.4151 -0.4906
18218TIP3    H176145   0.665   2.855   0.322 -0.4852 -0.3837  1.6553
18218TIP3    H276146   0.642   2.993   0.381  0.4146  0.2206  0.6064
18219TIP3   OH276147   3.693   1.660  10.911 -0.6665 -0.5941  0.0749
18219TIP3    H176148   3.690   1.577  10.957 -1.1685 -0.4018  0.3894
18219TIP3    H276149   3.608   1.701  10.928 -0.1058  0.3707  0.6501
18220TIP3   OH276150   1.783   0.603   1.254 -0.5611 -0.1829 -0.0932
18220TIP3    H176151   1.831   0.625   1.334 -1.6416  0.7488  0.3177
18220TIP3    H276152   1.813   0.667   1.189  1.5163 -1.9434 -0.9202
18221TIP3   OH276153   4.301   4.438  14.300 -0.2785 -0.2102  0.0542
18221TIP3    H176154   4.227   4.488  14.334  0.0183  1.0165 -1.0445
18221TIP3    H276155   4.342   4.497  14.236  0.2151 -1.7748 -1.1052
18222TIP3   OH276156   1.600   4.500   4.857 -0.1683 -0.2263 -0.0086
18222TIP3    H176157   1.610   4.406   4.840  0.7773 -0.1572  0.0964
18222TIP3    H276158   1.660   4.542   4.795 -2.8918  0.5080 -2.2147
18223TIP3   OH276159   4.889   6.048  11.935  0.5099 -0.0361 -0.1768
18223TIP3    H176160   4.982   6.072  11.940  0.4647  0.1173 -0.0862
18223TIP3    H276161   4.844   6.120  11.978  0.2492  0.4816 -1.2950
18224TIP3   OH276162   3.981   1.583   3.032 -0.4192 -0.1198 -0.2855
18224TIP3    H176163   4.027   1.511   3.074  1.1201  0.7835 -0.3869
18224TIP3    H276164   3.889   1.567   3.050  0.0651 -0.9752  1.4698
18225TIP3   OH276165   3.908   0.663  16.043  0.0808  0.1416 -0.4131
18225TIP3    H176166   3.858   0.582  16.035  0.0398  0.2406 -1.1126
18225TIP3    H276167   3.999   0.635  16.037  0.1928 -0.1928  2.0055
18226TIP3   OH276168   6.493   0.593   2.072 -0.0318  1.2448  0.7005
18226TIP3    H176169   6.556   0.585   2.001 -0.7433 -0.6272  0.2707
18226TIP3    H276170   6.407   0.586   2.030 -0.4440 -0.6264  1.8247
18227TIP3   OH276171   1.317   6.616   1.780  0.0117 -0.4328  0.1289
18227TIP3    H176172   1.252   6.686   1.785  1.1786  0.6108  1.2679
18227TIP3    H276173   1.400   6.662   1.766  0.5393 -1.7320 -1.1472
18228TIP3   OH276174   4.890   4.603   5.861  0.0865  0.8955  0.6887
18228TIP3    H176175   4.869   4.668   5.929 -0.6652  2.0197 -0.5982
18228TIP3    H276176   4.839   4.630   5.785  0.4957 -0.6753 -0.1696
18229TIP3   OH276177   5.162   3.553   5.469  0.1853 -0.1315  0.8908
18229TIP3    H176178   5.071   3.561   5.496  0.2439 -0.1792  1.1051
18229TIP3    H276179   5.188   3.641   5.445 -0.8067 -0.5747 -2.0599
18230TIP3   OH276180   2.857   6.187  12.385 -0.3711  0.3886 -0.2277
18230TIP3    H176181   2.940   6.230  12.362 -0.2916 -0.1779 -1.0465
18230TIP3    H276182   2.846   6.120  12.317 -1.0167 -0.1800  0.4412
18231TIP3   OH276183   3.034   5.608   4.603  0.0793  0.6195  0.1923
18231TIP3    H176184   3.089   5.552   4.549  0.4276 -0.3501  1.5286
18231TIP3    H276185   3.003   5.676   4.543  0.3669 -0.4856 -1.2445
18232TIP3   OH276186   3.340   5.322   5.382  0.3047  0.5762 -1.0685
18232TIP3    H176187   3.431   5.297   5.397  0.5377  1.1729 -1.4565
18232TIP3    H276188   3.322   5.294   5.292 -0.0329  0.0584 -0.8405
18233TIP3   OH276189   4.318   4.744   4.830 -0.2622  0.4565  0.3489
18233TIP3    H176190   4.327   4.837   4.812 -2.6228  0.7964  0.7825
18233TIP3    H276191   4.344   4.701   4.748 -1.8635  1.6087 -0.7914
18234TIP3   OH276192   2.705   1.789   1.795 -0.0609 -0.1700 -0.4233
18234TIP3    H176193   2.697   1.883   1.812 -0.4959 -0.0094 -1.4394
18234TIP3    H276194   2.740   1.784   1.706 -0.1862 -0.9761 -0.4339
18235TIP3   OH276195   0.106   2.842   2.337 -0.2776  0.6193  0.5974
18235TIP3    H176196   0.020   2.849   2.296 -0.5005  0.2356  0.9975
18235TIP3    H276197   0.143   2.761   2.301  0.1461  1.0639  0.0084
18236TIP3   OH276198   6.062   2.259  12.984 -0.2485 -0.7602  0.1683
18236TIP3    H176199   6.049   2.166  12.966 -1.7825 -0.8194  1.4314
18236TIP3    H276200   6.042   2.303  12.902 -0.7664 -1.4595 -0.0836
18237TIP3   OH276201   3.567   3.607   0.500  0.2189  0.0898 -0.0739
18237TIP3    H176202   3.554   3.676   0.565  2.0408 -0.8263  1.3203
18237TIP3    H276203   3.660   3.612   0.478  0.2929 -1.6338 -0.2344
18238TIP3   OH276204   0.800   0.766  16.169 -0.5645  0.2118  0.0533
18238TIP3    H176205   0.874   0.709  16.193 -0.1731  0.2358 -1.0759
18238TIP3    H276206   0.749   0.773  16.249  0.5156 -0.0308  0.7802
18239TIP3   OH276207   1.339   0.943   3.163 -0.9066  0.1607 -0.3034
18239TIP3    H176208   1.356   0.971   3.072 -0.8531  0.2778 -0.2574
18239TIP3    H276209   1.393   1.001   3.216 -0.7835 -0.0430 -0.2084
18240TIP3   OH276210   4.180   4.843  13.709  0.3798  0.2931  0.5419
18240TIP3    H176211   4.190   4.840  13.804 -1.9033 -2.2212  0.7914
18240TIP3    H276212   4.234   4.771  13.676 -0.8782 -0.5128  0.1918
18241TIP3   OH276213   2.704   1.469  16.480 -0.6299 -0.2287  0.0814
18241TIP3    H176214   2.727   1.520  16.557 -6.5170  1.6448  0.8453
18241TIP3    H276215   2.688   1.381  16.513 -1.8341  0.2635  0.8767
18242TIP3   OH276216   2.673   5.692  13.064  0.0889 -0.7072  0.3155
18242TIP3    H176217   2.613   5.744  13.118  0.9868 -2.8217  3.4887
18242TIP3    H276218   2.760   5.729  13.082  0.3884 -1.4222  0.3748
18243TIP3   OH276219   6.790   2.065  13.379 -0.7995  0.4128  0.9991
18243TIP3    H176220   6.851   2.138  13.365  0.0133 -0.2688  0.9811
18243TIP3    H276221   6.804   2.007  13.304 -0.6692 -0.3083  1.5809
18244TIP3   OH276222   6.170   1.284  15.822 -0.5961 -0.1471  0.0717
18244TIP3    H176223   6.095   1.257  15.769 -1.4121  0.0365  1.1180
18244TIP3    H276224   6.145   1.262  15.912 -0.6750  2.6951  0.7840
18245TIP3   OH276225   3.606   2.573   4.350  0.1509 -0.6833  0.1148
18245TIP3    H176226   3.615   2.478   4.347  1.6193 -0.5319 -0.6715
18245TIP3    H276227   3.532   2.592   4.292  0.3002 -1.2930 -0.2827
18246TIP3   OH276228   0.024   1.422  16.516 -0.8466  0.0487  0.0297
18246TIP3    H176229  -0.023   1.450  16.437  0.2263  1.3937 -0.1583
18246TIP3    H276230   0.044   1.330  16.501 -1.6705 -0.0024 -0.7644
18247TIP3   OH276231   1.248   2.564  12.547  0.0884 -0.2864  0.3544
18247TIP3    H176232   1.326   2.620  12.555 -0.9607  1.1617  0.6633
18247TIP3    H276233   1.257   2.522  12.462  0.4098  1.1198 -0.3257
18248TIP3   OH276234   3.625   1.614  16.529 -0.1067  0.8060 -0.1030
18248TIP3    H176235   3.529   1.618  16.535 -0.0886  0.6708  0.2980
18248TIP3    H276236   3.643   1.618  16.435 -0.6632 -2.1314 -0.4007
18249TIP3   OH276237   3.881   0.831   5.308 -0.0145  0.0656  0.4700
18249TIP3    H176238   3.886   0.893   5.381 -0.8713 -2.2782  2.5848
18249TIP3    H276239   3.965   0.785   5.309 -0.4394 -0.7186  0.6736
18250TIP3   OH276240   1.774   0.960  14.729  0.4284 -0.0889  0.5322
18250TIP3    H176241   1.690   1.002  14.711  1.1265  0.8278 -0.6412
18250TIP3    H276242   1.808   1.006  14.806 -0.4747 -0.9705  1.4792
18251TIP3   OH276243   2.800   3.971  13.043  0.1450 -0.4686 -0.1559
18251TIP3    H176244   2.881   3.933  13.077  0.1379  2.0557  2.9777
18251TIP3    H276245   2.735   3.902  13.053  0.8887 -0.8910  2.0109
18252TIP3   OH276246   3.642   0.144  16.033  0.0531 -0.0509 -0.4049
18252TIP3    H176247   3.662   0.135  16.126  0.3801 -1.5936 -0.6230
18252TIP3    H276248   3.555   0.185  16.031 -0.4842 -1.1474  0.5864
18253TIP3   OH276249   5.705   1.363   1.188  0.2233 -0.1191 -0.2248
18253TIP3    H176250   5.682   1.286   1.137 -1.5010 -0.9130  1.6701
18253TIP3    H276251   5.783   1.336   1.238  0.5667 -0.0964 -0.7466
18254TIP3   OH276252   3.205   2.834  12.538  0.2900 -0.0375  0.3630
18254TIP3    H176253   3.205   2.923  12.573 -0.6937  1.1275 -2.4496
18254TIP3    H276254   3.113   2.810  12.533  0.6096 -2.3997  3.7723
18255TIP3   OH276255   3.020   3.697  11.452  0.5070  0.7117  0.2699
18255TIP3    H176256   3.006   3.614  11.499 -1.4195  1.8574  1.7717
18255TIP3    H276257   2.938   3.712  11.406  1.5928  0.7662 -1.6663
18256TIP3   OH276258   5.164   6.792   0.680 -0.0678  0.0791 -0.8469
18256TIP3    H176259   5.176   6.698   0.694 -0.5147 -0.2041 -2.2427
18256TIP3    H276260   5.069   6.803   0.676 -0.1007  1.0286  2.0310
18257TIP3   OH276261   3.586   0.478   3.516 -0.4660 -0.1361 -0.1405
18257TIP3    H176262   3.663   0.429   3.487 -0.8835 -0.7182 -0.2736
18257TIP3    H276263   3.559   0.435   3.597  0.9275  1.7272  1.3590
18258TIP3   OH276264   5.975   2.311  17.009 -0.2643  0.0699 -0.0720
18258TIP3    H176265   5.903   2.374  17.008  0.2571  0.6365 -1.0935
18258TIP3    H276266   5.950   2.249  17.079 -0.4672  1.7286  1.3552
18259TIP3   OH276267   1.090   6.147   3.723  0.3609 -0.1041 -0.3532
18259TIP3    H176268   1.053   6.106   3.646 -0.9923  0.9815 -0.2959
18259TIP3    H276269   1.103   6.238   3.698 -0.3348  0.3111  0.7861
18260TIP3   OH276270   4.844   0.047   6.447 -0.0852  0.0339  0.1183
18260TIP3    H176271   4.755   0.025   6.473  0.0472 -0.5416  0.0953
18260TIP3    H276272   4.849   0.142   6.454 -0.8266  0.1003 -0.2895
18261TIP3   OH276273   2.416   3.059   1.457  0.0325 -0.5476 -0.5529
18261TIP3    H176274   2.343   3.018   1.411 -1.4858 -1.4833  2.5173
18261TIP3    H276275   2.430   3.142   1.412 -1.8728 -1.0561 -2.1569
18262TIP3   OH276276   1.770   0.368  15.502 -0.3633  0.2263  0.2762
18262TIP3    H176277   1.756   0.273  15.503 -4.3104  0.7212 -0.0713
18262TIP3    H276278   1.759   0.392  15.410 -0.4840  1.1688  0.5357
18263TIP3   OH276279   5.492   1.981  12.056  0.3034 -0.0939 -0.1056
18263TIP3    H176280   5.459   1.947  12.139  1.3976  0.5664  0.6266
18263TIP3    H276281   5.468   2.074  12.058  2.6164  0.5293  0.6989
18264TIP3   OH276282   3.560   4.044  13.464  0.1247 -0.1938  0.3727
18264TIP3    H176283   3.472   4.050  13.427  0.2700  0.0217  0.0573
18264TIP3    H276284   3.565   4.116  13.527 -0.1941 -0.6862  0.9745
18265TIP3   OH276285   1.761   2.303  12.663 -0.4389 -0.4671  0.4161
18265TIP3    H176286   1.840   2.317  12.611 -1.6958  1.0305 -1.1351
18265TIP3    H276287   1.756   2.208  12.673 -0.2359 -0.8077 -2.3448
18266TIP3   OH276288   2.948   5.779   2.263 -0.1556  0.2594 -0.3914
18266TIP3    H176289   2.968   5.772   2.356 -1.4969 -0.6729 -0.1667
18266TIP3    H276290   2.882   5.712   2.247  2.9278 -2.3262 -2.8776
18267TIP3   OH276291   1.878   4.142  13.474 -0.5527 -0.3548 -0.3640
18267TIP3    H176292   1.909   4.161  13.385  0.7899 -0.2680  0.0984
18267TIP3    H276293   1.808   4.205  13.489  1.2410  1.6923 -0.2848
18268TIP3   OH276294   2.337   4.252   5.405 -0.3471  0.2161 -0.7909
18268TIP3    H176295   2.359   4.307   5.329  0.1722  1.4530  0.2516
18268TIP3    H276296   2.253   4.286   5.435  0.0496  0.5490 -0.0530
18269TIP3   OH276297   5.586   6.398  12.450  0.3337  0.3705  0.3888
18269TIP3    H176298   5.678   6.410  12.477  1.8879  0.3111 -4.4923
18269TIP3    H276299   5.564   6.478  12.403 -1.2382 -0.7780 -0.8541
18270TIP3   OH276300   0.661   0.944   6.026  0.1920 -0.5129  0.1316
18270TIP3    H176301   0.594   0.878   6.047 -0.5695 -0.0879 -0.9047
18270TIP3    H276302   0.660   1.004   6.101  0.9168 -1.6919  1.0959
18271TIP3   OH276303   0.594   5.579   2.629  0.1372  0.0090  0.2695
18271TIP3    H176304   0.642   5.623   2.559 -0.0742  0.2288  0.2614
18271TIP3    H276305   0.557   5.502   2.587 -1.0085  0.7770 -0.1718
18272TIP3   OH276306   4.652   4.713  15.031  0.0955  0.2833  0.4211
18272TIP3    H176307   4.746   4.728  15.040  0.1507 -1.2678  2.9308
18272TIP3    H276308   4.616   4.737  15.117 -1.5880 -0.6743  0.0049
18273TIP3   OH276309   4.109   0.998   1.879  0.3687  0.2654 -0.3868
18273TIP3    H176310   4.109   1.088   1.848  0.3956  0.6069  0.5829
18273TIP3    H276311   4.162   0.950   1.815 -0.1028  0.8237 -1.2019
18274TIP3   OH276312   5.862   6.756  13.570 -0.0647  0.0065 -0.1297
18274TIP3    H176313   5.767   6.753  13.585  0.1394 -0.5089  1.1288
18274TIP3    H276314   5.893   6.826  13.627  0.3548 -0.0371 -0.3061
18275TIP3   OH276315   0.850   5.134  10.739 -0.1380 -0.2361 -0.3738
18275TIP3    H176316   0.879   5.060  10.687  1.3566  0.3829 -0.4541
18275TIP3    H276317   0.791   5.183  10.682 -2.5949 -2.3044  0.2877
18276TIP3   OH276318   5.812   6.632  16.951  0.0722 -0.0814  0.2054
18276TIP3    H176319   5.802   6.717  16.908  2.3483 -0.4605 -1.1467
18276TIP3    H276320   5.875   6.648  17.021  2.1889 -1.0500 -1.4038
18277TIP3   OH276321   4.331   6.078  13.412  0.2884 -0.0377  0.4250
18277TIP3    H176322   4.326   6.002  13.470  2.1236  1.0783  2.0976
18277TIP3    H276323   4.421   6.110  13.422  0.4989  0.5085 -2.6407
18278TIP3   OH276324   3.666   3.775   1.419  0.6526 -0.2999 -0.7580
18278TIP3    H176325   3.598   3.802   1.481  1.8899 -2.0317  1.4370
18278TIP3    H276326   3.734   3.842   1.429  2.0592 -2.0364  1.8767
18279TIP3   OH276327   4.074   4.331  14.052 -0.0009 -0.2039 -0.0041
18279TIP3    H176328   4.072   4.397  13.983 -1.2502  0.9482  1.0836
18279TIP3    H276329   4.167   4.318  14.071  0.2556  1.8761  0.3287
18280TIP3   OH276330   1.138   1.341  13.341 -0.4399  0.4016 -0.8084
18280TIP3    H176331   1.075   1.281  13.381 -1.5576  1.3690 -1.1026
18280TIP3    H276332   1.156   1.302  13.255 -1.9834  1.0364 -1.4329
18281TIP3   OH276333   2.659   4.131  14.154  0.0797  0.0466  0.3864
18281TIP3    H176334   2.642   4.043  14.120 -1.0394  0.3361  0.1613
18281TIP3    H276335   2.745   4.125  14.194  1.3856 -0.3847 -2.3253
18282TIP3   OH276336   4.634   2.166  14.270  0.0444 -0.3241  0.7323
18282TIP3    H176337   4.729   2.167  14.284  0.2870 -1.6818 -0.6949
18282TIP3    H276338   4.603   2.091  14.321 -0.0447 -0.8460 -0.0882
18283TIP3   OH276339   0.199   2.630  11.852  0.8094  0.6054 -0.1400
18283TIP3    H176340   0.193   2.715  11.809  0.8010  0.6851  0.0168
18283TIP3    H276341   0.282   2.632  11.899  0.4262  0.8435  0.5337
18284TIP3   OH276342   1.300   4.671  13.058  0.4018  0.4065 -0.4209
18284TIP3    H176343   1.330   4.607  12.992  3.0243  0.2107  0.9195
18284TIP3    H276344   1.373   4.679  13.119 -1.7041  1.1620  2.0803
18285TIP3   OH276345   1.392   4.649  13.520  0.2093  0.2923 -0.4168
18285TIP3    H176346   1.369   4.618  13.608 -0.7151 -0.0836 -0.7889
18285TIP3    H276347   1.308   4.657  13.475  0.7604 -0.4963 -1.5964
18286TIP3   OH276348   0.262   4.415  11.441 -0.5995  0.4550 -0.4287
18286TIP3    H176349   0.220   4.329  11.439  1.9888 -0.9056  0.4336
18286TIP3    H276350   0.195   4.476  11.410 -2.6615 -1.7942 -0.5276
18287TIP3   OH276351   3.661   1.175   5.228  0.2508  0.1144 -0.1973
18287TIP3    H176352   3.579   1.221   5.247  0.3613  0.3605 -0.3125
18287TIP3    H276353   3.726   1.218   5.284  0.4534  0.4278 -0.6725
18288TIP3   OH276354   1.454   5.651   0.982  0.0022  0.3487  0.1815
18288TIP3    H176355   1.461   5.666   0.888 -0.0206 -1.0225 -0.0617
18288TIP3    H276356   1.409   5.567   0.988 -1.6172  1.2909  1.4495
18289TIP3   OH276357   1.645   1.326   4.412  0.2415 -0.0853 -0.5864
18289TIP3    H176358   1.668   1.369   4.329 -0.2993  1.1917 -0.1001
18289TIP3    H276359   1.687   1.381   4.479  0.6464 -1.0882 -0.0124
18290TIP3   OH276360   2.068   3.323   6.452  0.4496 -0.1806 -0.5220
18290TIP3    H176361   2.116   3.240   6.448  1.3183  0.2376  1.0188
18290TIP3    H276362   1.976   3.298   6.460  0.7226 -0.9977  0.0867
18291TIP3   OH276363   1.244   6.783   4.195 -0.0191 -0.7223  0.2893
18291TIP3    H176364   1.155   6.798   4.164  1.1165  0.8378 -2.3281
18291TIP3    H276365   1.269   6.865   4.238  0.8235 -0.4547 -0.6930
18292TIP3   OH276366   0.802   3.448   2.942 -0.0539 -0.5401 -0.3371
18292TIP3    H176367   0.843   3.525   2.902 -0.0180  0.8133  2.1736
18292TIP3    H276368   0.743   3.414   2.875 -0.9567  2.3910 -1.1080
18293TIP3   OH276369   0.748   1.539  16.365 -0.2251  0.6447 -0.3531
18293TIP3    H176370   0.773   1.560  16.275  1.4410  1.2256  0.2210
18293TIP3    H276371   0.829   1.505  16.405 -1.3113 -1.0339  0.5016
18294TIP3   OH276372   2.306   1.130  16.963 -0.0213  0.4755 -0.6426
18294TIP3    H176373   2.397   1.159  16.965  0.4312 -0.8475 -1.4332
18294TIP3    H276374   2.292   1.102  16.873 -1.0723  0.2210 -0.4042
18295TIP3   OH276375   1.506   2.287   3.355 -0.2382  0.1630  0.0217
18295TIP3    H176376   1.574   2.350   3.336 -0.9516  0.2623 -2.3015
18295TIP3    H276377   1.536   2.242   3.434  1.3562  1.8143  0.3711
18296TIP3   OH276378   0.974   2.788  16.639 -0.3408  0.6025  0.0889
18296TIP3    H176379   0.997   2.818  16.551 -1.1678 -1.9328 -1.0351
18296TIP3    H276380   1.047   2.733  16.666 -1.4938 -1.1419 -0.2997
18297TIP3   OH276381   2.747   3.708   5.207 -0.0475 -0.0000  0.1827
18297TIP3    H176382   2.804   3.750   5.271 -0.0167 -1.2883  1.0278
18297TIP3    H276383   2.807   3.666   5.146 -0.0851  0.5647 -0.2482
18298TIP3   OH276384   6.002   2.807  13.764  0.4234  0.2790  0.5301
18298TIP3    H176385   5.926   2.756  13.735  1.4763 -0.8015 -0.3669
18298TIP3    H276386   6.041   2.841  13.683  0.6140  1.2502  1.0216
18299TIP3   OH276387   4.401   2.451  13.689  0.0041  0.2578 -0.2447
18299TIP3    H176388   4.323   2.500  13.713 -0.5412 -0.3772 -0.7129
18299TIP3    H276389   4.468   2.481  13.750 -0.6715  0.6176  0.3187
18300TIP3   OH276390   5.229   6.261  16.123  0.0441 -0.2279 -0.1182
18300TIP3    H176391   5.138   6.280  16.104 -0.0523 -0.9917 -0.4405
18300TIP3    H276392   5.238   6.167  16.108  0.2875 -0.6202  2.2893
18301TIP3   OH276393   1.755   6.703   3.952 -0.1139  0.1898  0.7372
18301TIP3    H176394   1.823   6.769   3.938 -0.1242 -0.1450 -1.0515
18301TIP3    H276395   1.784   6.628   3.899 -0.6753 -0.8127  1.8515
18302TIP3   OH276396   2.660   1.036  13.805  0.5669 -0.4243 -0.0772
18302TIP3    H176397   2.644   0.944  13.785 -1.1217 -0.4292  1.1283
18302TIP3    H276398   2.736   1.035  13.863  0.4532 -1.0959  0.0704
18303TIP3   OH276399   5.612   4.219   5.328 -0.4819 -0.2293 -0.1147
18303TIP3    H176400   5.631   4.145   5.270 -0.7837 -0.5580  0.2071
18303TIP3    H276401   5.635   4.187   5.415  1.8854  0.9316 -0.2844
18304TIP3   OH276402   4.093   0.760  11.166  0.5458  0.4060 -0.4262
18304TIP3    H176403   4.058   0.814  11.095 -1.1970  0.2647  0.2932
18304TIP3    H276404   4.023   0.697  11.184  0.8209  0.6774  1.6512
18305TIP3   OH276405   4.452   3.293  12.005 -0.5081 -0.1197  0.2375
18305TIP3    H176406   4.529   3.272  12.058  0.3869 -1.4722 -1.5828
18305TIP3    H276407   4.401   3.212  12.003 -0.9430  0.1658 -0.3129
18306TIP3   OH276408   4.460   1.993   5.214 -0.6429  0.9412  0.0888
18306TIP3    H176409   4.519   2.016   5.142 -0.4054  0.4054  0.1107
18306TIP3    H276410   4.419   1.911   5.187 -0.2503  0.5265  0.7362
18307TIP3   OH276411   6.737   5.365  14.002 -0.0288  0.1946  0.4807
18307TIP3    H176412   6.710   5.279  14.034 -1.9851  0.5394 -0.1969
18307TIP3    H276413   6.830   5.355  13.981 -0.9216 -2.6200 -2.4078
18308TIP3   OH276414   2.236   0.953  11.749 -0.2873 -0.6331 -0.2955
18308TIP3    H176415   2.242   0.977  11.657  1.9200 -1.5111 -0.4195
18308TIP3    H276416   2.281   0.869  11.755 -0.9931 -0.9064  1.4722
18309TIP3   OH276417   1.236   3.607  11.732 -0.0049  0.2200 -0.6484
18309TIP3    H176418   1.168   3.581  11.670 -0.0425  0.0083 -0.5201
18309TIP3    H276419   1.315   3.562  11.701 -0.0044  0.1815 -0.5926
18310TIP3   OH276420   4.174   3.546   6.411  0.3655  0.0304 -0.2730
18310TIP3    H176421   4.125   3.628   6.422  0.7177  0.0988  0.8819
18310TIP3    H276422   4.217   3.532   6.496  0.4994 -1.2294 -0.5357
18311TIP3   OH276423   4.442   1.551  15.168 -0.3078  0.5441 -0.2909
18311TIP3    H176424   4.486   1.606  15.232  0.2468 -1.1248  0.7891
18311TIP3    H276425   4.349   1.557  15.191  0.1321 -2.4571  2.6746
18312TIP3   OH276426   4.367   0.359   0.203  0.3328 -0.2985  0.0795
18312TIP3    H176427   4.275   0.357   0.227  0.3142  0.6147  0.1024
18312TIP3    H276428   4.387   0.452   0.190  0.8014 -0.6197 -1.6465
18313TIP3   OH276429   2.554   3.146  11.753 -0.1077  0.2157 -0.1851
18313TIP3    H176430   2.642   3.150  11.791  0.3374  0.0067 -1.1702
18313TIP3    H276431   2.521   3.060  11.778  0.4030 -0.1475 -0.7248
18314TIP3   OH276432   1.074   2.890  14.578 -0.4744  0.4501  0.4893
18314TIP3    H176433   1.004   2.836  14.614 -0.3776 -2.1243 -2.9420
18314TIP3    H276434   1.028   2.959  14.530 -0.6482  0.1002  0.1486
18315TIP3   OH276435   5.000   3.528   0.550 -0.6342 -0.4993 -0.4763
18315TIP3    H176436   4.973   3.615   0.525  0.0763 -0.0670  0.2170
18315TIP3    H276437   5.085   3.516   0.507 -0.9561 -1.0376 -0.9674
18316TIP3   OH276438   3.912   5.001  11.134  0.1316  0.3028  0.3795
18316TIP3    H176439   3.957   5.007  11.050 -1.1257 -0.2664 -0.3541
18316TIP3    H276440   3.849   4.930  11.122 -0.0801  0.2401  1.7947
18317TIP3   OH276441   6.686   3.309   3.638  0.2389 -0.4915  0.1240
18317TIP3    H176442   6.780   3.317   3.621  0.3494 -0.1779  0.8643
18317TIP3    H276443   6.658   3.399   3.654 -0.1858 -0.5875 -0.0839
18318TIP3   OH276444   3.132   0.026  16.691  0.6593 -0.4332  0.6823
18318TIP3    H176445   3.068   0.002  16.759  0.9428  0.4486  1.2647
18318TIP3    H276446   3.216   0.027  16.737  1.3315 -3.0067 -0.3849
18319TIP3   OH276447   4.193   3.509   4.443 -0.1042  0.5664 -0.0330
18319TIP3    H176448   4.119   3.547   4.489 -0.2786  0.2486 -0.0474
18319TIP3    H276449   4.268   3.525   4.500 -0.1336  1.1494 -0.1576
18320TIP3   OH276450   5.141   5.977   2.272  0.0837  0.3337  0.2031
18320TIP3    H176451   5.135   6.054   2.215  0.1958  0.5126  0.4308
18320TIP3    H276452   5.227   5.939   2.252 -0.5085 -0.4881 -0.8599
18321TIP3   OH276453   0.845   4.664   2.630 -0.4101  0.4502 -0.4545
18321TIP3    H176454   0.849   4.591   2.692 -2.0465 -0.2326 -1.1195
18321TIP3    H276455   0.886   4.631   2.550 -0.8102  0.3686 -0.6313
18322TIP3   OH276456   2.418   2.467  12.643 -0.3586  0.2763 -0.1475
18322TIP3    H176457   2.337   2.512  12.621 -0.3466  0.9187  1.1173
18322TIP3    H276458   2.453   2.514  12.719  1.1283 -0.0706 -0.5884
18323TIP3   OH276459   4.016   0.329  15.866  0.3033  0.5959 -0.3088
18323TIP3    H176460   4.008   0.386  15.789  0.7781  0.4788 -0.4471
18323TIP3    H276461   3.948   0.263  15.854  1.8706 -0.8046 -1.8123
18324TIP3   OH276462   0.677   0.156   6.475  0.4095 -0.3661 -0.0174
18324TIP3    H176463   0.750   0.181   6.531 -0.5833  0.5338  0.8813
18324TIP3    H276464   0.678   0.220   6.404 -1.5365  1.7240  1.7677
18325TIP3   OH276465   0.204   5.036  12.916 -0.4611 -0.5017  0.0281
18325TIP3    H176466   0.293   5.063  12.895 -0.3862 -1.4074 -0.8143
18325TIP3    H276467   0.148   5.100  12.872 -0.2815 -1.6059 -1.8388
18326TIP3   OH276468   0.133   2.996  12.384 -0.1414  0.1832 -0.2195
18326TIP3    H176469   0.163   3.085  12.402 -0.4519  0.3540 -0.5391
18326TIP3    H276470   0.162   2.945  12.460  1.1938  0.2807 -0.6546
18327TIP3   OH276471   5.239   3.809   5.174 -0.2025  0.1270  0.3390
18327TIP3    H176472   5.281   3.791   5.090  0.7321  0.0865  0.8058
18327TIP3    H276473   5.306   3.788   5.239 -1.3501 -1.0337  1.1492
18328TIP3   OH276474   5.692   0.683  14.401  0.5201 -0.6963  0.8334
18328TIP3    H176475   5.760   0.634  14.356  0.4707 -1.4987  1.6294
18328TIP3    H276476   5.724   0.693  14.490 -1.3104 -2.8682  1.7801
18329TIP3   OH276477   3.497   5.567   5.457 -0.1772  0.4660  0.7531
18329TIP3    H176478   3.523   5.658   5.446 -0.8443  0.7292  1.2801
18329TIP3    H276479   3.574   5.524   5.494  0.9244  0.3009 -1.6759
18330TIP3   OH276480   6.753   3.389   5.935  0.0448 -0.2335  0.0745
18330TIP3    H176481   6.807   3.320   5.896  0.8134  0.3176  0.1284
18330TIP3    H276482   6.812   3.431   5.998 -0.7193 -0.1540  0.7389
18331TIP3   OH276483   1.678   4.612   4.411 -0.1359 -0.7730 -0.3587
18331TIP3    H176484   1.722   4.527   4.414 -0.0869 -0.8300 -1.9356
18331TIP3    H276485   1.585   4.590   4.405 -0.0276 -0.7854 -2.5228
18332TIP3   OH276486   5.437   6.233  12.974 -0.5138  0.1986 -0.2232
18332TIP3    H176487   5.444   6.221  12.879  1.9957 -0.3671 -0.0048
18332TIP3    H276488   5.456   6.326  12.988 -2.2586  0.5968 -0.3676
18333TIP3   OH276489   0.060   2.648  13.975 -0.0562  0.0070 -0.0081
18333TIP3    H176490   0.002   2.653  14.050 -0.4952  1.5708 -0.4451
18333TIP3    H276491   0.093   2.737  13.963  0.9404 -0.4713 -0.9362
18334TIP3   OH276492   0.783   0.711   0.188  0.4670  0.4392 -0.7219
18334TIP3    H176493   0.700   0.700   0.142  0.6166  0.0706 -0.9104
18334TIP3    H276494   0.762   0.698   0.280  0.3388  0.2104 -0.7829
18335TIP3   OH276495   3.604   5.712   1.550 -0.6275  0.2588 -0.0236
18335TIP3    H176496   3.680   5.703   1.493 -0.5715 -1.9537  0.3829
18335TIP3    H276497   3.586   5.806   1.551  0.6935  0.5590 -1.9569
18336TIP3   OH276498   3.864   3.977  14.827  0.2172 -0.0256 -0.3160
18336TIP3    H176499   3.858   3.956  14.734  2.7794 -0.2670 -0.4533
18336TIP3    H276500   3.921   3.910  14.864  0.7679  1.1616  1.0536
18337TIP3   OH276501   1.045   4.483   5.738  0.1199  0.1267 -0.5126
18337TIP3    H176502   0.992   4.456   5.662 -1.4457  0.3557  0.4647
18337TIP3    H276503   0.996   4.450   5.814  1.7812 -0.2788  0.3897
18338TIP3   OH276504   1.810   2.786  11.308 -1.3707  0.1529 -0.3704
18338TIP3    H176505   1.796   2.714  11.247  4.4352 -0.8277 -0.8375
18338TIP3    H276506   1.839   2.859  11.252  1.8068 -0.0850  0.8463
18339TIP3   OH276507   5.761   4.912  12.479  0.0512  0.9579  0.1494
18339TIP3    H176508   5.834   4.951  12.528 -0.0451  1.4667 -0.1080
18339TIP3    H276509   5.780   4.931  12.387  1.6807 -2.4502 -0.2647
18340TIP3   OH276510   1.652   6.361   2.097  0.5924 -0.2390  0.1429
18340TIP3    H176511   1.681   6.366   2.006  0.8831 -0.1522  0.2373
18340TIP3    H276512   1.728   6.327   2.144  0.1871 -1.0111  0.2351
18341TIP3   OH276513   0.492   1.927  11.335  0.6253  0.3848 -0.1376
18341TIP3    H176514   0.409   1.975  11.342  0.1792 -0.7026  2.5467
18341TIP3    H276515   0.473   1.840  11.370  2.2385 -0.7756 -2.0104
18342TIP3   OH276516   1.450   1.958   4.454 -0.1347 -0.3257  0.1391
18342TIP3    H176517   1.400   2.037   4.477 -0.4784 -0.2856 -0.7126
18342TIP3    H276518   1.401   1.920   4.381  1.1765 -0.1967 -0.8188
18343TIP3   OH276519   3.321   6.674  17.136 -0.1718 -0.1249 -0.2983
18343TIP3    H176520   3.264   6.640  17.205  1.0386  2.0506  1.8641
18343TIP3    H276521   3.409   6.660  17.169  0.4169  1.3118 -1.2099
18344TIP3   OH276522   0.349   0.087   0.552 -0.2531  0.5638 -0.8102
18344TIP3    H176523   0.433   0.052   0.581 -1.2702 -1.1203  0.1552
18344TIP3    H276524   0.341   0.172   0.595 -0.4694 -0.6679  1.6485
18345TIP3   OH276525   5.061   1.765   5.411  0.2494 -0.2625 -0.2640
18345TIP3    H176526   5.006   1.843   5.412 -0.8419 -1.0277  0.4794
18345TIP3    H276527   5.134   1.788   5.353  0.2035  1.4821  0.3280
18346TIP3   OH276528   4.473   1.169  10.253  0.0950 -0.1758 -0.4340
18346TIP3    H176529   4.419   1.237  10.214  1.4766  0.7984 -0.6908
18346TIP3    H276530   4.535   1.216  10.308  0.4749 -1.2941  0.1196
18347TIP3   OH276531   4.645   2.457   4.254 -0.2644  0.0727  0.5412
18347TIP3    H176532   4.576   2.520   4.273 -1.2673 -1.1832  1.1382
18347TIP3    H276533   4.723   2.494   4.296 -0.4902  1.6263 -0.3623
18348TIP3   OH276534   4.058   1.464   1.119  0.3000  0.3727  0.2895
18348TIP3    H176535   4.130   1.412   1.154  0.7537  0.8029  0.0038
18348TIP3    H276536   4.078   1.473   1.026 -0.5269 -0.1550  0.0558
18349TIP3   OH276537   0.297   4.541   5.768 -0.0173 -0.1958  0.2801
18349TIP3    H176538   0.324   4.492   5.846 -0.8020 -0.9632  0.0770
18349TIP3    H276539   0.334   4.628   5.781 -2.1482  0.4367  2.7078
18350TIP3   OH276540   5.804   5.805  16.387  0.3343 -0.3342 -0.0573
18350TIP3    H176541   5.784   5.783  16.296  0.1878 -2.0405  0.3684
18350TIP3    H276542   5.800   5.901  16.390 -0.7159 -0.3112 -1.5923
18351TIP3   OH276543   2.062   4.081   4.618  0.6196 -0.2549  0.2317
18351TIP3    H176544   1.976   4.069   4.660 -0.0696 -1.0140 -1.3649
18351TIP3    H276545   2.105   4.148   4.672 -1.4498  1.0483  0.3497
18352TIP3   OH276546   0.924   0.769   5.188  0.1394 -0.4683  0.2182
18352TIP3    H176547   0.953   0.709   5.120  0.6575  0.2059 -0.1690
18352TIP3    H276548   0.904   0.851   5.141 -1.1133 -0.5055  0.6520
18353TIP3   OH276549   1.957   4.514  13.220 -0.1345  0.0543 -0.1156
18353TIP3    H176550   1.955   4.598  13.266  1.3780 -1.0658  2.0551
18353TIP3    H276551   1.865   4.497  13.197 -0.6902  1.4288  1.0252
18354TIP3   OH276552   1.011   5.188   2.402 -0.1793  0.5184  0.0592
18354TIP3    H176553   1.105   5.176   2.417 -0.0325  0.1661 -1.0672
18354TIP3    H276554   0.994   5.141   2.320 -1.3055  0.7221  0.1725
18355TIP3   OH276555   0.302   2.404  13.081 -0.1417  0.7077  0.2930
18355TIP3    H176556   0.224   2.400  13.135  0.1829 -0.2884  0.7094
18355TIP3    H276557   0.352   2.477  13.115  0.5364 -0.5288  2.0188
18356TIP3   OH276558   0.253   5.732   4.565 -0.6731 -0.3308 -0.3814
18356TIP3    H176559   0.277   5.682   4.643 -2.0491  0.0204  0.2841
18356TIP3    H276560   0.286   5.680   4.492  0.1886 -0.9117  0.4126
18357TIP3   OH276561   2.976   2.435   4.947 -0.4363 -0.3743 -0.2075
18357TIP3    H176562   3.018   2.469   5.026  2.0906 -1.5933 -0.9756
18357TIP3    H276563   2.947   2.347   4.972  0.7514 -0.9292 -0.7254
18358TIP3   OH276564   4.716   6.342  12.771  0.2106  0.5286 -0.6285
18358TIP3    H176565   4.660   6.290  12.829 -0.7499  1.0623 -1.0497
18358TIP3    H276566   4.654   6.390  12.716  1.0976  1.1377 -1.1059
18359TIP3   OH276567   5.996   3.545  15.025  0.3081 -0.0274  0.3629
18359TIP3    H176568   6.015   3.533  15.118 -0.1769 -0.6591  0.3825
18359TIP3    H276569   6.071   3.505  14.980  0.5196  0.2347  0.4818
18360TIP3   OH276570   1.624   6.465   2.386 -0.6147  0.5206  0.1953
18360TIP3    H176571   1.556   6.471   2.453 -1.3735  0.3309 -0.5623
18360TIP3    H276572   1.602   6.386   2.336 -0.7626  1.3592 -1.0803
18361TIP3   OH276573   2.229   3.004  15.517  0.2346  0.1622  0.4933
18361TIP3    H176574   2.203   2.964  15.434 -1.6609  1.8282  0.2377
18361TIP3    H276575   2.198   2.944  15.584 -0.9155  0.2637  0.0624
18362TIP3   OH276576   5.904   4.827  13.991 -0.5374  0.5184 -0.3485
18362TIP3    H176577   5.831   4.872  14.033  1.0420  2.6291  0.2141
18362TIP3    H276578   5.880   4.824  13.898 -1.9108  0.0286  0.0156
18363TIP3   OH276579   5.439   4.966  15.598  0.3685 -0.3261  0.2522
18363TIP3    H176580   5.514   5.022  15.580  1.6202 -2.2341 -0.5717
18363TIP3    H276581   5.388   4.967  15.517 -0.2475  0.5709  0.6449
18364TIP3   OH276582   5.741   0.341  10.931 -0.0712 -0.2715  0.3681
18364TIP3    H176583   5.828   0.369  10.960  0.7504 -0.1656 -2.0500
18364TIP3    H276584   5.759   0.282  10.858 -1.9372 -2.9758  1.9956
18365TIP3   OH276585   6.291   6.484   4.053 -0.1479 -0.0322  0.7728
18365TIP3    H176586   6.338   6.544   3.995 -1.6653 -1.2596 -1.8231
18365TIP3    H276587   6.261   6.540   4.126 -1.3051  2.3193 -1.4275
18366TIP3   OH276588   1.732   4.193   3.780 -0.2254 -0.4169  0.5475
18366TIP3    H176589   1.748   4.112   3.829 -0.7690  0.1290  1.6371
18366TIP3    H276590   1.639   4.211   3.792 -0.2189  0.1023 -0.1259
18367TIP3   OH276591   5.802   2.467   0.735  0.1596 -0.0789  0.6018
18367TIP3    H176592   5.806   2.537   0.801  1.6949 -0.5619  1.0526
18367TIP3    H276593   5.866   2.493   0.669  1.9858 -1.8289  1.5970
18368TIP3   OH276594   0.998   1.352   3.749  0.0302  0.0315  0.2840
18368TIP3    H176595   1.018   1.318   3.837  0.7655  1.2087  0.5786
18368TIP3    H276596   0.940   1.286   3.711  1.4554 -1.5701  0.8439
18369TIP3   OH276597   4.559   4.050  15.548  0.0360 -0.8567 -0.5139
18369TIP3    H176598   4.464   4.050  15.561  0.1016 -0.6757 -0.0481
18369TIP3    H276599   4.585   4.141  15.560  0.6911 -1.3797  2.3444
18370TIP3   OH276600   0.273   1.666   4.807  0.1660  0.1689 -0.2077
18370TIP3    H176601   0.353   1.701   4.768  1.1173 -0.3097  1.2774
18370TIP3    H276602   0.222   1.743   4.831  0.0606  0.4734 -1.3896
18371TIP3   OH276603   5.142   0.931  12.486  0.8971  0.3795  0.0756
18371TIP3    H176604   5.082   0.864  12.453  2.0582  0.3556 -2.1353
18371TIP3    H276605   5.143   0.918  12.581  0.6418 -2.3439 -0.2377
18372TIP3   OH276606   3.574   4.510   5.625 -0.3549  0.2089 -0.1840
18372TIP3    H176607   3.616   4.485   5.543  2.3611 -0.3261  1.2970
18372TIP3    H276608   3.511   4.441   5.642  1.4003 -1.4561 -0.2137
18373TIP3   OH276609   3.690   4.936   1.319  0.3184 -0.4827  0.3352
18373TIP3    H176610   3.620   4.897   1.266 -1.4366  2.4784  0.3402
18373TIP3    H276611   3.740   4.990   1.258  2.1820 -1.9932  0.4880
18374TIP3   OH276612   2.387   4.101   1.565 -0.5468 -0.1750 -0.0069
18374TIP3    H176613   2.428   4.015   1.575 -1.5915 -0.3931  2.9035
18374TIP3    H276614   2.330   4.092   1.489 -0.1486 -1.8658 -0.1260
18375TIP3   OH276615   3.874   0.667  14.629 -0.8675  0.6881 -0.2425
18375TIP3    H176616   3.946   0.654  14.692 -1.2381 -2.1362 -0.3154
18375TIP3    H276617   3.914   0.650  14.544 -1.4751 -0.4665 -0.3159
18376TIP3   OH276618   4.669   6.622   5.048  0.0586 -0.7379  0.3550
18376TIP3    H176619   4.653   6.671   5.129  2.2551 -3.3435  2.4585
18376TIP3    H276620   4.702   6.687   4.987 -0.1050  1.0195  2.0767
18377TIP3   OH276621   2.932   1.298   3.575  0.6145 -0.3131 -0.3410
18377TIP3    H176622   3.014   1.275   3.531  0.6308  1.1769 -1.1305
18377TIP3    H276623   2.882   1.345   3.509 -1.2530 -1.9393 -0.1199
18378TIP3   OH276624   5.824   4.658  13.597  0.0634  0.2673  0.1020
18378TIP3    H176625   5.745   4.681  13.548  0.1742  0.8255  0.1864
18378TIP3    H276626   5.794   4.594  13.662 -0.3375  0.5366  0.1849
18379TIP3   OH276627   3.602   0.642   2.693 -0.1647 -0.1117  0.7392
18379TIP3    H176628   3.541   0.637   2.766  0.6850  1.1967  1.5745
18379TIP3    H276629   3.689   0.643   2.734  0.3694 -0.5731 -0.3496
18380TIP3   OH276630   0.687   3.906  16.688 -0.0114 -0.2637 -0.1849
18380TIP3    H176631   0.643   3.990  16.703  0.8832  0.9496 -3.8732
18380TIP3    H276632   0.780   3.927  16.691  0.2054 -0.8775 -2.2763
18381TIP3   OH276633   1.850   0.113  12.381 -0.4901 -0.1894 -0.1888
18381TIP3    H176634   1.877   0.129  12.471 -2.4615  0.7242  0.2868
18381TIP3    H276635   1.871   0.194  12.334  0.0110 -0.4544 -0.4284
18382TIP3   OH276636   3.647   4.576  14.309  0.2583  0.1505 -0.1223
18382TIP3    H176637   3.696   4.576  14.392  1.3918 -1.5460 -0.7820
18382TIP3    H276638   3.668   4.661  14.270 -0.1546  0.9023  1.2583
18383TIP3   OH276639   5.196   5.259   5.507  0.3748  0.1128 -1.0854
18383TIP3    H176640   5.260   5.327   5.529  1.5152 -1.5494  0.8545
18383TIP3    H276641   5.249   5.183   5.485 -0.8958 -1.5321  1.3429
18384TIP3   OH276642   3.023   2.137   2.935  0.2642  0.5391  0.0468
18384TIP3    H176643   3.026   2.058   2.988  2.4797 -0.6624 -1.7910
18384TIP3    H276644   3.113   2.170   2.935 -0.0187  1.3853 -1.6760
18385TIP3   OH276645   3.749   4.147  12.571 -0.1432  0.2487 -0.3740
18385TIP3    H176646   3.657   4.169  12.589 -0.0544 -0.3214  0.7833
18385TIP3    H276647   3.746   4.059  12.533 -0.0499  0.0939 -0.0249
18386TIP3   OH276648   0.362   6.417   5.735 -0.6251  0.3742  0.4368
18386TIP3    H176649   0.272   6.423   5.764 -1.5973  1.2551 -2.5793
18386TIP3    H276650   0.379   6.323   5.731 -2.1760  0.1313 -1.1111
18387TIP3   OH276651   3.201   2.086   4.353 -0.4389 -0.0523 -0.3248
18387TIP3    H176652   3.288   2.093   4.312  0.1901  2.5837  1.3595
18387TIP3    H276653   3.207   2.008   4.408  1.5291  1.1023  1.1956
18388TIP3   OH276654   1.545   3.853  16.605  0.1114  0.4692  0.2775
18388TIP3    H176655   1.546   3.885  16.515 -1.2657  0.2240  0.1586
18388TIP3    H276656   1.637   3.852  16.631  0.4922  0.9025 -0.9934
18389TIP3   OH276657   4.722   5.205   5.842  0.0614 -0.0058 -0.0729
18389TIP3    H176658   4.791   5.183   5.779 -0.7334 -0.0545 -0.9353
18389TIP3    H276659   4.680   5.121   5.862 -0.0621  0.0914  0.0810
18390TIP3   OH276660   6.115   6.091   5.351  0.4231 -0.2558 -0.5071
18390TIP3    H176661   6.068   6.141   5.285 -0.6750 -0.0363  0.4394
18390TIP3    H276662   6.137   6.155   5.419  1.7352 -0.4359 -0.7312
18391TIP3   OH276663   1.295   5.588  14.431 -0.4553  0.3997 -0.7980
18391TIP3    H176664   1.252   5.524  14.374 -0.9702 -0.5327  0.6352
18391TIP3    H276665   1.292   5.549  14.518  0.9622  1.5083 -0.2356
18392TIP3   OH276666   3.063   4.984  13.738 -0.2882  0.2867 -0.3400
18392TIP3    H176667   3.139   5.020  13.693 -0.1148  0.3439 -0.0065
18392TIP3    H276668   3.049   5.043  13.813 -0.7247  0.3380 -0.4592
18393TIP3   OH276669   0.661   3.438  12.539  0.2458 -0.2583 -0.4495
18393TIP3    H176670   0.618   3.501  12.481 -0.8931 -1.5580 -1.0612
18393TIP3    H276671   0.745   3.420  12.498  0.5677  0.8610 -0.2753
18394TIP3   OH276672   2.929   4.123  14.215 -0.2458 -0.6307 -0.2396
18394TIP3    H176673   2.990   4.191  14.188 -0.7635 -0.6171 -1.4265
18394TIP3    H276674   2.927   4.128  14.311  0.5914  0.2404 -0.2622
18395TIP3   OH276675   2.646   1.728  13.779  0.3802 -0.3836 -0.3656
18395TIP3    H176676   2.563   1.680  13.785  0.5411 -0.4906  1.1846
18395TIP3    H276677   2.633   1.790  13.707 -0.8836 -0.7077 -0.4247
18396TIP3   OH276678   3.858   4.618  12.774  0.0925  0.5877 -0.4802
18396TIP3    H176679   3.876   4.711  12.779 -0.2043  0.6617 -0.7766
18396TIP3    H276680   3.900   4.581  12.852 -0.6613  1.1044  0.1756
18397TIP3   OH276681   0.294   0.950   0.433 -0.2895 -0.5405 -0.2150
18397TIP3    H176682   0.315   1.025   0.489  0.7970 -1.9191  1.2596
18397TIP3    H276683   0.209   0.972   0.394  0.7862  2.2236 -1.1509
18398TIP3   OH276684   3.393   5.665   2.955  0.2214 -0.2853 -0.4016
18398TIP3    H176685   3.365   5.574   2.967 -0.8964 -0.0540 -1.2903
18398TIP3    H276686   3.456   5.679   3.027 -1.3950 -1.0141  1.1980
18399TIP3   OH276687   3.511   5.665   3.381 -0.2887  0.2372  0.1214
18399TIP3    H176688   3.472   5.734   3.435 -2.9126  0.4416 -1.8904
18399TIP3    H276689   3.437   5.609   3.357  0.9542 -0.4236 -2.3695
18400TIP3   OH276690   5.931   5.285   3.918  0.6585  0.3751 -0.1147
18400TIP3    H176691   5.885   5.321   3.843 -2.6577  0.6169  1.9515
18400TIP3    H276692   5.983   5.213   3.882 -0.8659  0.4697 -2.6219
18401TIP3   OH276693   2.935   2.181   0.661 -0.0534 -0.0403 -0.4991
18401TIP3    H176694   3.015   2.185   0.608  0.8548 -0.7679  0.7948
18401TIP3    H276695   2.921   2.271   0.690 -0.2565  0.2644 -1.5352
18402TIP3   OH276696   3.447   4.387  14.437  0.6736 -0.2956  0.3661
18402TIP3    H176697   3.532   4.422  14.411  0.5758  0.2482  0.7814
18402TIP3    H276698   3.456   4.372  14.531  1.0372 -2.2733  0.0572
18403TIP3   OH276699   6.427   2.736   3.930 -0.1802 -0.2910  0.1571
18403TIP3    H176700   6.512   2.727   3.973 -0.0571 -1.6116 -0.3266
18403TIP3    H276701   6.393   2.646   3.925 -1.5261  0.1993  0.1899
18404TIP3   OH276702   6.093   1.526   2.698  0.0376 -0.7266  0.5677
18404TIP3    H176703   6.161   1.588   2.673 -0.8620 -0.5758 -1.6819
18404TIP3    H276704   6.102   1.454   2.635 -3.3975  0.4408 -1.3874
18405TIP3   OH276705   4.562   3.503  15.239 -0.0395  0.2602  0.4717
18405TIP3    H176706   4.623   3.576  15.227  0.7242 -0.3761  0.4917
18405TIP3    H276707   4.607   3.443  15.298 -0.0285 -0.9653 -0.7661
18406TIP3   OH276708   4.672   4.282  11.105 -0.3127 -0.0863  0.4886
18406TIP3    H176709   4.589   4.272  11.151 -0.6698  0.5425 -0.0235
18406TIP3    H276710   4.676   4.374  11.080  0.9441  0.0925  1.2761
18407TIP3   OH276711   0.085   3.385  13.635 -0.2547 -0.1543  0.5344
18407TIP3    H176712   0.128   3.372  13.719  0.3343 -0.9593  0.1126
18407TIP3    H276713  -0.007   3.403  13.657  0.1022  0.6175  1.3868
18408TIP3   OH276714   3.569   6.205   6.148 -0.0416  0.1459 -0.0645
18408TIP3    H176715   3.555   6.111   6.152 -0.1596  0.2045  1.0463
18408TIP3    H276716   3.483   6.241   6.125 -0.1641  0.0392  0.2341
18409TIP3   OH276717   5.938   3.292   4.391 -0.1506  0.0196  0.3618
18409TIP3    H176718   5.927   3.372   4.444 -0.4095 -0.5349  1.1498
18409TIP3    H276719   6.015   3.250   4.429 -1.2831 -1.2022  1.3570
18410TIP3   OH276720   0.949   1.479   5.885  0.1987 -0.1568 -0.4203
18410TIP3    H176721   0.930   1.553   5.829  0.5232  1.8957  2.0843
18410TIP3    H276722   1.044   1.468   5.880  0.0517 -1.0042 -1.4936
18411TIP3   OH276723   3.287   1.738   4.203 -0.1987  0.7832 -0.8655
18411TIP3    H176724   3.327   1.694   4.278  2.0837  2.2737 -1.1615
18411TIP3    H276725   3.194   1.743   4.225 -0.0347 -1.4814  0.4970
18412TIP3   OH276726   1.526   4.333  12.885  0.2382 -0.0041 -0.0907
18412TIP3    H176727   1.558   4.312  12.797  1.4042  0.7646  0.1316
18412TIP3    H276728   1.559   4.262  12.940 -1.2821 -0.9840 -0.4179
18413TIP3   OH276729   3.775   2.787  14.189 -0.1352  0.1336  0.3094
18413TIP3    H176730   3.860   2.817  14.158 -0.5292  1.8099  0.8145
18413TIP3    H276731   3.713   2.815  14.122 -0.4299 -0.1523  0.4577
18414TIP3   OH276732   2.788   5.070   5.431 -0.1954  0.6654 -0.1634
18414TIP3    H176733   2.750   5.001   5.377  0.8926  0.6260 -0.8899
18414TIP3    H276734   2.772   5.041   5.521 -0.4233 -0.1583 -0.4629
18415TIP3   OH276735   2.415   4.803  16.028  0.1703  0.1625 -0.1128
18415TIP3    H176736   2.360   4.726  16.040  1.0938 -0.6373 -0.9691
18415TIP3    H276737   2.370   4.872  16.077 -0.7595 -0.8643  0.5033
18416TIP3   OH276738   5.575   0.025  14.584 -0.0500 -0.1472  0.5794
18416TIP3    H176739   5.516   0.099  14.568  0.0712 -0.2157 -0.2250
18416TIP3    H276740   5.517  -0.051  14.587  0.0960 -0.3842 -1.5086
18417TIP3   OH276741   3.460   3.763  13.370 -0.2996 -0.0283  0.0459
18417TIP3    H176742   3.535   3.812  13.336 -0.8596  1.0469  0.3282
18417TIP3    H276743   3.392   3.775  13.303 -1.1914  1.5498  1.1908
18418TIP3   OH276744   2.729   5.143   1.170  0.4410 -0.8829  0.0833
18418TIP3    H176745   2.641   5.139   1.209 -0.1353 -0.4460 -1.1535
18418TIP3    H276746   2.788   5.122   1.242 -0.6842 -1.1799  0.9275
18419TIP3   OH276747   0.746   0.274   3.473 -0.1981  0.3078  0.2994
18419TIP3    H176748   0.814   0.270   3.405  0.8229 -1.1569  1.3577
18419TIP3    H276749   0.667   0.298   3.426  1.2275  3.0477 -0.8255
18420TIP3   OH276750   0.854   6.547  11.946  0.0283  0.2651 -0.0370
18420TIP3    H176751   0.904   6.622  11.914 -1.6793  1.4059 -0.1079
18420TIP3    H276752   0.842   6.565  12.039  0.6406 -0.5313  0.1989
18421TIP3   OH276753   6.263   4.078  14.586  0.2720  0.2590 -0.3276
18421TIP3    H176754   6.341   4.024  14.571 -0.9708 -1.2745 -1.4611
18421TIP3    H276755   6.200   4.048  14.521 -1.4927  1.0529  0.9585
18422TIP3   OH276756   5.093   6.588   1.452  0.3380 -0.3076 -0.6011
18422TIP3    H176757   5.099   6.662   1.392 -0.7711  0.8782  0.7365
18422TIP3    H276758   5.176   6.588   1.499  0.3090  0.1200 -0.5531
18423TIP3   OH276759   3.156   3.040   2.299  0.8816 -0.3055  0.3976
18423TIP3    H176760   3.098   3.053   2.374  2.4622 -1.5152  1.8904
18423TIP3    H276761   3.225   2.982   2.333  2.2600  0.0916 -1.6709
18424TIP3   OH276762   5.037   4.331  16.668 -0.4070 -0.0588  0.3001
18424TIP3    H176763   4.957   4.285  16.694 -1.0491  0.7233 -0.2775
18424TIP3    H276764   5.010   4.422  16.655  0.1971 -0.1277 -1.5947
18425TIP3   OH276765   2.582   2.349  16.028 -0.6004  0.4515 -0.0139
18425TIP3    H176766   2.576   2.258  16.059 -1.1516  0.0752 -1.1931
18425TIP3    H276767   2.670   2.377  16.052  0.1240 -0.9172 -0.9875
18426TIP3   OH276768   3.133   4.878   1.019  0.0666 -1.3521 -0.0937
18426TIP3    H176769   3.083   4.798   1.035  2.9224 -3.1764  0.0387
18426TIP3    H276770   3.141   4.882   0.923  0.6751 -1.7024 -0.0573
18427TIP3   OH276771   6.528   4.224   3.755 -0.0037  0.6974  0.6872
18427TIP3    H176772   6.577   4.171   3.819 -0.5283 -0.4944  0.1129
18427TIP3    H276773   6.441   4.185   3.754 -0.6372  2.0917  0.8388
18428TIP3   OH276774   5.401   3.808   6.386  0.0217 -0.0345 -0.0365
18428TIP3    H176775   5.473   3.842   6.332  0.1827  0.7567  0.6671
18428TIP3    H276776   5.322   3.831   6.337  0.2482 -0.8877 -0.8024
18429TIP3   OH276777   6.093   0.863  15.210  0.2211 -0.6493  0.5388
18429TIP3    H176778   6.175   0.822  15.238 -0.0706 -0.7864  1.1912
18429TIP3    H276779   6.063   0.912  15.287 -0.2332 -0.4726  0.2523
18430TIP3   OH276780   6.169   2.732   4.090 -0.2670 -0.1613  0.2138
18430TIP3    H176781   6.113   2.807   4.108  0.0109 -0.4766  2.6127
18430TIP3    H276782   6.164   2.679   4.170 -1.5365 -3.3857 -1.9090
18431TIP3   OH276783   4.961   1.830  14.409 -0.4500 -0.0450 -0.2595
18431TIP3    H176784   4.940   1.910  14.362  1.4340 -0.0212 -1.1367
18431TIP3    H276785   4.877   1.789  14.427 -1.3348  1.2642 -1.3473
18432TIP3   OH276786   1.544   1.752   3.602 -0.3972 -0.1893 -0.1780
18432TIP3    H176787   1.600   1.774   3.528  1.0427 -0.0966  0.9228
18432TIP3    H276788   1.506   1.667   3.580 -0.3371  0.0538 -1.2169
18433TIP3   OH276789   5.215   3.537   0.384  0.3774 -0.4159  0.0707
18433TIP3    H176790   5.286   3.514   0.444  1.2639  2.2335  0.1048
18433TIP3    H276791   5.242   3.621   0.347 -0.8734 -1.2443 -2.8956
18434TIP3   OH276792   0.847   6.219  16.742  0.5369 -0.1653  0.5784
18434TIP3    H176793   0.834   6.301  16.790  1.2214 -0.8870  2.0145
18434TIP3    H276794   0.894   6.162  16.803  0.4144 -1.5023 -0.5456
18435TIP3   OH276795   5.515   4.790   0.356  0.7289 -0.1316  0.2744
18435TIP3    H176796   5.431   4.766   0.318  0.6781  1.2960 -0.5537
18435TIP3    H276797   5.506   4.883   0.379  2.6836  0.5480 -1.5596
18436TIP3   OH276798   3.159   1.341  14.964  0.2532  0.2956 -0.0308
18436TIP3    H176799   3.127   1.285  15.035  0.9356  1.2192  1.0164
18436TIP3    H276800   3.183   1.279  14.894 -0.2463 -0.6303  0.5987
18437TIP3   OH276801   4.401   2.957   1.678  0.4185 -0.0947  0.0252
18437TIP3    H176802   4.413   3.005   1.596  1.7882  0.5711  0.5898
18437TIP3    H276803   4.407   2.865   1.653 -1.2925  0.0407 -0.9337
18438TIP3   OH276804   3.414   5.800  15.280  0.1055  0.0892 -0.4296
18438TIP3    H176805   3.340   5.750  15.314  1.2397 -1.6687 -0.4962
18438TIP3    H276806   3.380   5.889  15.268 -1.6643 -0.4364  0.6124
18439TIP3   OH276807   6.564   5.283  17.092 -0.0300  0.0334  0.3150
18439TIP3    H176808   6.626   5.236  17.147 -0.9275  1.2348  2.4243
18439TIP3    H276809   6.612   5.302  17.012  1.6118 -0.9399  1.0473
18440TIP3   OH276810   3.084   1.459  16.940 -0.4826  0.0676  0.2400
18440TIP3    H176811   3.136   1.396  16.889  1.7099  2.6913 -0.8787
18440TIP3    H276812   3.111   1.445  17.031  0.6273 -0.0457 -0.1029
18441TIP3   OH276813   4.944   2.477  13.849 -0.0264 -0.1953  1.0168
18441TIP3    H176814   4.941   2.533  13.927 -0.0573  1.1901  0.0184
18441TIP3    H276815   4.875   2.412  13.864  1.5550 -1.4416  3.2667
18442TIP3   OH276816   4.973   1.225   0.057 -0.2754  0.2654  0.1960
18442TIP3    H176817   5.040   1.277   0.013  2.5333 -3.9472 -0.7932
18442TIP3    H276818   5.012   1.201   0.141 -2.3994  1.4954  1.5719
18443TIP3   OH276819   1.279   3.673   6.581  0.0883  0.3054  0.2216
18443TIP3    H176820   1.201   3.619   6.586  0.8873 -0.9467 -0.5471
18443TIP3    H276821   1.247   3.760   6.557 -1.0974 -0.0845  0.3790
18444TIP3   OH276822   3.665   4.862   1.579 -0.0167  0.4505 -0.1378
18444TIP3    H176823   3.665   4.875   1.484 -3.1679  0.5919 -0.1848
18444TIP3    H276824   3.672   4.950   1.616  0.7343  0.4340 -0.2383
18445TIP3   OH276825   3.690   1.359  17.190 -0.2978  0.2790 -0.0665
18445TIP3    H176826   3.759   1.401  17.139 -1.6450  2.1882 -0.3946
18445TIP3    H276827   3.698   1.265  17.170 -0.0006  0.8582 -2.8193
18446TIP3   OH276828   0.023   3.691   5.686  0.3031  0.2231 -0.4742
18446TIP3    H176829  -0.035   3.747   5.737 -3.2221 -3.6221  0.0141
18446TIP3    H276830   0.084   3.654   5.750 -0.2454  0.0419 -0.0586
18447TIP3   OH276831   5.510   3.812  15.996  0.6199  0.0297 -0.0458
18447TIP3    H176832   5.504   3.725  15.957 -1.8445 -0.0504  0.4509
18447TIP3    H276833   5.451   3.809  16.071  0.7492  2.0503  0.1664
18448TIP3   OH276834   1.425   5.461  10.907  0.1148 -0.1303 -0.5136
18448TIP3    H176835   1.467   5.541  10.877 -0.1447  0.0868 -0.3053
18448TIP3    H276836   1.333   5.485  10.920 -0.0882 -0.6212 -1.0462
18449TIP3   OH276837   1.307   2.688   0.019 -0.4824  0.3972  0.0844
18449TIP3    H176838   1.276   2.615   0.073  0.3833 -0.5596 -0.6899
18449TIP3    H276839   1.313   2.762   0.079 -1.4379 -0.1436  0.8611
18450TIP3   OH276840   5.638   1.158  16.013  0.8967 -0.0088 -0.0399
18450TIP3    H176841   5.721   1.204  16.003  0.4164  0.7288 -0.6717
18450TIP3    H276842   5.572   1.227  16.013  0.4967 -0.2894  3.7479
18451TIP3   OH276843   0.662   1.634   6.565 -0.1596 -0.1560  0.6571
18451TIP3    H176844   0.628   1.723   6.568 -0.2472 -0.1818  0.4663
18451TIP3    H276845   0.595   1.584   6.518 -0.0754 -0.3065  0.6947
18452TIP3   OH276846   5.670   2.150   0.243 -0.1748  0.0965 -0.6090
18452TIP3    H176847   5.722   2.228   0.261  0.0861 -0.2678  0.2527
18452TIP3    H276848   5.626   2.131   0.326 -2.0938  0.7014 -1.4717
18453TIP3   OH276849   4.837   1.545  12.112  0.1062  0.1545  0.0092
18453TIP3    H176850   4.916   1.598  12.122 -0.1922  0.3036  1.5938
18453TIP3    H276851   4.871   1.457  12.092  0.6620  0.3374  0.1313
18454TIP3   OH276852   3.310   0.169  13.215 -1.0145  0.1207 -0.4965
18454TIP3    H176853   3.338   0.147  13.304  0.9314  2.1184 -0.5745
18454TIP3    H276854   3.360   0.111  13.159 -1.1871 -0.1619 -0.3594
18455TIP3   OH276855   0.352   6.333  16.950  0.2492 -0.7091 -0.8119
18455TIP3    H176856   0.337   6.387  16.873 -0.0943  0.4918  0.0915
18455TIP3    H276857   0.415   6.382  17.003 -1.2475 -0.4279  0.7580
18456TIP3   OH276858   5.774   3.670   2.922 -0.0465  0.4538 -0.4236
18456TIP3    H176859   5.719   3.739   2.885 -0.8271 -0.6811 -1.4435
18456TIP3    H276860   5.814   3.628   2.846  2.5429  1.4753  0.3254
18457TIP3   OH276861   4.124   2.088  12.152  0.3329 -0.1394  0.1904
18457TIP3    H176862   4.166   2.003  12.141 -1.0689 -0.8332  0.0769
18457TIP3    H276863   4.089   2.086  12.241 -1.8877 -0.6897 -0.6656
18458TIP3   OH276864   6.003   2.854   1.501 -0.2752 -0.1529 -0.7343
18458TIP3    H176865   5.962   2.848   1.414  0.8336 -3.8311 -1.0666
18458TIP3    H276866   5.984   2.770   1.542  0.6979  0.9068  1.9664
18459TIP3   OH276867   0.603   4.672   4.272  0.1453  0.4485  0.2227
18459TIP3    H176868   0.565   4.668   4.184 -1.0575  0.1939  0.7385
18459TIP3    H276869   0.608   4.766   4.292  1.0881  0.5284 -0.3996
18460TIP3   OH276870   3.949   2.297  16.673  0.0285  0.2980 -0.2631
18460TIP3    H176871   3.994   2.360  16.730  1.2890 -0.9922  0.2161
18460TIP3    H276872   3.885   2.255  16.731  0.4876 -0.1742 -0.0919
18461TIP3   OH276873   0.933   6.806  11.071  0.0555 -0.1951 -0.1584
18461TIP3    H176874   0.911   6.842  11.158 -0.2714 -0.7386 -0.0149
18461TIP3    H276875   0.918   6.879  11.011  0.9444  0.3917  0.3213
18462TIP3   OH276876   2.950   2.155   5.038  0.6896 -0.1216  0.0200
18462TIP3    H176877   2.892   2.114   5.103 -0.6436 -0.8420 -1.5648
18462TIP3    H276878   2.996   2.081   4.998  2.2517  0.4037  0.8356
18463TIP3   OH276879   0.356   1.775  15.879 -0.5720  0.1126 -0.1956
18463TIP3    H176880   0.365   1.832  15.803  1.7086  0.1890  0.0948
18463TIP3    H276881   0.364   1.686  15.844  2.4840  0.1904  0.1321
18464TIP3   OH276882   1.077   1.122  15.103  0.1103 -0.4163 -0.2472
18464TIP3    H176883   0.989   1.102  15.135  0.6082 -0.1680  1.3422
18464TIP3    H276884   1.072   1.214  15.074 -0.5718 -0.9099 -1.7518
18465TIP3   OH276885   5.176   0.981  12.217  0.0238  0.1594  0.3692
18465TIP3    H176886   5.110   0.913  12.205  0.6644 -0.3374 -0.3940
18465TIP3    H276887   5.181   0.993  12.312 -0.9243 -0.0354  0.4470
18466TIP3   OH276888   6.762   6.751  15.331  0.0408 -0.6050  0.0992
18466TIP3    H176889   6.778   6.834  15.376  0.0159 -0.6292  0.1529
18466TIP3    H276890   6.695   6.771  15.266  1.5792 -0.0824 -1.3673
18467TIP3   OH276891   5.840   6.097  10.940  0.0071 -0.1478  0.2115
18467TIP3    H176892   5.892   6.174  10.916  2.1687 -1.7367 -0.3592
18467TIP3    H276893   5.783   6.082  10.865 -0.4507  0.9224  0.3459
18468TIP3   OH276894   0.389   1.078  13.682  0.7095  0.3076  0.3914
18468TIP3    H176895   0.412   1.146  13.619 -0.1091 -0.4803 -0.7946
18468TIP3    H276896   0.295   1.088  13.696  0.5796 -0.5701  0.1974
18469TIP3   OH276897   1.657   5.124  13.376 -0.1257  0.0355 -0.1276
18469TIP3    H176898   1.566   5.128  13.348 -0.1991  0.5491  0.1711
18469TIP3    H276899   1.675   5.211  13.411  0.3808 -0.1650  0.1168
18470TIP3   OH276900   0.858   1.043   0.585 -0.1191 -0.1593 -0.5968
18470TIP3    H176901   0.784   1.101   0.568  0.0334 -0.0362 -0.8351
18470TIP3    H276902   0.934   1.087   0.546 -0.5836 -2.2262 -4.0534
18471TIP3   OH276903   4.122   5.203   1.334 -0.3409 -0.2377 -0.2425
18471TIP3    H176904   4.155   5.291   1.314  0.6423 -0.3164  0.9677
18471TIP3    H276905   4.086   5.210   1.423 -0.7744 -0.9173 -0.3580
18472TIP3   OH276906   4.191   6.566   1.281 -0.5899 -0.3005 -0.0538
18472TIP3    H176907   4.235   6.558   1.365 -1.3047  3.8303  0.8193
18472TIP3    H276908   4.100   6.584   1.303 -0.8470  0.5487 -1.6926
18473TIP3   OH276909   1.295   5.733   6.032  0.1294  0.1262 -0.3068
18473TIP3    H176910   1.205   5.731   6.064  0.2469 -1.1933 -0.0485
18473TIP3    H276911   1.300   5.662   5.968  1.4285 -0.8368  0.8465
18474TIP3   OH276912   0.375   4.747  16.981  0.5198 -0.2749 -0.3581
18474TIP3    H176913   0.390   4.780  16.892 -0.4514  1.5892  0.1370
18474TIP3    H276914   0.297   4.692  16.972  0.2313  0.1637 -0.6224
18475TIP3   OH276915   5.938   2.831  15.725  0.1986 -0.2842  0.0026
18475TIP3    H176916   5.996   2.908  15.725  0.6150 -0.5574  2.2508
18475TIP3    H276917   5.850   2.867  15.729  0.3003  0.0918 -0.9554
18476TIP3   OH276918   4.519   4.834  14.122  0.1988  0.2448 -0.2676
18476TIP3    H176919   4.540   4.753  14.077  1.8134  0.3324  0.2974
18476TIP3    H276920   4.598   4.857  14.170 -0.6247  1.5279  0.5386
18477TIP3   OH276921   1.018   3.969   1.799  0.3075 -0.1390 -0.1893
18477TIP3    H176922   0.990   3.913   1.727 -0.6322  0.7999 -0.5531
18477TIP3    H276923   1.023   3.910   1.875  0.3368 -0.9180 -0.7889
18478TIP3   OH276924   3.318   1.833  14.197  0.5049  0.5002 -0.1272
18478TIP3    H176925   3.410   1.860  14.200  0.7131 -0.2365  0.2278
18478TIP3    H276926   3.295   1.838  14.104  0.6494  1.5082 -0.1184
18479TIP3   OH276927   3.804   3.347   1.301  0.3317 -0.3221 -0.0331
18479TIP3    H176928   3.818   3.426   1.248  1.5345  0.1301  0.9283
18479TIP3    H276929   3.747   3.377   1.373  1.4769 -0.1106  0.8011
18480TIP3   OH276930   5.930   4.211  13.014 -0.6212 -0.3776  0.2159
18480TIP3    H176931   6.014   4.242  12.978 -1.0019  1.3769  0.7933
18480TIP3    H276932   5.866   4.236  12.948 -0.7460 -1.5224 -0.1186
18481TIP3   OH276933   3.051   6.494   5.469 -0.2514 -0.7008 -0.2017
18481TIP3    H176934   3.035   6.400   5.477  2.1748 -1.0137  1.4201
18481TIP3    H276935   3.092   6.519   5.552  0.3430  1.5330 -1.1294
18482TIP3   OH276936   6.165   6.762  12.786 -0.2146 -0.2791 -0.2025
18482TIP3    H176937   6.230   6.712  12.737 -0.5457 -2.1562  1.1936
18482TIP3    H276938   6.137   6.702  12.855 -2.5671  0.9226 -0.0769
18483TIP3   OH276939   0.906   1.267   0.851  0.2946  0.7624 -0.2061
18483TIP3    H176940   0.823   1.282   0.806 -0.1130  1.8885  0.8783
18483TIP3    H276941   0.891   1.190   0.906  0.7107 -0.4535 -1.7683
18484TIP3   OH276942   3.304   1.191  15.890 -0.0556 -0.2880  0.0246
18484TIP3    H176943   3.242   1.191  15.963  2.4320 -0.3832  2.1993
18484TIP3    H276944   3.342   1.103  15.891  0.6074 -0.0207 -0.8891
18485TIP3   OH276945   3.196   4.647  13.022  0.1234  0.4430  0.1471
18485TIP3    H176946   3.241   4.672  13.103  0.6048 -2.7137  0.9337
18485TIP3    H276947   3.266   4.633  12.958 -0.1859  1.9145 -0.5211
18486TIP3   OH276948   5.666   4.810  11.056  0.0053  0.4351  0.6816
18486TIP3    H176949   5.696   4.801  10.966  0.2646  1.5378  0.6396
18486TIP3    H276950   5.577   4.776  11.057  0.1826 -0.0382  0.1228
18487TIP3   OH276951   2.062   5.642   2.707 -0.1661  0.0718  0.1134
18487TIP3    H176952   2.052   5.582   2.632  0.3476  0.7408 -0.4931
18487TIP3    H276953   1.973   5.654   2.740 -0.6160  1.0857 -1.4225
18488TIP3   OH276954   6.134   4.507  17.035 -0.1483  0.0605 -0.2944
18488TIP3    H176955   6.048   4.483  17.001 -2.0050  0.7644  3.5216
18488TIP3    H276956   6.133   4.603  17.038  0.4826  0.0569  0.3907
18489TIP3   OH276957   5.978   6.739   5.520 -0.2939  0.7425 -0.1200
18489TIP3    H176958   5.934   6.809   5.568 -0.9692  0.2193  0.0203
18489TIP3    H276959   5.907   6.692   5.476  0.0914 -0.2815  0.3463
18490TIP3   OH276960   4.707   5.635  11.723 -0.5181  0.2756  0.5585
18490TIP3    H176961   4.750   5.710  11.682 -1.0494 -0.2083 -0.9520
18490TIP3    H276962   4.761   5.560  11.699 -1.5064 -0.1747 -0.3465
18491TIP3   OH276963   0.241   6.792   2.635  0.3606  0.2856 -0.4873
18491TIP3    H176964   0.157   6.816   2.674  1.1280 -0.6190  1.8333
18491TIP3    H276965   0.278   6.875   2.604 -0.1941  1.0637  0.8936
18492TIP3   OH276966   2.357   2.090  14.434  0.1441 -0.2968 -0.4212
18492TIP3    H176967   2.445   2.073  14.399  0.2021  0.1654 -0.5100
18492TIP3    H276968   2.313   2.141  14.365 -0.0656 -0.2082 -0.2230
18493TIP3   OH276969   4.180   1.293   3.771  0.5241 -0.5142  0.0791
18493TIP3    H176970   4.089   1.321   3.761  0.8225  1.5277  2.5295
18493TIP3    H276971   4.228   1.343   3.705  0.0674 -0.5447 -0.2748
18494TIP3   OH276972   1.524   1.315   4.876 -0.0808 -0.3778 -0.1561
18494TIP3    H176973   1.515   1.357   4.961  0.7543  0.3112 -0.3973
18494TIP3    H276974   1.445   1.339   4.828 -0.4624 -0.6107  0.3535
18495TIP3   OH276975   4.370   0.556  12.715  0.3200  0.1590  0.3003
18495TIP3    H176976   4.421   0.613  12.772 -1.5187  1.2776  0.8436
18495TIP3    H276977   4.310   0.510  12.774 -1.1773  0.8727 -0.6313
18496TIP3   OH276978   5.775   4.131   1.873 -0.0100  0.5863  0.0338
18496TIP3    H176979   5.792   4.064   1.939 -0.9861 -0.1945 -0.4940
18496TIP3    H276980   5.760   4.211   1.923  2.8086  0.8031  0.5968
18497TIP3   OH276981   2.880   2.325  16.057  0.3006  0.1310  0.0918
18497TIP3    H176982   2.848   2.235  16.051 -0.6117  0.5348 -1.5292
18497TIP3    H276983   2.976   2.317  16.051  0.3154 -0.8375  1.5411
18498TIP3   OH276984   4.681   2.502   1.538 -0.2734 -0.0135  0.5845
18498TIP3    H176985   4.663   2.441   1.609  0.1818  0.4280  1.0890
18498TIP3    H276986   4.738   2.568   1.578 -0.2039  0.3609 -0.1320
18499TIP3   OH276987   2.869   1.057   5.090  0.2433 -0.1924  0.4537
18499TIP3    H176988   2.796   1.001   5.065 -0.4620 -0.3054  2.6456
18499TIP3    H276989   2.828   1.132   5.135  1.3763  0.4318  0.4682
18500TIP3   OH276990   6.386   2.474  14.776 -0.0072  0.2102  0.8481
18500TIP3    H176991   6.480   2.476  14.795  0.4543 -0.7581 -1.2450
18500TIP3    H276992   6.369   2.385  14.746 -1.0675  1.1090 -1.3144
18501TIP3   OH276993   3.526   0.951  13.422  0.1716 -0.1482  0.2935
18501TIP3    H176994   3.602   0.984  13.374  0.4096 -1.6486 -0.3804
18501TIP3    H276995   3.556   0.942  13.512  0.0382  1.6483  0.5453
18502TIP3   OH276996   3.857   1.436   4.668 -0.0977 -0.1466  0.6750
18502TIP3    H176997   3.824   1.374   4.603  2.0999 -0.3065 -0.3372
18502TIP3    H276998   3.822   1.521   4.640  1.4120 -0.0945 -1.2059
18503TIP3   OH276999   1.592   0.359   0.778  0.2875 -0.1338 -0.5473
18503TIP3    H177000   1.621   0.380   0.867 -0.5168 -1.0606 -0.0561
18503TIP3    H277001   1.668   0.317   0.737 -0.0446 -1.7645  0.4507
18504TIP3   OH277002   1.664   6.222  14.613  0.3965  0.1805  0.3905
18504TIP3    H177003   1.718   6.222  14.692 -0.5501  0.4386  1.0537
18504TIP3    H277004   1.620   6.307  14.613 -0.6582 -0.3519  0.3309
18505TIP3   OH277005   2.295   3.796  16.269  0.1447 -0.5218 -0.0182
18505TIP3    H177006   2.349   3.757  16.200  0.0242 -1.7704  0.5949
18505TIP3    H277007   2.310   3.891  16.259 -1.7744 -0.4907 -3.3406
18506TIP3   OH277008   2.225   1.960  12.298 -0.2285  0.9001 -0.2462
18506TIP3    H177009   2.175   1.994  12.373  0.2884 -0.7347  0.8811
18506TIP3    H277010   2.298   2.021  12.289 -0.9021  1.7456 -0.1426
18507TIP3   OH277011   5.181   0.087   2.442  0.1932  0.9041 -0.3419
18507TIP3    H177012   5.149   0.146   2.510  0.4116 -1.7200  2.1228
18507TIP3    H277013   5.101   0.049   2.404  0.1243  0.9951 -0.2892
18508TIP3   OH277014   2.828   4.015   1.933 -0.5933  0.1052  0.0332
18508TIP3    H177015   2.858   3.927   1.958 -0.1439  0.9439  2.6808
18508TIP3    H277016   2.889   4.043   1.865 -0.6219 -1.5488 -0.7054
18509TIP3   OH277017   3.322   3.928  11.201  0.2755  0.0954 -0.2591
18509TIP3    H177018   3.375   4.006  11.181  0.8958 -0.7055 -1.8331
18509TIP3    H277019   3.304   3.889  11.116 -0.8817 -0.9384  0.4497
18510TIP3   OH277020   0.755   6.375   4.045 -0.3538 -0.3937  0.1824
18510TIP3    H177021   0.683   6.324   4.008 -3.1392  0.9742  3.4123
18510TIP3    H277022   0.721   6.464   4.050  2.9490  1.0364 -1.6200
18511TIP3   OH277023   4.630   6.216  16.578  0.6594 -0.5423 -0.3019
18511TIP3    H177024   4.667   6.207  16.490 -1.0660  1.6553 -1.2831
18511TIP3    H277025   4.619   6.126  16.608  0.3161 -1.3473 -2.7428
18512TIP3   OH277026   1.951   3.161   5.440  0.5091  0.1974 -0.4604
18512TIP3    H177027   1.921   3.223   5.374 -0.0237 -0.0507 -0.4540
18512TIP3    H277028   1.963   3.213   5.519 -3.7658 -0.3419  0.6624
18513TIP3   OH277029   4.352   4.796  16.512  0.6712  0.2435 -0.2355
18513TIP3    H177030   4.414   4.799  16.439  0.6437 -2.9049 -0.4248
18513TIP3    H277031   4.278   4.745  16.479  0.5123 -0.9341  1.8547
18514TIP3   OH277032   1.051   2.181  10.773  0.0172 -0.4531 -0.3002
18514TIP3    H177033   1.093   2.267  10.782  0.5219 -0.6498 -0.6984
18514TIP3    H277034   1.023   2.158  10.862  1.1824 -0.5194  0.0608
18515TIP3   OH277035   3.460   5.911  14.348 -0.2502 -0.2759  0.1408
18515TIP3    H177036   3.394   5.883  14.411  0.4588  1.0528  1.5089
18515TIP3    H277037   3.476   5.833  14.294 -1.6507 -1.1129  0.9014
18516TIP3   OH277038   5.802   0.286  11.855 -0.7465  0.1256 -0.0548
18516TIP3    H177039   5.763   0.202  11.878  1.5600 -0.8457  0.3586
18516TIP3    H277040   5.798   0.337  11.936 -1.1273  0.0451 -0.0181
18517TIP3   OH277041   0.274   2.218   2.652 -0.2410 -0.4466  0.1910
18517TIP3    H177042   0.217   2.172   2.589 -0.6493 -0.4414  0.5551
18517TIP3    H277043   0.359   2.175   2.643 -0.2021 -0.2131 -0.6226
18518TIP3   OH277044   2.803   4.493  11.735 -0.0633 -0.3667 -0.4007
18518TIP3    H177045   2.755   4.575  11.745  2.0355  0.9081 -0.3713
18518TIP3    H277046   2.848   4.503  11.651  0.1818 -1.5073 -0.4072
18519TIP3   OH277047   5.245   1.279  11.943 -0.6445 -0.1386  0.1536
18519TIP3    H177048   5.155   1.246  11.946 -0.5401 -0.3743  0.8483
18519TIP3    H277049   5.281   1.256  12.029  0.2304 -0.4860 -0.3002
18520TIP3   OH277050   4.577   4.297   4.576  0.0107 -0.1805 -0.3832
18520TIP3    H177051   4.599   4.269   4.665 -2.3201 -0.0797  0.2469
18520TIP3    H277052   4.614   4.228   4.520 -1.3435 -1.9649  0.8586
18521TIP3   OH277053   1.450   3.859  15.241 -0.4044  0.3039 -0.1270
18521TIP3    H177054   1.413   3.851  15.153 -0.9557  1.1595  0.0159
18521TIP3    H277055   1.375   3.846  15.299  0.4038 -2.8100  0.2907
18522TIP3   OH277056   0.057   3.380  14.690 -0.1818 -0.1493  0.3945
18522TIP3    H177057   0.032   3.405  14.779 -1.6308 -0.6301  0.1479
18522TIP3    H277058   0.082   3.288  14.697 -0.9275 -0.3749  0.2082
18523TIP3   OH277059   6.628   5.454   2.334 -0.5790  0.1633 -0.0231
18523TIP3    H177060   6.560   5.515   2.306 -1.0140 -0.2077  0.2307
18523TIP3    H277061   6.696   5.463   2.268 -0.6951  0.8328 -0.0600
18524TIP3   OH277062   2.277   2.320   2.842 -0.3589 -0.0312  0.4096
18524TIP3    H177063   2.358   2.289   2.882 -0.7043 -0.3958  0.8353
18524TIP3    H277064   2.223   2.349   2.916 -0.4934  0.5055  0.1024
18525TIP3   OH277065   2.450   0.051   5.987 -0.5885  0.7274  0.3178
18525TIP3    H177066   2.375   0.095   6.029 -0.9893 -0.8345  1.3002
18525TIP3    H277067   2.511   0.035   6.059 -0.3298 -0.0866 -0.0828
18526TIP3   OH277068   0.148   6.786  12.529  0.0369 -0.2895 -0.1368
18526TIP3    H177069   0.112   6.861  12.481  3.1842  0.1112 -2.0285
18526TIP3    H277070   0.096   6.712  12.498 -0.8713  0.6206 -0.8481
18527TIP3   OH277071   5.217   2.253  15.480  0.2548  0.0975 -0.2908
18527TIP3    H177072   5.130   2.265  15.441  0.3545  2.3607  0.1102
18527TIP3    H277073   5.201   2.250  15.574  0.5849  0.1479 -0.2321
18528TIP3   OH277074   5.309   4.012  12.752 -0.1426  0.1119  0.4812
18528TIP3    H177075   5.262   4.088  12.717  1.7080  0.4807 -1.3576
18528TIP3    H277076   5.383   4.049  12.799  0.9316 -0.5202 -0.6648
18529TIP3   OH277077   4.123   4.515  16.143 -0.3483  0.5004 -0.2457
18529TIP3    H177078   4.183   4.484  16.075 -0.6074 -0.6857  0.0723
18529TIP3    H277079   4.068   4.440  16.164 -1.7754  1.5022 -0.3224
18530TIP3   OH277080   1.906   4.765   3.997 -0.0183 -0.3548  0.2567
18530TIP3    H177081   1.835   4.811   3.954  0.8433 -0.4495 -1.2925
18530TIP3    H277082   1.931   4.822   4.070 -0.8767  0.2339  0.0957
18531TIP3   OH277083   2.881   5.569   5.184  0.3696 -0.0003  0.0243
18531TIP3    H177084   2.872   5.590   5.277 -1.9267  0.6512 -0.3236
18531TIP3    H277085   2.954   5.507   5.181  0.8151  0.3671  2.1890
18532TIP3   OH277086   5.278   5.816   3.002  0.1205 -0.9101 -0.1438
18532TIP3    H177087   5.317   5.901   3.024 -0.9193 -0.6473  0.7521
18532TIP3    H277088   5.187   5.824   3.031 -0.1534 -2.0991 -0.6702
18533TIP3   OH277089   5.196   3.428  13.428  0.0034  0.4063  0.1998
18533TIP3    H177090   5.121   3.482  13.452 -0.0293  1.9924 -3.2201
18533TIP3    H277091   5.272   3.479  13.456 -0.1165 -0.3886  2.0446
18534TIP3   OH277092   6.732   1.440  16.254  0.0960  0.3174 -0.4078
18534TIP3    H177093   6.690   1.378  16.195  2.4719 -0.5509 -1.2269
18534TIP3    H277094   6.825   1.428  16.240  0.6512  2.3889  1.1847
18535TIP3   OH277095   1.793   4.771   2.837  0.0384  0.0677  0.2736
18535TIP3    H177096   1.723   4.712   2.865 -0.9733  1.2626  0.3187
18535TIP3    H277097   1.850   4.717   2.783  0.0066 -1.3438  1.6338
18536TIP3   OH277098   2.863   0.264  16.544 -0.1006  0.5246 -0.0819
18536TIP3    H177099   2.886   0.297  16.457  1.8870 -0.8047 -0.0847
18536TIP3    H277100   2.814   0.183  16.527 -0.5186  0.7485  0.0367
18537TIP3   OH277101   1.247   5.428  14.662  0.3609  0.0247  0.3641
18537TIP3    H177102   1.314   5.367  14.692  0.2344 -0.7839 -0.9282
18537TIP3    H277103   1.185   5.373  14.613  0.9197  1.3748 -1.9373
18538TIP3   OH277104   2.822   1.878  13.015 -0.7572 -0.1037  0.0441
18538TIP3    H177105   2.822   1.968  12.982 -0.6198  0.5178  1.7295
18538TIP3    H277106   2.735   1.865  13.051 -1.1284 -1.0168 -1.1403
18539TIP3   OH277107   6.736   6.019  12.662 -0.7817  0.5218  0.0666
18539TIP3    H177108   6.654   6.046  12.702 -0.6657  0.7721  0.1390
18539TIP3    H277109   6.784   6.101  12.647 -0.4129  0.3538  0.3176
18540TIP3   OH277110   0.129   4.171  10.844 -0.2982  0.1872 -0.4059
18540TIP3    H177111   0.053   4.165  10.786 -1.8486  0.3527  1.5569
18540TIP3    H277112   0.133   4.264  10.868  0.3092  0.1170 -0.2441
18541TIP3   OH277113   5.938   6.122   3.730 -0.2867  0.0838  0.3643
18541TIP3    H177114   5.986   6.189   3.779 -0.2031  0.3690 -0.1035
18541TIP3    H277115   5.989   6.042   3.744  0.3217  0.3829 -0.1221
18542TIP3   OH277116   5.284   5.390   5.970 -0.1775 -0.1405  0.1509
18542TIP3    H177117   5.196   5.375   6.003 -1.3336 -2.4822 -3.6842
18542TIP3    H277118   5.273   5.410   5.877  3.2121  1.3811 -0.0189
18543TIP3   OH277119   3.770   0.710  11.725 -0.5229  0.0943 -0.1762
18543TIP3    H177120   3.736   0.714  11.636  0.4209  0.4105 -0.5245
18543TIP3    H277121   3.826   0.632  11.726  0.4641  0.7926 -0.2209
18544TIP3   OH277122   1.742   5.533  10.721 -0.4508 -0.2450 -0.5075
18544TIP3    H177123   1.682   5.592  10.767 -0.3035 -1.4176  1.2797
18544TIP3    H277124   1.687   5.459  10.695  0.2629 -1.5551  1.5755
18545TIP3   OH277125   0.556   0.174  14.271 -0.4533 -0.1166 -0.1220
18545TIP3    H177126   0.466   0.149  14.247 -0.5914 -0.4842  0.7519
18545TIP3    H277127   0.547   0.261  14.310 -0.4293 -0.1485 -0.0461
18546TIP3   OH277128   0.225   1.458  13.571  0.2106 -0.3225  0.2952
18546TIP3    H177129   0.258   1.371  13.547  0.8631  0.3838 -1.4840
18546TIP3    H277130   0.131   1.454  13.552  0.0631 -0.9323  1.1281
18547TIP3   OH277131   1.040   4.913   3.078  0.3790  0.3830 -0.3513
18547TIP3    H177132   1.047   4.872   3.164  0.4735 -2.5385 -1.6825
18547TIP3    H277133   1.128   4.945   3.059  0.7095 -0.2700  0.0488
18548TIP3   OH277134   1.803   5.175  12.211 -0.1918  0.5688 -0.1285
18548TIP3    H177135   1.749   5.108  12.252  0.0844  0.9343  0.8479
18548TIP3    H277136   1.744   5.223  12.154 -0.6651  0.3069  0.1444
18549TIP3   OH277137   2.874   2.441  13.241  1.4403 -0.7113  1.0314
18549TIP3    H177138   2.911   2.365  13.287  1.1585 -0.3654  1.8525
18549TIP3    H277139   2.805   2.473  13.300 -1.0560 -2.1038 -1.0129
18550TIP3   OH277140   4.807   0.513   2.813 -0.1640 -0.0894  0.0141
18550TIP3    H177141   4.887   0.520   2.760 -0.7936  0.7834 -0.8427
18550TIP3    H277142   4.828   0.560   2.894  0.5429 -0.7571  0.2212
18551TIP3   OH277143   2.812   0.765   1.268 -0.3602  0.0346  0.3358
18551TIP3    H177144   2.875   0.727   1.207  0.5419  1.1794  0.5319
18551TIP3    H277145   2.810   0.703   1.341 -0.0536 -0.4084 -0.0279
18552TIP3   OH277146   2.423   0.151  14.517  0.1338  0.1228 -0.5168
18552TIP3    H177147   2.383   0.236  14.533 -1.7476 -0.8593  0.2074
18552TIP3    H277148   2.350   0.094  14.494  1.2175 -1.5674  0.1325
18553TIP3   OH277149   4.452   5.063  15.273 -0.8847 -0.1233  0.4837
18553TIP3    H177150   4.501   5.045  15.192 -1.2416 -0.3146  0.3110
18553TIP3    H277151   4.374   5.110  15.244  0.1633  1.9686  0.9461
18554TIP3   OH277152   5.934   3.969  16.589 -0.2244 -0.3333 -0.7453
18554TIP3    H177153   5.951   4.063  16.584  2.4742 -0.7198  0.1082
18554TIP3    H277154   5.880   3.958  16.667 -0.3695  0.5061 -0.7282
18555TIP3   OH277155   1.333   2.963   6.141  0.5915 -0.2696  0.0865
18555TIP3    H177156   1.337   2.957   6.236 -0.8680 -0.7284  0.1410
18555TIP3    H277157   1.353   2.875   6.110  0.0699 -0.3628  0.0119
18556TIP3   OH277158   1.708   3.907  14.217 -0.6171  0.2875 -0.1021
18556TIP3    H177159   1.683   3.999  14.212 -1.0278  0.1936  0.1826
18556TIP3    H277160   1.664   3.866  14.142  1.6354  0.7789 -1.7754
18557TIP3   OH277161   2.915   3.247   0.292 -0.3417 -0.4068 -0.4222
18557TIP3    H177162   2.962   3.195   0.226  1.8042 -0.3791  1.0487
18557TIP3    H277163   2.949   3.216   0.376 -0.9165  1.5880  0.5784
18558TIP3   OH277164   5.235   5.278  14.786  0.5883  0.0137 -0.0059
18558TIP3    H177165   5.284   5.342  14.838  1.3622 -1.1223  0.6736
18558TIP3    H277166   5.186   5.331  14.723 -0.2416  1.3806  1.7763
18559TIP3   OH277167   3.630   2.077   4.061 -0.3175  0.1352  0.0323
18559TIP3    H177168   3.570   2.125   4.003  0.3570  0.6201 -0.2647
18559TIP3    H277169   3.649   1.996   4.014  0.0522  0.4276 -0.3186
18560TIP3   OH277170   0.664   5.529  12.646 -0.2139  0.8109  0.3756
18560TIP3    H177171   0.603   5.495  12.711 -0.8829 -2.2535 -1.7446
18560TIP3    H277172   0.750   5.499  12.676 -0.5263 -0.6633 -0.1654
18561TIP3   OH277173   4.351   2.483   3.394  0.1793 -0.1497 -0.0368
18561TIP3    H177174   4.353   2.565   3.344 -0.5434 -0.2072 -0.1610
18561TIP3    H277175   4.259   2.460   3.399  0.2759 -0.3196  1.0552
18562TIP3   OH277176   0.697   5.516  14.501  0.1961 -0.3981  0.5020
18562TIP3    H177177   0.625   5.453  14.498  0.2710 -0.4496 -0.7618
18562TIP3    H277178   0.654   5.601  14.496  0.1817 -0.3989  0.6064
18563TIP3   OH277179   4.190   2.382  15.292 -0.6771 -0.2382 -0.4413
18563TIP3    H177180   4.184   2.439  15.215  1.6034 -1.5680 -1.6558
18563TIP3    H277181   4.180   2.293  15.257 -1.2123 -0.7647  1.0134
18564TIP3   OH277182   2.977   1.558  15.171 -0.1778 -0.8070  0.0962
18564TIP3    H177183   3.031   1.592  15.099 -0.5803 -1.4868 -0.5358
18564TIP3    H277184   3.040   1.525  15.234  0.1852 -0.1116  0.1117
18565TIP3   OH277185   2.496   3.585  11.247 -0.0714 -0.2608 -0.0009
18565TIP3    H177186   2.468   3.573  11.338  0.1783 -0.6649  0.0273
18565TIP3    H277187   2.510   3.496  11.214  1.9675 -0.0571  0.2551
18566TIP3   OH277188   6.303   3.453  14.084 -0.5241 -0.2023  0.0181
18566TIP3    H177189   6.210   3.470  14.072 -0.3666  2.4793  2.0248
18566TIP3    H277190   6.307   3.385  14.151 -1.0362  0.9510  1.2379
18567TIP3   OH277191   3.836   6.206  11.693 -0.1466  0.3588  0.4367
18567TIP3    H177192   3.853   6.117  11.723 -4.4589  0.0736  2.4708
18567TIP3    H277193   3.754   6.200  11.644  0.2816  2.9653 -0.7101
18568TIP3   OH277194   1.219   0.209  10.937  0.3325  0.3404  0.5386
18568TIP3    H177195   1.303   0.176  10.906  0.2812  1.2779 -0.6647
18568TIP3    H277196   1.157   0.182  10.869 -0.0504  1.0889  0.5883
18569TIP3   OH277197   1.650   4.408  13.184  0.4792  0.7164  0.0747
18569TIP3    H177198   1.668   4.320  13.151 -0.1890  0.9596 -0.9508
18569TIP3    H277199   1.575   4.396  13.243  1.7092  0.2735  1.5745
18570TIP3   OH277200   5.029   3.528   6.220 -0.2997 -0.4586 -0.1677
18570TIP3    H177201   5.083   3.540   6.298  1.5899 -0.6480 -1.4094
18570TIP3    H277202   4.939   3.529   6.252  0.4556 -0.5805  2.0119
18571TIP3   OH277203   2.323   6.584  12.303  0.2374 -0.0778 -0.4855
18571TIP3    H177204   2.266   6.508  12.304  1.3857 -0.9533 -0.5531
18571TIP3    H277205   2.267   6.657  12.329 -1.2405 -0.6829 -1.8952
18572TIP3   OH277206   4.149   3.965   5.178 -0.6694 -0.0115 -0.0255
18572TIP3    H177207   4.186   4.053   5.182 -0.2861 -0.1926  0.5227
18572TIP3    H277208   4.157   3.932   5.267  0.0780 -0.9667 -0.4449
18573TIP3   OH277209   0.722   4.850   1.872 -0.4195 -0.3039  0.1790
18573TIP3    H177210   0.684   4.787   1.934 -0.8241 -0.4087 -0.1724
18573TIP3    H277211   0.762   4.796   1.805  0.0994 -0.1884  0.3943
18574TIP3   OH277212   5.544   4.333  16.760  0.6069  0.3142 -0.0108
18574TIP3    H177213   5.624   4.342  16.811  0.5980 -1.3591  0.3150
18574TIP3    H277214   5.490   4.273  16.811 -0.3216  0.4089 -0.8725
18575TIP3   OH277215   2.460   2.751  10.889 -0.4015 -0.9091  0.2919
18575TIP3    H177216   2.429   2.686  10.825 -0.9721  0.1374 -0.5091
18575TIP3    H277217   2.547   2.719  10.914 -0.7758 -2.1242  0.1158
18576TIP3   OH277218   3.992   0.123   2.009 -0.0468  0.1560 -0.0918
18576TIP3    H177219   3.915   0.079   2.045  0.5663 -0.9342 -0.1095
18576TIP3    H277220   4.063   0.060   2.019  0.2845  0.1033 -2.5986
18577TIP3   OH277221   5.048   3.961  10.780 -0.0378  0.0019  0.2058
18577TIP3    H177222   5.078   4.051  10.789 -0.5057  0.3437 -1.4437
18577TIP3    H277223   5.119   3.908  10.818  0.0193  1.0738  1.6241
18578TIP3   OH277224   5.623   0.642  13.186 -0.4094  0.2572  0.2182
18578TIP3    H177225   5.582   0.728  13.177  1.3297  0.9807 -0.9789
18578TIP3    H277226   5.714   0.656  13.161 -0.8733 -2.6534 -3.4589
18579TIP3   OH277227   5.290   5.847  15.189  0.1258  0.2851  0.3354
18579TIP3    H177228   5.243   5.929  15.207 -0.9016  0.1969 -1.8946
18579TIP3    H277229   5.361   5.873  15.131 -0.9576 -0.6019 -1.4051
18580TIP3   OH277230   0.693   3.149   1.351  0.4151  0.1280 -0.5635
18580TIP3    H177231   0.707   3.142   1.445  0.9919  1.7739 -0.5195
18580TIP3    H277232   0.602   3.177   1.343 -0.0893 -1.4585 -0.5576
18581TIP3   OH277233   1.558   5.277   4.521 -0.5917  0.5189  0.4163
18581TIP3    H177234   1.644   5.241   4.500 -1.4290 -1.2645 -0.0515
18581TIP3    H277235   1.519   5.297   4.436 -0.2852  2.2231  0.6564
18582TIP3   OH277236   2.297   6.062  11.474 -0.0210 -1.0902  0.1674
18582TIP3    H177237   2.253   6.113  11.542 -1.1846 -1.6979 -0.1263
18582TIP3    H277238   2.246   5.981  11.467  0.8349 -1.5785 -0.5391
18583TIP3   OH277239   0.083   6.572   3.087  0.5656 -0.3104  0.4800
18583TIP3    H177240   0.058   6.561   3.179 -1.3914  0.3794  0.0464
18583TIP3    H277241   0.157   6.634   3.090  1.5101 -1.4636  1.6808
18584TIP3   OH277242   4.070   5.719  13.881 -0.0454 -0.2347 -0.3806
18584TIP3    H177243   4.150   5.727  13.829  0.3963 -1.1019  0.1570
18584TIP3    H277244   4.046   5.809  13.902  1.7728 -0.0453  0.9621
18585TIP3   OH277245   0.122   1.840  12.550  0.5095  0.2242  0.0272
18585TIP3    H177246   0.214   1.812  12.552  0.4226 -0.0300  2.0943
18585TIP3    H277247   0.073   1.759  12.566  0.0404  0.7534  1.3174
18586TIP3   OH277248   3.511   5.039   4.069 -1.0384 -0.0088  0.6160
18586TIP3    H177249   3.453   5.111   4.045  1.1500  0.8824 -2.2340
18586TIP3    H277250   3.591   5.054   4.018  0.9693 -2.2795  2.9463
18587TIP3   OH277251   2.238   1.633  14.604  0.1790  0.1568  0.1051
18587TIP3    H177252   2.162   1.575  14.608  1.4886 -1.7119 -1.1500
18587TIP3    H277253   2.247   1.655  14.511  1.0572  0.5087  0.2610
18588TIP3   OH277254   1.960   0.832  13.394 -0.1304  0.5179 -0.2665
18588TIP3    H177255   2.034   0.771  13.388 -0.5376  0.0199 -0.2944
18588TIP3    H277256   1.971   0.874  13.480 -0.2456 -0.1175  0.0634
18589TIP3   OH277257   3.499   2.206   3.842 -0.3206  0.3270  0.1607
18589TIP3    H177258   3.522   2.298   3.829 -0.1809  0.4600  1.2869
18589TIP3    H277259   3.408   2.200   3.815 -0.1258  0.6359 -0.5939
18590TIP3   OH277260   0.248   2.507  14.806 -0.4966  0.0317  0.0591
18590TIP3    H177261   0.239   2.412  14.810  0.1019  0.0372  2.4597
18590TIP3    H277262   0.176   2.535  14.749  0.3794 -1.9579 -2.1309
18591TIP3   OH277263   0.006   5.894  13.487  0.5457 -0.0673  0.6735
18591TIP3    H177264   0.061   5.856  13.419 -0.3439  1.3571 -0.8881
18591TIP3    H277265  -0.020   5.979  13.452 -1.6822 -0.2174  1.8699
18592TIP3   OH277266   5.844   2.662   0.213  0.2177 -0.1017  0.1849
18592TIP3    H177267   5.831   2.623   0.127  0.6342  0.0257  0.0611
18592TIP3    H277268   5.756   2.679   0.245  0.0494 -0.6923  0.0351
18593TIP3   OH277269   6.461   1.112  11.319 -0.0467  0.3269 -0.3383
18593TIP3    H177270   6.490   1.027  11.353  1.4697  0.9128 -0.1178
18593TIP3    H277271   6.409   1.091  11.242 -0.9880 -0.8756  0.6125
18594TIP3   OH277272   5.724   0.981  10.523  0.3603  0.6711  0.3413
18594TIP3    H177273   5.662   0.933  10.468  0.8526 -0.3612  0.6557
18594TIP3    H277274   5.675   1.057  10.554 -1.5328 -1.3370  2.4541
18595TIP3   OH277275   2.148   1.609  15.910  0.4392  0.3786  0.2490
18595TIP3    H177276   2.126   1.527  15.867 -1.5954  0.9030  0.2563
18595TIP3    H277277   2.155   1.586  16.003  0.4015  0.1112  0.1866
18596TIP3   OH277278   1.707   2.219   2.760  0.4261 -0.3725  0.1273
18596TIP3    H177279   1.773   2.245   2.697  1.6014  0.4346  1.6513
18596TIP3    H277280   1.693   2.297   2.814  0.0885 -1.3030  1.4133
18597TIP3   OH277281   6.046   2.703  12.295 -0.1839  0.6210 -0.4685
18597TIP3    H177282   5.952   2.690  12.281 -0.4282  1.7464  0.0952
18597TIP3    H277283   6.083   2.703  12.206 -0.7366  0.3765 -0.7021
18598TIP3   OH277284   2.625   3.626   5.777 -0.2145 -0.1556  0.7647
18598TIP3    H177285   2.636   3.632   5.682  1.8796 -0.4335  0.9709
18598TIP3    H277286   2.616   3.532   5.793 -1.0276 -0.0742  0.8017
18599TIP3   OH277287   6.626   4.932   1.683 -0.3947  0.1313 -0.1363
18599TIP3    H177288   6.690   4.872   1.721  1.1678  0.9497 -1.4738
18599TIP3    H277289   6.597   4.889   1.603 -1.7818 -0.3719  0.6004
18600TIP3   OH277290   6.736   5.004   6.763 -0.0647 -0.2253  0.0312
18600TIP3    H177291   6.779   5.041   6.840  1.5175 -0.5417 -0.6867
18600TIP3    H277292   6.714   4.914   6.789  2.3059 -1.0096 -0.5429
18601TIP3   OH277293   5.639   0.946  13.009  0.1451  0.4054  0.4758
18601TIP3    H177294   5.556   0.985  12.980 -0.7095 -1.5022  0.2977
18601TIP3    H277295   5.687   0.928  12.929 -0.5574 -1.2652  0.4217
18602TIP3   OH277296   0.929   2.389  15.800  0.6213 -0.0927 -0.1007
18602TIP3    H177297   0.873   2.312  15.803  0.1158  0.3056  0.7828
18602TIP3    H277298   0.926   2.425  15.888  0.5984  1.1300 -0.5881
18603TIP3   OH277299   3.056   3.264  13.033 -0.0024  0.0786 -0.5993
18603TIP3    H177300   3.039   3.292  12.943  0.8633  1.4734 -0.3530
18603TIP3    H277301   3.008   3.327  13.086  1.2216  0.5563 -0.0452
18604TIP3   OH277302   0.560   0.928  13.882 -0.2785 -0.6505 -0.9546
18604TIP3    H177303   0.561   0.977  13.800  0.3280 -1.1691 -1.2634
18604TIP3    H277304   0.608   0.848  13.863 -0.5307 -0.9851 -0.2177
18605TIP3   OH277305   6.441   6.294  11.790 -0.0724  0.1127 -0.1365
18605TIP3    H177306   6.403   6.373  11.828 -1.2455 -0.3105 -0.3979
18605TIP3    H277307   6.464   6.240  11.866  0.0995  0.4210  0.0310
18606TIP3   OH277308   0.255   3.266   0.316  0.0312  0.3378  0.3368
18606TIP3    H177309   0.313   3.198   0.350  1.6266  1.6927  0.3606
18606TIP3    H277310   0.290   3.288   0.230 -1.1000  0.3842 -0.1224
18607TIP3   OH277311   0.529   3.813   3.848  0.4493  0.0231  0.4998
18607TIP3    H177312   0.451   3.758   3.853  0.4179  0.0747  0.5749
18607TIP3    H277313   0.557   3.807   3.757 -0.4416  1.1076  0.1392
18608TIP3   OH277314   5.677   3.887   1.439  0.1174 -0.1735 -0.5759
18608TIP3    H177315   5.684   3.902   1.533  1.4489  0.4348 -0.7640
18608TIP3    H277316   5.609   3.820   1.431 -0.3398  0.1073  0.7803
18609TIP3   OH277317   2.565   3.399  14.181  0.2508 -0.3830 -0.3837
18609TIP3    H177318   2.659   3.413  14.181  0.1502  0.3059 -0.0265
18609TIP3    H277319   2.547   3.357  14.097  0.4483  2.5860 -1.9953
18610TIP3   OH277320   1.855   1.014  16.095 -0.3242  0.2006  0.0886
18610TIP3    H177321   1.903   0.960  16.157  1.2922 -0.4460 -1.6698
18610TIP3    H277322   1.811   0.951  16.038  0.2004  0.7421 -0.9265
18611TIP3   OH277323   0.517   0.653   3.421 -0.1002 -0.1254 -0.0684
18611TIP3    H177324   0.484   0.721   3.480 -0.7919 -0.5101 -0.0053
18611TIP3    H277325   0.520   0.695   3.335  0.5908  0.3353  0.1771
18612TIP3   OH277326   0.555   0.883  14.276  0.1077 -0.3430 -0.0276
18612TIP3    H177327   0.567   0.801  14.228 -0.1471 -0.1966 -0.3486
18612TIP3    H277328   0.485   0.928  14.228 -1.2233 -0.8682  1.3898
18613TIP3   OH277329   0.407   4.131  11.826  0.4002 -0.0437  0.1911
18613TIP3    H177330   0.489   4.152  11.783 -0.0747  0.7303 -0.3437
18613TIP3    H277331   0.411   4.036  11.840  0.7445 -0.2398 -1.1517
18614TIP3   OH277332   6.673   2.038  13.984  0.2690 -0.3741 -0.8783
18614TIP3    H177333   6.656   1.948  14.008 -0.1356 -0.4311 -1.3785
18614TIP3    H277334   6.620   2.053  13.906 -0.2193  0.5137 -0.3862
18615TIP3   OH277335   6.240   3.713  17.199  0.1365 -0.0184  0.3495
18615TIP3    H177336   6.147   3.693  17.189  0.6935 -0.8680 -3.9204
18615TIP3    H277337   6.243   3.807  17.218 -1.5388  0.4284 -1.4436
18616TIP3   OH277338   0.796   3.749  15.183 -0.0207  0.6853  0.1246
18616TIP3    H177339   0.750   3.670  15.211  1.2303 -0.8559 -2.0076
18616TIP3    H277340   0.730   3.802  15.140 -0.6190  0.2356  0.4880
18617TIP3   OH277341   1.709   6.537  14.697  0.0531 -0.4173 -0.3124
18617TIP3    H177342   1.776   6.504  14.756 -0.1138  0.5003  0.3981
18617TIP3    H277343   1.756   6.555  14.615  0.8011  0.7185  0.3449
18618TIP3   OH277344   0.032   0.364  10.571 -0.2868  0.1845 -0.1103
18618TIP3    H177345   0.104   0.381  10.510 -1.7011  2.6704 -1.1668
18618TIP3    H277346  -0.027   0.305  10.523 -1.1934  1.8109 -1.0341
18619TIP3   OH277347   3.848   3.050   1.796 -0.2123 -0.4550 -0.1133
18619TIP3    H177348   3.778   2.996   1.832  0.7894 -0.8254  1.3357
18619TIP3    H277349   3.904   2.987   1.748 -0.6124 -0.2332 -0.8802
18620TIP3   OH277350   4.084   3.765  13.580 -0.0577  0.3190 -0.2586
18620TIP3    H177351   4.082   3.778  13.675  2.4762  2.3448 -0.4283
18620TIP3    H277352   4.036   3.839  13.544  0.1488  0.2926 -0.5918
18621TIP3   OH277353   3.689   4.581   0.000  0.8996  0.1432  0.1743
18621TIP3    H177354   3.711   4.520   0.071 -0.2400 -0.0616  0.3591
18621TIP3    H277355   3.715   4.536  -0.080  2.3842  0.4585  0.4654
18622TIP3   OH277356   5.084   0.022   6.171  0.4968  0.1099  0.1282
18622TIP3    H177357   5.041   0.107   6.178  1.1322  0.4425  0.0366
18622TIP3    H277358   5.127   0.009   6.256  1.7992  0.6520 -0.4349
18623TIP3   OH277359   0.540   5.383  16.714 -0.1493 -0.0182  0.2644
18623TIP3    H177360   0.456   5.424  16.734 -0.5457 -0.6523 -0.1003
18623TIP3    H277361   0.520   5.316  16.650  1.0161  1.5615 -1.8050
18624TIP3   OH277362   3.138   4.190   0.376  0.4499  0.3698  0.0236
18624TIP3    H177363   3.211   4.185   0.315 -1.9393  0.5728 -2.9993
18624TIP3    H277364   3.120   4.284   0.385 -0.7562  0.2455 -0.9428
18625TIP3   OH277365   5.257   0.173  16.533 -0.4549  0.6438  0.3124
18625TIP3    H177366   5.268   0.240  16.600 -0.2377  3.0058 -2.0085
18625TIP3    H277367   5.181   0.201  16.483  0.5348 -0.0264 -1.6201
18626TIP3   OH277368   2.790   5.860   5.358 -0.6315  0.3850  0.2849
18626TIP3    H177369   2.744   5.942   5.338  0.5836  0.7724 -1.0496
18626TIP3    H277370   2.875   5.889   5.393 -0.8384 -0.3080  1.3607
18627TIP3   OH277371   6.695   5.329   1.107  0.2107  0.0116 -0.3101
18627TIP3    H177372   6.788   5.332   1.128 -0.3347 -1.0510  2.5941
18627TIP3    H277373   6.668   5.240   1.131 -1.3241 -0.0483 -2.1735
18628TIP3   OH277374   3.733   1.719  13.583  0.2264 -0.0416  0.3500
18628TIP3    H177375   3.694   1.637  13.615 -1.4547  0.7817  0.4657
18628TIP3    H277376   3.725   1.713  13.487  0.5163 -0.2066  0.3364
18629TIP3   OH277377   4.566   0.797   2.447 -0.4451 -0.2937  0.0072
18629TIP3    H177378   4.557   0.882   2.490  2.7291  0.8754 -1.5221
18629TIP3    H277379   4.614   0.743   2.510 -0.0972 -0.1190 -0.1103
18630TIP3   OH277380   2.978   1.088  14.222 -0.4964 -0.3971 -0.1269
18630TIP3    H177381   2.953   0.996  14.215 -0.9281 -0.2060 -1.1301
18630TIP3    H277382   2.919   1.134  14.162 -0.8229  0.6350  0.9665
18631TIP3   OH277383   0.798   1.754   0.851  0.2316 -0.6536  0.0930
18631TIP3    H177384   0.737   1.826   0.838  0.5853 -0.6415 -1.6720
18631TIP3    H277385   0.808   1.747   0.946  0.1810  1.6065  0.2899
18632TIP3   OH277386   3.877   3.976   4.065  0.4683  0.1113  0.4420
18632TIP3    H177387   3.787   3.998   4.088  0.1834 -1.3179  0.7277
18632TIP3    H277388   3.919   3.958   4.149  0.5641 -0.8923  0.1836
18633TIP3   OH277389   2.992   0.296  10.760  0.4961 -0.2438  0.1463
18633TIP3    H177390   2.909   0.265  10.724  0.1790 -0.7700  1.2929
18633TIP3    H277391   3.047   0.217  10.764  1.4604  0.3125 -1.6811
18634TIP3   OH277392   6.114   6.102   4.461 -0.1711  0.3552  0.0282
18634TIP3    H177393   6.208   6.092   4.474 -0.1394 -0.7618 -1.0111
18634TIP3    H277394   6.105   6.183   4.411  0.2431  0.3261 -0.0906
18635TIP3   OH277395   0.396   6.472  13.042  0.4610  0.0945 -0.0126
18635TIP3    H177396   0.439   6.528  13.105 -0.2911  0.0206  0.5730
18635TIP3    H277397   0.467   6.429  12.995  1.1189  2.9050 -1.7549
18636TIP3   OH277398   1.710   0.519   3.785 -0.4456  0.6751 -0.3529
18636TIP3    H177399   1.615   0.528   3.779 -0.5116  0.3252  0.1068
18636TIP3    H277400   1.726   0.426   3.766 -0.0745  1.0123 -1.7639
18637TIP3   OH277401   1.909   6.236   4.185  0.3442 -0.3574  0.7474
18637TIP3    H177402   1.927   6.313   4.131 -0.6120 -0.3050  0.5068
18637TIP3    H277403   1.814   6.226   4.183  0.1468  0.3924  3.4485
18638TIP3   OH277404   3.940   1.589  11.714  0.0121  0.2063  0.4323
18638TIP3    H177405   3.882   1.538  11.770 -0.5355 -0.5143 -0.7668
18638TIP3    H277406   3.940   1.542  11.630  0.9784  1.1393 -0.1018
18639TIP3   OH277407   6.443   4.031   2.288 -0.5105 -0.4729 -0.3398
18639TIP3    H177408   6.408   3.991   2.367 -2.1759  0.8369 -0.3792
18639TIP3    H277409   6.536   4.043   2.306 -0.8262 -0.3893  1.3168
18640TIP3   OH277410   1.264   0.927   1.915 -0.3692 -0.1523 -0.3545
18640TIP3    H177411   1.266   1.018   1.886 -0.0129  0.0840  0.3917
18640TIP3    H277412   1.184   0.891   1.877  0.6168 -0.1533 -2.4556
18641TIP3   OH277413   3.091   1.947  12.815  0.1578  0.0877 -0.2747
18641TIP3    H177414   3.087   1.895  12.735  0.9684 -0.4082 -0.0045
18641TIP3    H277415   3.102   2.037  12.786 -3.6922  0.4640 -0.8262
18642TIP3   OH277416   5.342   6.579   3.228 -0.5480  0.3330  0.2402
18642TIP3    H177417   5.336   6.617   3.140 -0.9807 -2.4502 -0.9917
18642TIP3    H277418   5.293   6.640   3.284 -2.2315  0.9534 -1.8475
18643TIP3   OH277419   3.683   1.917   2.729  0.5200 -0.2182 -0.4019
18643TIP3    H177420   3.714   1.955   2.647 -0.1003 -0.0051 -0.5356
18643TIP3    H277421   3.740   1.955   2.796 -0.8017  1.7973 -0.4080
18644TIP3   OH277422   1.773   0.270   4.092 -0.4851  0.0764  0.4163
18644TIP3    H177423   1.791   0.350   4.140 -0.3965 -0.2216  0.8773
18644TIP3    H277424   1.680   0.277   4.068 -0.4516  0.3611  0.3655
18645TIP3   OH277425   5.570   0.804   4.866  0.4576  0.5989  0.1173
18645TIP3    H177426   5.491   0.781   4.817 -0.1375  2.1974  0.3042
18645TIP3    H277427   5.637   0.745   4.831 -0.2397  0.8923 -1.7850
18646TIP3   OH277428   6.030   4.351  14.703 -0.0921  0.0431  0.1856
18646TIP3    H177429   5.955   4.360  14.643  0.6102 -1.7741 -0.9919
18646TIP3    H277430   6.103   4.392  14.655  0.0428  0.3517  0.6507
18647TIP3   OH277431   4.799   3.917  10.940 -0.3722 -0.3006  0.5294
18647TIP3    H177432   4.860   3.980  10.980 -2.1804  1.0966  1.1766
18647TIP3    H277433   4.855   3.847  10.907  1.7278  1.6030 -0.1400
18648TIP3   OH277434   0.185   6.279   0.772 -0.0669  0.3568 -0.1349
18648TIP3    H177435   0.240   6.350   0.808 -1.1991  1.3054 -0.2550
18648TIP3    H277436   0.108   6.277   0.829 -0.3643 -0.3140 -0.5597
18649TIP3   OH277437   1.384   4.087   1.101 -0.4263  0.3569 -0.2024
18649TIP3    H177438   1.360   4.162   1.155 -2.8864  0.9237 -2.0557
18649TIP3    H277439   1.449   4.121   1.039  0.3262  0.3340  0.5541
18650TIP3   OH277440   3.633   3.269  11.099 -0.1864 -0.6951 -0.1264
18650TIP3    H177441   3.580   3.269  11.179  0.1156 -0.0986  0.0780
18650TIP3    H277442   3.575   3.232  11.032 -1.4557  1.4552 -0.2789
18651TIP3   OH277443   2.032   3.326   1.390 -0.3473 -0.1548 -0.4268
18651TIP3    H177444   2.032   3.240   1.348  1.0493 -0.5403  0.3242
18651TIP3    H277445   2.046   3.307   1.483 -0.9239  0.8394 -0.1356
18652TIP3   OH277446   6.762   1.277  11.884  0.3156  0.3549 -0.6352
18652TIP3    H177447   6.669   1.258  11.887 -0.2512  2.8244 -1.4692
18652TIP3    H277448   6.804   1.195  11.910 -2.0782 -0.6376  0.2569
18653TIP3   OH277449   0.247   1.999  14.344 -0.1053  0.3045  0.3154
18653TIP3    H177450   0.221   1.990  14.252  0.5449 -0.7387  0.2132
18653TIP3    H277451   0.252   2.093  14.359 -0.5034  0.4855 -0.6373
18654TIP3   OH277452   4.681   3.549   5.786 -0.8519  0.5725  0.4712
18654TIP3    H177453   4.735   3.529   5.710 -0.5841  1.2716  0.4790
18654TIP3    H277454   4.621   3.474   5.792 -0.9743  0.5812 -0.5065
18655TIP3   OH277455   0.704   5.060   2.343  0.1932  0.5194  0.0053
18655TIP3    H177456   0.752   5.060   2.426  0.2830  0.6496 -0.0461
18655TIP3    H277457   0.675   4.970   2.332 -0.7625  0.7262  0.7280
18656TIP3   OH277458   1.440   0.354   0.487  0.6636 -0.3250 -0.4423
18656TIP3    H177459   1.392   0.390   0.412  0.6089 -0.6128 -0.5457
18656TIP3    H277460   1.532   0.375   0.469  0.4689  1.2678  0.3278
18657TIP3   OH277461   4.710   3.800  15.236 -0.8880 -0.3774 -0.5144
18657TIP3    H177462   4.728   3.812  15.143 -0.1020  0.8228 -0.2154
18657TIP3    H277463   4.651   3.873  15.259  0.8775  0.7680  0.4698
18658TIP3   OH277464   1.196   3.546   4.956 -0.3084  0.0734  0.4759
18658TIP3    H177465   1.171   3.549   5.049  0.3052  0.0581  0.6457
18658TIP3    H277466   1.141   3.477   4.919  1.4021 -1.9105  1.4621
18659TIP3   OH277467   3.431   3.946  10.536 -0.2094  0.1764  0.1650
18659TIP3    H177468   3.443   4.026  10.485 -0.8961  0.6394  0.7242
18659TIP3    H277469   3.518   3.905  10.536 -0.0160  0.5706 -0.6963
18660TIP3   OH277470   6.771   0.857  14.758 -0.0341  0.3917  0.4355
18660TIP3    H177471   6.769   0.848  14.853  1.1764  0.9964  0.5178
18660TIP3    H277472   6.680   0.875  14.734 -0.2725  0.6513  1.5125
18661TIP3   OH277473   1.629   5.202   0.927 -0.2831  0.0730  0.4806
18661TIP3    H177474   1.690   5.132   0.905 -1.3264 -0.5871 -0.3845
18661TIP3    H277475   1.671   5.282   0.893  1.1650 -0.0402  1.9733
18662TIP3   OH277476   4.971   5.026  12.820  0.3185  0.2462  0.6221
18662TIP3    H177477   5.054   4.978  12.820  0.2373  0.0886 -0.2964
18662TIP3    H277478   4.989   5.107  12.868  1.1370  0.4406 -0.0115
18663TIP3   OH277479   6.545   0.881   1.453  0.2823 -0.3840 -0.4184
18663TIP3    H177480   6.583   0.868   1.367 -0.2164 -2.6698 -0.3234
18663TIP3    H277481   6.607   0.838   1.513  0.8061  1.4811  0.4271
18664TIP3   OH277482   3.091   2.230   1.207  0.5693  0.1840  0.4147
18664TIP3    H177483   3.122   2.247   1.118  0.8162  0.6418  0.5870
18664TIP3    H277484   3.049   2.145   1.201  1.0561 -0.0323 -0.0277
18665TIP3   OH277485   4.156   2.176   4.324 -0.2990 -0.5748 -0.0434
18665TIP3    H177486   4.070   2.211   4.301 -0.8680  0.3133  3.2841
18665TIP3    H277487   4.146   2.081   4.317 -0.7799 -0.3994 -2.1391
18666TIP3   OH277488   2.504   0.064  14.878 -0.0270  0.5592 -0.2018
18666TIP3    H177489   2.438   0.043  14.944 -0.4559  0.2518 -0.7217
18666TIP3    H277490   2.459   0.123  14.817  0.2943  0.6529 -0.3500
18667TIP3   OH277491   2.444   4.648   1.388  0.3299  0.5034 -0.2362
18667TIP3    H177492   2.486   4.638   1.303  0.0013 -1.3305 -0.2178
18667TIP3    H277493   2.496   4.714   1.434  0.6021  1.3902 -1.7913
18668TIP3   OH277494   4.601   1.179  15.600 -0.2277  0.5179 -0.0248
18668TIP3    H177495   4.590   1.266  15.639 -1.8051 -0.0758  0.9002
18668TIP3    H277496   4.531   1.173  15.535  1.1558  0.7228 -1.5625
18669TIP3   OH277497   6.674   6.347   0.059 -0.0614 -0.6530  0.2974
18669TIP3    H177498   6.702   6.438   0.042  0.7247 -0.7484  1.0414
18669TIP3    H277499   6.701   6.299  -0.019  1.5229 -0.6630  0.8394
18670TIP3   OH277500   3.500   2.604   4.753  0.1310  0.5304  0.2038
18670TIP3    H177501   3.468   2.596   4.843 -0.1562 -0.4111  0.0295
18670TIP3    H277502   3.447   2.674   4.714 -1.2325 -0.5161  0.1388
18671TIP3   OH277503   0.885   4.064   2.373 -0.2822  0.4588 -0.8643
18671TIP3    H177504   0.956   4.115   2.334 -0.1120  0.7270 -0.2019
18671TIP3    H277505   0.805   4.103   2.338 -0.1578  1.3174 -0.1952
18672TIP3   OH277506   5.455   4.892  10.429  0.4553  0.1322 -0.1020
18672TIP3    H177507   5.466   4.859  10.518  0.7542 -1.0252 -0.5615
18672TIP3    H277508   5.375   4.848  10.398  0.3317  0.5645 -0.3932
18673TIP3   OH277509   4.457   2.192  14.726  0.3121  0.7365  0.2135
18673TIP3    H177510   4.478   2.185  14.819 -2.7599  1.6970  1.0090
18673TIP3    H277511   4.510   2.266  14.695  2.3409 -0.3956  0.8409
18674TIP3   OH277512   6.324   5.469   2.282 -0.3267 -0.3937 -0.2096
18674TIP3    H177513   6.244   5.417   2.272 -1.1668  0.4193  2.0075
18674TIP3    H277514   6.295   5.560   2.280  0.7934 -0.0303 -1.1660
18675TIP3   OH277515   6.597   5.806  16.402 -0.0632  0.0463  0.4449
18675TIP3    H177516   6.553   5.733  16.357 -1.9837  1.5585 -0.2132
18675TIP3    H277517   6.542   5.882  16.383  0.6720  1.2669  2.9897
18676TIP3   OH277518   3.850   6.769  11.803 -0.4969 -0.0293  0.0638
18676TIP3    H177519   3.821   6.784  11.892 -1.0538 -0.0140 -0.1216
18676TIP3    H277520   3.788   6.817  11.748  0.1368  0.3840 -0.3107
18677TIP3   OH277521   6.235   3.943  15.589 -0.7520  0.0076  0.3003
18677TIP3    H177522   6.228   4.037  15.601 -0.6773  0.0467  0.0433
18677TIP3    H277523   6.145   3.911  15.590 -0.7816  0.0916  0.3104
18678TIP3   OH277524   2.057   4.801  13.078 -0.2994 -0.2994  0.6026
18678TIP3    H177525   2.093   4.758  13.156 -0.5982 -0.6859  0.5316
18678TIP3    H277526   1.982   4.849  13.110 -1.4672 -1.8686  0.2784
18679TIP3   OH277527   2.244   1.709   4.331  0.7801  0.0114  0.0493
18679TIP3    H177528   2.283   1.705   4.419  0.1225  2.7839  0.5223
18679TIP3    H277529   2.168   1.765   4.342  1.8036  2.0139 -2.6867
18680TIP3   OH277530   3.561   0.583  13.413  0.3798 -0.2956 -0.3776
18680TIP3    H177531   3.520   0.665  13.385 -0.4160 -0.3910  0.4770
18680TIP3    H277532   3.550   0.583  13.508  2.9866 -0.0088 -0.0623
18681TIP3   OH277533   5.398   0.834  13.175  0.3991 -0.5953  0.5227
18681TIP3    H177534   5.302   0.836  13.175  0.4351  2.3377  1.0286
18681TIP3    H277535   5.423   0.878  13.094  1.3190 -0.6486  0.7750
18682TIP3   OH277536   4.637   3.670   3.063  0.0708  0.0313  0.1385
18682TIP3    H177537   4.595   3.705   3.142  1.1185 -0.6465  1.0220
18682TIP3    H277538   4.595   3.585   3.049 -0.3637  0.3062 -0.2524
18683TIP3   OH277539   3.762   1.920  13.770  0.5257 -0.4688  0.2760
18683TIP3    H177540   3.776   1.870  13.851 -0.5682  0.7352  1.2189
18683TIP3    H277541   3.738   1.854  13.705 -1.1969 -1.1497  1.5776
18684TIP3   OH277542   2.351   3.413  15.857 -0.0430 -0.4749 -0.4493
18684TIP3    H177543   2.338   3.348  15.925  1.6452 -0.4618 -0.0936
18684TIP3    H277544   2.349   3.364  15.775 -0.4299 -0.7211 -0.2946
18685TIP3   OH277545   0.202   0.483   3.844  0.0847  0.3100 -0.0853
18685TIP3    H177546   0.213   0.527   3.759  0.7852 -0.5406 -0.4457
18685TIP3    H277547   0.108   0.466   3.851 -0.1270  1.4457 -0.1532
18686TIP3   OH277548   4.285   2.205  16.333  0.1172  0.3175 -0.0779
18686TIP3    H177549   4.253   2.295  16.339  1.3974  0.8186 -0.4634
18686TIP3    H277550   4.374   2.209  16.368  0.1227 -0.8353  0.0508
18687TIP3   OH277551   5.883   6.147   4.154  0.4174 -0.0039  0.0667
18687TIP3    H177552   5.808   6.089   4.142  0.8999 -0.1352 -2.8006
18687TIP3    H277553   5.951   6.111   4.096  1.9723  1.3243  0.9976
18688TIP3   OH277554   1.140   5.927   6.265 -0.0830 -0.0083  0.0740
18688TIP3    H177555   1.104   5.892   6.346  0.9878 -0.9890  0.1463
18688TIP3    H277556   1.098   5.875   6.196  0.7517 -0.7739  0.1301
18689TIP3   OH277557   5.115   1.454  12.691 -0.0665 -0.0920  0.5376
18689TIP3    H177558   5.192   1.430  12.743 -0.2650  0.1184  0.9315
18689TIP3    H277559   5.044   1.458  12.754 -0.4333 -0.4274  0.1502
18690TIP3   OH277560   5.942   4.652   1.353  0.2514  0.4427  0.0488
18690TIP3    H177561   6.030   4.635   1.388 -0.5807 -1.1020  1.4740
18690TIP3    H277562   5.893   4.572   1.373 -0.6350 -0.0032 -3.5551
18691TIP3   OH277563   4.959   1.969   1.592  0.2494 -0.4073  0.1322
18691TIP3    H177564   5.048   1.936   1.593  0.0356 -1.0010  2.3749
18691TIP3    H277565   4.911   1.912   1.652 -0.9263  1.8511  1.4090
18692TIP3   OH277566   0.387   3.225  16.808  0.5657  0.0519  0.4666
18692TIP3    H177567   0.308   3.198  16.761  0.7082  1.7631 -0.8495
18692TIP3    H277568   0.458   3.176  16.767  0.3860 -0.2586  0.5289
18693TIP3   OH277569   0.605   1.258   2.828  0.5316  0.3271 -0.2802
18693TIP3    H177570   0.610   1.310   2.909  2.9432 -1.4335  0.7782
18693TIP3    H277571   0.577   1.321   2.761  0.0308  2.1904  1.6074
18694TIP3   OH277572   3.277   4.632   5.353  0.5156 -0.0559  0.0542
18694TIP3    H177573   3.303   4.621   5.261  0.6775 -1.1503  0.2267
18694TIP3    H277574   3.182   4.643   5.349  0.1970 -2.5917 -0.0625
18695TIP3   OH277575   2.121   4.265  15.779  0.2550 -0.2337  0.3239
18695TIP3    H177576   2.096   4.225  15.696  1.7380  0.1859 -0.3433
18695TIP3    H277577   2.045   4.317  15.804 -0.3335 -0.6401 -0.5978
18696TIP3   OH277578   5.040   6.471   6.339 -0.6607  0.2248  0.3154
18696TIP3    H177579   5.126   6.509   6.358 -0.7665  0.5098  0.2290
18696TIP3    H277580   4.981   6.513   6.401 -0.9413  0.8796 -0.3765
18697TIP3   OH277581   4.471   4.633  12.943  0.0429 -0.7818 -0.3780
18697TIP3    H177582   4.494   4.555  12.893  4.0352 -0.0764  0.1718
18697TIP3    H277583   4.462   4.603  13.033 -0.9533 -1.0168 -0.5526
18698TIP3   OH277584   2.669   6.653   5.666  0.2081 -0.0642  0.0079
18698TIP3    H177585   2.618   6.572   5.672 -1.5564  0.9281 -1.2354
18698TIP3    H277586   2.640   6.704   5.742  0.5828 -0.1832  0.2313
18699TIP3   OH277587   3.077   6.566   0.343 -0.2920 -0.2171  0.6396
18699TIP3    H177588   3.070   6.582   0.437 -2.1407 -2.0160  0.8541
18699TIP3    H277589   3.116   6.479   0.336  1.3331  0.5637 -0.3072
18700TIP3   OH277590   4.164   5.263  11.162 -0.2871  0.0469 -0.1153
18700TIP3    H177591   4.224   5.219  11.101 -2.0062 -1.2989 -0.8789
18700TIP3    H277592   4.079   5.223  11.145 -1.4241  1.9515  0.9320
18701TIP3   OH277593   2.151   3.253  12.290 -0.2540 -0.4661  0.2805
18701TIP3    H177594   2.096   3.307  12.347 -1.0702 -0.9706 -0.0182
18701TIP3    H277595   2.102   3.171  12.281  0.0552 -0.5368 -0.8137
18702TIP3   OH277596   0.556   6.494  15.408 -0.0901 -0.0706  0.7641
18702TIP3    H177597   0.486   6.556  15.391  1.2786  1.1539 -0.6511
18702TIP3    H277598   0.512   6.410  15.420 -1.6651  0.2414 -2.4194
18703TIP3   OH277599   3.926   4.087   6.036 -0.5353  0.1276 -0.0052
18703TIP3    H177600   3.901   4.177   6.013  1.7310  0.9002  0.3628
18703TIP3    H277601   3.959   4.095   6.126 -2.6369 -1.5490  0.9472
18704TIP3   OH277602   4.461   0.791  13.182  0.5256  0.0742 -0.3954
18704TIP3    H177603   4.537   0.732  13.191 -0.0156 -0.7845 -1.3220
18704TIP3    H277604   4.386   0.736  13.204  0.0821  0.6414 -0.4992
18705TIP3   OH277605   1.689   5.593  15.642 -0.2954 -0.4530 -0.0366
18705TIP3    H177606   1.652   5.506  15.627  1.6767 -1.7069  1.9070
18705TIP3    H277607   1.614   5.648  15.662 -1.4738 -2.0184 -0.0352
18706TIP3   OH277608   3.150   5.150  17.108 -0.0656  0.3227  0.3578
18706TIP3    H177609   3.062   5.118  17.088  0.3964 -0.2015 -0.9074
18706TIP3    H277610   3.138   5.240  17.136 -0.8178  0.9454 -1.8687
18707TIP3   OH277611   2.404   1.706   2.133  0.3259  0.2031 -0.6756
18707TIP3    H177612   2.472   1.644   2.161 -1.0419  0.1213  2.6103
18707TIP3    H277613   2.393   1.765   2.207 -2.6199  0.7078 -1.4513
18708TIP3   OH277614   6.210   5.180   3.339 -0.3645  0.1151  0.2716
18708TIP3    H177615   6.276   5.112   3.342 -1.6221 -1.0979  0.9984
18708TIP3    H277616   6.214   5.214   3.249  0.2326 -0.9492 -0.1061
18709TIP3   OH277617   5.550   4.250  14.134  0.5602  1.0345  0.4172
18709TIP3    H177618   5.486   4.288  14.194  1.1334 -2.6877  3.5719
18709TIP3    H277619   5.635   4.266  14.177  0.8353 -3.2560  1.6700
18710TIP3   OH277620   1.102   4.400  14.934 -0.3850  0.0494  0.1118
18710TIP3    H177621   1.120   4.385  15.027 -0.2641  0.0568  0.0903
18710TIP3    H277622   1.031   4.339  14.913 -1.6487  1.3187  0.6397
18711TIP3   OH277623   1.027   6.755  15.887 -0.3519  0.9606  0.1296
18711TIP3    H177624   0.952   6.725  15.939 -0.6744  0.1833 -0.7805
18711TIP3    H277625   1.007   6.846  15.866 -1.0238  0.7660 -0.0764
18712TIP3   OH277626   0.155   0.017   0.001 -0.3260 -0.6867  0.4669
18712TIP3    H177627   0.091   0.030  -0.069 -0.8851 -1.1967  0.8807
18712TIP3    H277628   0.238   0.002  -0.045 -0.3328  0.8427 -0.0524
18713TIP3   OH277629   0.382   0.423   4.254 -0.1516  0.0581 -0.5015
18713TIP3    H177630   0.371   0.497   4.195  0.2586 -0.6529 -1.4802
18713TIP3    H277631   0.455   0.373   4.217  1.0837  0.3761  1.4032
18714TIP3   OH277632   0.113   5.028  11.187 -0.0016 -0.1531 -0.4579
18714TIP3    H177633   0.184   4.973  11.222 -0.4891  0.0676  0.9097
18714TIP3    H277634   0.049   4.966  11.154  0.9328 -0.3554 -1.9338
18715TIP3   OH277635   0.273   0.401  13.553  0.1913  0.0050 -0.4022
18715TIP3    H177636   0.319   0.473  13.596  1.5251 -0.6394 -0.7277
18715TIP3    H277637   0.331   0.376  13.481  0.2987 -2.1878  0.4252
18716TIP3   OH277638   3.333   3.692  15.043 -1.1206 -0.0098 -0.1775
18716TIP3    H177639   3.345   3.664  14.952  0.8599  0.4888 -0.0924
18716TIP3    H277640   3.421   3.712  15.074 -1.5288 -2.0164  2.4826
18717TIP3   OH277641   5.571   6.094  13.919 -0.1493 -0.6913 -0.0297
18717TIP3    H177642   5.644   6.146  13.953  0.1073 -1.1456  0.1240
18717TIP3    H277643   5.612   6.017  13.881 -0.6353 -1.6346  1.3233
18718TIP3   OH277644   5.297   2.958  15.145 -0.3620 -0.0261 -0.2888
18718TIP3    H177645   5.271   2.914  15.225  0.9412 -0.2855  0.0090
18718TIP3    H277646   5.379   2.915  15.120  1.8055  3.2252  0.8584
18719TIP3   OH277647   0.681   0.836  15.944 -0.1540  0.3279  0.4313
18719TIP3    H177648   0.609   0.893  15.972  0.2853  0.9448  0.3381
18719TIP3    H277649   0.726   0.812  16.025 -0.3367  0.1136  0.4704
18720TIP3   OH277650   1.734   2.222   4.975 -0.1202 -0.3054  0.0509
18720TIP3    H177651   1.815   2.174   4.960 -0.7438 -1.1006 -0.9113
18720TIP3    H277652   1.755   2.313   4.954  1.0569 -0.1621  1.8304
18721TIP3   OH277653   5.147   1.591  14.177  0.6777  0.2469  0.6245
18721TIP3    H177654   5.093   1.594  14.256 -0.0293 -1.5567  0.2330
18721TIP3    H277655   5.097   1.642  14.113 -0.3835 -1.0726  0.3813
18722TIP3   OH277656   4.589   4.870  11.107 -0.5524  0.3307 -0.3965
18722TIP3    H177657   4.645   4.941  11.075  1.6422 -1.3608 -0.3941
18722TIP3    H277658   4.591   4.880  11.202  0.6089 -0.3435 -0.3407
18723TIP3   OH277659   6.608   3.037  10.583  0.1762 -0.4483 -0.1682
18723TIP3    H177660   6.608   2.961  10.526 -0.4388 -0.0334 -0.7330
18723TIP3    H277661   6.570   3.107  10.530 -0.5305 -0.0896  0.7868
18724TIP3   OH277662   4.461   3.139   6.201  0.1397 -0.1189 -0.4110
18724TIP3    H177663   4.545   3.183   6.210  0.3719 -0.6565  0.0929
18724TIP3    H277664   4.404   3.183   6.263  0.0905  0.1368 -0.6349
18725TIP3   OH277665   2.150   0.799   0.039  0.5802 -0.6097 -0.3631
18725TIP3    H177666   2.227   0.795  -0.018 -0.8075  0.0131 -2.3703
18725TIP3    H277667   2.076   0.780  -0.019 -0.7814 -1.3626  1.5484
18726TIP3   OH277668   2.158   4.281  14.338 -0.0630 -0.2262 -0.1698
18726TIP3    H177669   2.209   4.272  14.419 -1.8049  1.6711  1.2159
18726TIP3    H277670   2.124   4.193  14.321  0.4161 -0.6782  1.1352
18727TIP3   OH277671   1.980   4.674  15.038 -0.0039 -0.1886 -0.0803
18727TIP3    H177672   1.936   4.653  14.955  0.5606 -0.4209 -0.3266
18727TIP3    H277673   2.059   4.620  15.037 -0.2953 -0.6347  0.8902
18728TIP3   OH277674   0.832   5.167  16.852  0.4878  0.5814  0.2601
18728TIP3    H177675   0.749   5.180  16.807  0.6187  0.1645 -0.0998
18728TIP3    H277676   0.822   5.085  16.899  0.4485  0.8808  0.7776
18729TIP3   OH277677   6.499   0.954   3.430  0.2144  0.0116 -0.2361
18729TIP3    H177678   6.568   0.932   3.494 -1.4397  1.6030  2.1781
18729TIP3    H277679   6.513   1.047   3.412 -0.3370 -0.0505 -0.9873
18730TIP3   OH277680   0.181   5.282  14.791  0.7997 -0.0308 -0.2236
18730TIP3    H177681   0.129   5.351  14.833  3.0057  0.9698  0.9615
18730TIP3    H277682   0.164   5.293  14.697 -1.4504 -0.0360  0.1535
18731TIP3   OH277683   1.773   4.374   3.454  0.5041  0.0697  0.4227
18731TIP3    H177684   1.794   4.402   3.365 -2.1115 -2.5034 -1.0717
18731TIP3    H277685   1.816   4.290   3.464 -2.4555 -1.5406  0.1005
18732TIP3   OH277686   0.256   2.621  15.687 -0.0790 -0.1960  0.1749
18732TIP3    H177687   0.176   2.570  15.691 -0.4428  0.2144 -1.4623
18732TIP3    H277688   0.227   2.710  15.668  0.6217  0.4139  1.8521
18733TIP3   OH277689   0.489   3.883   0.574  0.3243 -0.0433  0.5851
18733TIP3    H177690   0.395   3.900   0.574  0.0519 -1.1286 -2.6444
18733TIP3    H277691   0.498   3.799   0.529  2.9050  0.5835 -0.1625
18734TIP3   OH277692   0.894   6.595  14.092  0.0469  0.1816 -0.5108
18734TIP3    H177693   0.852   6.654  14.030 -1.4509 -1.7307 -1.3450
18734TIP3    H277694   0.828   6.578  14.159  0.9032  0.4531  0.4318
18735TIP3   OH277695   2.083   5.686   6.029 -0.3064 -0.0630  0.5705
18735TIP3    H177696   2.073   5.601   6.072  0.3707  0.7232  2.3304
18735TIP3    H277697   2.082   5.666   5.936 -0.1019 -2.0101  0.9712
18736TIP3   OH277698   6.113   5.323   4.470  0.6209 -0.2654  0.1735
18736TIP3    H177699   6.022   5.296   4.481  0.9276 -0.4346  2.4578
18736TIP3    H277700   6.117   5.409   4.512  1.6796 -0.5683  0.6859
18737TIP3   OH277701   0.012   2.705  14.916  0.4666  0.1832 -0.3185
18737TIP3    H177702   0.027   2.610  14.922 -1.9288 -0.1230  2.0866
18737TIP3    H277703   0.089   2.745  14.955  0.5687 -0.8716  0.5850
18738TIP3   OH277704   3.901   2.475  14.397  0.1589 -0.4116  0.2091
18738TIP3    H177705   3.899   2.469  14.302  1.7142 -0.9121  0.1908
18738TIP3    H277706   3.813   2.448  14.425 -0.7048  0.9398 -1.1221
18739TIP3   OH277707   6.297   0.729  16.961 -0.1956 -0.1030 -0.0314
18739TIP3    H177708   6.221   0.763  16.913 -0.4887  0.0928  0.5669
18739TIP3    H277709   6.315   0.645  16.919 -0.0677  0.3421 -0.8930
18740TIP3   OH277710   6.758   3.382  16.270 -0.4259 -0.2771 -0.3165
18740TIP3    H177711   6.767   3.429  16.186  1.1553 -1.3186 -0.7657
18740TIP3    H277712   6.724   3.296  16.245  1.2209 -1.0247 -0.0499
18741TIP3   OH277713   6.641   2.225  14.418 -0.1768 -0.0024  0.1409
18741TIP3    H177714   6.595   2.234  14.334 -1.2129  0.4858  0.7567
18741TIP3    H277715   6.642   2.131  14.435 -0.6886 -0.0349 -0.0093
18742TIP3   OH277716   1.112   1.269   4.441  0.0017 -0.0846  0.1357
18742TIP3    H177717   1.140   1.178   4.448 -0.5098 -0.3644 -1.2322
18742TIP3    H277718   1.194   1.319   4.442  0.2116 -0.4397  2.2737
18743TIP3   OH277719   6.272   3.249   2.780  0.1350 -0.5735  0.0782
18743TIP3    H177720   6.315   3.316   2.727 -2.1958  0.5421 -0.4464
18743TIP3    H277721   6.330   3.238   2.856  0.7683  1.7277 -0.0367
18744TIP3   OH277722   1.366   6.012  11.508 -0.3708  0.1253  0.5959
18744TIP3    H177723   1.433   6.051  11.452 -0.8170 -0.9645 -0.7410
18744TIP3    H277724   1.413   5.981  11.585  0.3605  1.0400  0.5205
18745TIP3   OH277725   4.562   0.069   3.787 -0.0379 -0.3959  0.1874
18745TIP3    H177726   4.631   0.132   3.808  0.6191 -1.2919  0.7384
18745TIP3    H277727   4.506   0.115   3.725 -0.3576  1.2479  1.6529
18746TIP3   OH277728   0.373   3.008  10.585 -0.3954 -0.1271  0.5356
18746TIP3    H177729   0.409   2.930  10.626 -0.6656  0.9508  2.9283
18746TIP3    H277730   0.280   3.007  10.608 -1.1638 -0.8813 -2.3622
18747TIP3   OH277731   6.024   2.942  16.229 -0.2890  0.4442 -0.0724
18747TIP3    H177732   6.079   3.006  16.274 -0.4805  0.2722  0.4045
18747TIP3    H277733   6.028   2.968  16.137  0.3143  0.6368  0.0060
18748TIP3   OH277734   5.095   6.098   0.875  0.2219  0.0841 -0.2939
18748TIP3    H177735   5.002   6.105   0.895 -0.0186 -0.1561 -1.3177
18748TIP3    H277736   5.129   6.187   0.890 -0.1850  0.1960 -0.0248
18749TIP3   OH277737   4.069   4.119  14.487  0.3509  0.2578 -0.1139
18749TIP3    H177738   4.138   4.184  14.503 -0.2993  0.8749  0.1948
18749TIP3    H277739   4.080   4.094  14.395  1.2748  0.0082  0.0604
18750TIP3   OH277740   6.041   2.857   1.177  0.1835 -0.6648  0.0210
18750TIP3    H177741   6.128   2.845   1.215  0.0067 -0.7497  0.4033
18750TIP3    H277742   6.043   2.945   1.140  0.0788 -0.2409  0.9885
18751TIP3   OH277743   1.298   0.976   3.647  0.4618 -0.1669  0.4030
18751TIP3    H177744   1.302   1.004   3.556  0.0883  0.6189  0.6212
18751TIP3    H277745   1.341   0.891   3.648 -0.6728 -0.7580 -0.7363
18752TIP3   OH277746   4.450   5.186   0.049 -0.5808 -0.1661 -0.3242
18752TIP3    H177747   4.501   5.144   0.119 -0.5448 -2.4655 -1.6839
18752TIP3    H277748   4.412   5.263   0.090 -0.9443 -1.7286  2.3777
18753TIP3   OH277749   0.203   2.356   2.026 -0.6960 -0.6437 -0.0676
18753TIP3    H177750   0.252   2.275   2.033 -0.0463 -0.0074  4.8664
18753TIP3    H277751   0.263   2.417   1.982  1.6417 -0.9128  2.5897
18754TIP3   OH277752   4.707   1.245   0.075 -0.0134 -0.0961 -0.1808
18754TIP3    H177753   4.669   1.196   0.148 -1.6668  2.2717  0.6075
18754TIP3    H277754   4.800   1.224   0.078 -0.0736 -0.1423  2.5583
18755TIP3   OH277755   2.876   1.793   3.051 -0.1054  0.3193  0.1313
18755TIP3    H177756   2.852   1.810   2.960 -0.6769 -2.5724 -0.3214
18755TIP3    H277757   2.972   1.787   3.050 -0.1574 -0.5108 -0.4434
18756TIP3   OH277758   6.494   5.115  15.840 -0.3984 -0.4974 -0.5230
18756TIP3    H177759   6.509   5.163  15.759 -0.2111  0.3089 -0.0086
18756TIP3    H277760   6.439   5.173  15.893  0.8483 -0.3073  0.6039
18757TIP3   OH277761   3.808   5.817   4.963  0.0255 -0.4604  0.2647
18757TIP3    H177762   3.842   5.732   4.936 -0.2167 -0.6987  0.7144
18757TIP3    H277763   3.886   5.866   4.992  0.3856  0.0342 -1.4718
18758TIP3   OH277764   2.859   1.354   3.061 -0.1082 -0.0030  0.8727
18758TIP3    H177765   2.807   1.379   2.984  0.3382  0.9617  0.8674
18758TIP3    H277766   2.894   1.268   3.040  2.4907  1.5092 -1.3448
18759TIP3   OH277767   4.306   5.592  16.361 -0.3767 -0.2659  0.1444
18759TIP3    H177768   4.350   5.513  16.393  0.5199 -0.5782 -1.7875
18759TIP3    H277769   4.334   5.661  16.422  0.9477 -0.9242  0.3050
18760TIP3   OH277770   3.179   2.125   3.237  0.3085  0.3806  0.0560
18760TIP3    H177771   3.193   2.211   3.197  1.3198  0.3204  0.2825
18760TIP3    H277772   3.264   2.081   3.231  0.7403  0.7201  3.1358
18761TIP3   OH277773   3.991   1.433  15.825 -0.3960 -0.4121 -0.3071
18761TIP3    H177774   4.055   1.387  15.771  0.4118 -0.1688  0.4332
18761TIP3    H277775   3.974   1.373  15.899 -1.8114 -0.9304 -1.0175
18762TIP3   OH277776   1.800   3.256  12.338 -0.9053  0.5455  0.0921
18762TIP3    H177777   1.747   3.248  12.417  1.8673 -1.4705  1.8334
18762TIP3    H277778   1.837   3.344  12.341 -2.7315  1.3485 -0.2675
18763TIP3   OH277779   5.929   4.378   0.402 -0.0833  0.1928  0.6808
18763TIP3    H177780   5.868   4.441   0.364  1.6888  0.8166 -1.1947
18763TIP3    H277781   5.903   4.294   0.364 -0.1714  0.3538  0.3815
18764TIP3   OH277782   0.528   4.702  11.845 -0.3984  0.6789 -0.3977
18764TIP3    H177783   0.449   4.714  11.791 -0.4289 -1.7429 -0.9390
18764TIP3    H277784   0.589   4.656  11.788 -0.1865 -1.3397  1.4096
18765TIP3   OH277785   6.576   2.564   1.819  0.0208 -0.5417 -0.1266
18765TIP3    H177786   6.658   2.519   1.799 -0.4656 -0.7737 -1.6695
18765TIP3    H277787   6.563   2.624   1.746 -1.8216 -1.4265 -0.5744
18766TIP3   OH277788   6.514   1.284  14.028  0.6334  0.0820 -0.1746
18766TIP3    H177789   6.453   1.212  14.046 -0.4478  1.0458  0.1254
18766TIP3    H277790   6.564   1.294  14.109  0.4225 -0.0001 -0.0314
18767TIP3   OH277791   1.930   4.422  15.885  0.1179  0.0088 -0.2408
18767TIP3    H177792   1.860   4.366  15.850 -1.3564  2.3809 -1.2447
18767TIP3    H277793   1.925   4.502  15.832  2.1602  1.0984  1.1522
18768TIP3   OH277794   4.289   4.781  11.516 -0.4094  0.1892 -0.9261
18768TIP3    H177795   4.316   4.870  11.540 -1.3458  0.7046 -1.7517
18768TIP3    H277796   4.364   4.727  11.538  0.6806  1.3741 -1.6542
18769TIP3   OH277797   3.559   1.829  14.514 -0.0496  0.1304  0.2439
18769TIP3    H177798   3.558   1.917  14.552 -0.7776  1.7804 -3.3660
18769TIP3    H277799   3.651   1.803  14.514  0.1974  1.0158  1.0854
18770TIP3   OH277800   2.079   1.231   3.621  0.2008 -0.5026 -0.3771
18770TIP3    H177801   2.154   1.172   3.612  0.4180 -0.0785 -1.4353
18770TIP3    H277802   2.110   1.315   3.589  0.1780  0.4646  2.0081
18771TIP3   OH277803   3.506   0.141   3.890 -0.4818  0.1025 -0.0623
18771TIP3    H177804   3.508   0.169   3.982  0.6093 -1.0707  0.2896
18771TIP3    H277805   3.432   0.080   3.885 -0.3877 -0.0256  0.0993
18772TIP3   OH277806   4.679   2.769  12.086 -0.5185 -0.2795  0.1892
18772TIP3    H177807   4.719   2.824  12.153  0.2457  0.7521 -1.0920
18772TIP3    H277808   4.586   2.794  12.086  0.1336  2.3021 -1.5788
18773TIP3   OH277809   2.692   5.773  13.813  0.1760 -0.1265  0.2174
18773TIP3    H177810   2.683   5.823  13.894 -1.8200  0.5142 -0.3587
18773TIP3    H277811   2.602   5.759  13.784  0.8729 -0.4269 -1.8446
18774TIP3   OH277812   0.029   1.770  16.269  0.6020 -0.4971 -0.2564
18774TIP3    H177813   0.112   1.779  16.222  1.3398 -2.7923  0.5122
18774TIP3    H277814   0.000   1.681  16.249 -2.6737  0.8834 -2.0404
18775TIP3   OH277815   1.855   6.727  17.078  0.2580  0.1163  0.0250
18775TIP3    H177816   1.868   6.650  17.023  1.2309 -0.0782  0.5122
18775TIP3    H277817   1.883   6.699  17.166 -0.7619  0.5847  0.5100
18776TIP3   OH277818   5.803   3.859   4.589  0.0607  0.2019  0.0043
18776TIP3    H177819   5.756   3.841   4.507  1.8189 -3.3859 -0.3373
18776TIP3    H277820   5.893   3.874   4.563  0.5472 -0.5015  1.2194
18777TIP3   OH277821   4.899   5.113   5.361  0.5132  0.7778  0.6264
18777TIP3    H177822   4.932   5.120   5.271 -1.1018  1.3199  0.0683
18777TIP3    H277823   4.978   5.108   5.415  1.4933  0.2704 -0.8359
18778TIP3   OH277824   3.228   2.621  15.627 -0.5613 -0.3067  0.2658
18778TIP3    H177825   3.137   2.617  15.600 -0.1906 -2.4379 -0.7783
18778TIP3    H277826   3.224   2.623  15.723 -1.7054 -0.8491  0.2413
18779TIP3   OH277827   1.672   5.804   5.139 -0.3667 -0.7682  0.1664
18779TIP3    H177828   1.702   5.886   5.100 -0.3019  0.8034  3.4090
18779TIP3    H277829   1.604   5.772   5.079 -0.4463  1.6721 -1.0874
18780TIP3   OH277830   0.760   3.185  11.970  0.3920 -0.2036 -0.7098
18780TIP3    H177831   0.824   3.224  11.911  1.1341 -1.5128 -0.7930
18780TIP3    H277832   0.810   3.163  12.048  0.0459 -1.2148 -0.7696
18781TIP3   OH277833   5.491   0.441   0.828 -0.1732  0.3493  0.0141
18781TIP3    H177834   5.404   0.480   0.823  0.0383  0.8726  0.3573
18781TIP3    H277835   5.492   0.375   0.759 -1.5798 -1.1144  1.3508
18782TIP3   OH277836   4.223   0.411  14.103 -0.4022  0.0450 -0.0782
18782TIP3    H177837   4.245   0.501  14.123  0.3311 -0.3941  1.1180
18782TIP3    H277838   4.270   0.359  14.168 -2.8404 -1.0495  0.8784
18783TIP3   OH277839   2.311   5.127   1.082  0.2576 -0.1601  0.4772
18783TIP3    H177840   2.347   5.151   1.167 -1.0884 -0.9981  1.3001
18783TIP3    H277841   2.223   5.164   1.082 -0.0621 -0.9054 -0.2037
18784TIP3   OH277842   1.388   2.482   3.719  0.0942 -0.5726  0.1025
18784TIP3    H177843   1.299   2.517   3.718  0.8064  1.3510  1.2319
18784TIP3    H277844   1.377   2.390   3.742 -1.6596 -0.5644 -0.6167
18785TIP3   OH277845   6.577   2.139   1.170 -0.2273 -0.0369 -0.0877
18785TIP3    H177846   6.585   2.055   1.216 -1.5361  0.6517  1.4031
18785TIP3    H277847   6.524   2.119   1.093 -2.3469 -0.1675  1.3768
18786TIP3   OH277848   6.190   5.299   4.922 -0.1468 -0.1138  0.4687
18786TIP3    H177849   6.102   5.269   4.947 -0.5621 -0.0048 -0.8091
18786TIP3    H277850   6.246   5.223   4.935 -0.9106 -0.9978 -1.2551
18787TIP3   OH277851   2.643   1.286  14.552 -0.4423  0.6181 -0.4982
18787TIP3    H177852   2.620   1.374  14.523 -0.2973  1.1630  1.0017
18787TIP3    H277853   2.559   1.241  14.561 -0.7752  1.6725  2.0362
18788TIP3   OH277854   5.473   0.459   5.211 -0.2062 -0.5183  0.4851
18788TIP3    H177855   5.440   0.432   5.126 -0.2433 -0.0414  0.3482
18788TIP3    H277856   5.431   0.543   5.228 -1.3881 -1.3412  1.6757
18789TIP3   OH277857   3.624   6.071   0.625  1.0158 -0.6110 -0.0693
18789TIP3    H177858   3.694   6.135   0.636  1.2200 -0.5117 -1.7601
18789TIP3    H277859   3.627   6.049   0.532  0.4656 -2.5134  0.3349
18790TIP3   OH277860   6.056   2.443  12.083  0.1534  0.3565  0.2890
18790TIP3    H177861   6.013   2.430  12.167 -2.2563  0.1871 -0.9039
18790TIP3    H277862   6.037   2.363  12.034 -0.7446  1.5212 -1.3164
18791TIP3   OH277863   5.732   0.135   0.450 -0.0761  0.2795  0.2983
18791TIP3    H177864   5.741   0.084   0.369  0.0809 -0.1072  0.5543
18791TIP3    H277865   5.646   0.111   0.484 -0.6584  1.3771 -0.3856
18792TIP3   OH277866   3.572   3.934   4.100 -0.0819  0.6588  0.1437
18792TIP3    H177867   3.500   3.919   4.161  1.4985  0.0499  1.9210
18792TIP3    H277868   3.566   3.862   4.037 -0.5547  0.1601  0.7554
18793TIP3   OH277869   4.024   1.789  16.961  0.0809 -0.0083  0.2361
18793TIP3    H177870   4.016   1.795  16.866  1.1462  0.3739  0.1627
18793TIP3    H277871   4.019   1.879  16.992  1.4805  0.0335  0.3863
18794TIP3   OH277872   6.147   2.379  16.645 -0.4307 -0.1642 -0.1510
18794TIP3    H177873   6.216   2.439  16.673  0.2621 -0.1011 -1.9428
18794TIP3    H277874   6.066   2.429  16.653 -0.6404 -1.0378  4.4353
18795TIP3   OH277875   2.676   2.839   1.334  0.0766 -0.3429  1.2265
18795TIP3    H177876   2.733   2.897   1.385  1.6405  0.4081 -1.2910
18795TIP3    H277877   2.593   2.886   1.330  0.2273  0.0352  2.2620
18796TIP3   OH277878   4.161   4.777   1.753 -0.1421  0.0960 -0.2249
18796TIP3    H177879   4.154   4.700   1.809  0.4460 -0.7865 -1.3462
18796TIP3    H277880   4.080   4.778   1.703 -0.0838  0.1116 -0.3202
18797TIP3   OH277881   4.709   5.228  11.187 -0.5756 -0.2329  0.4475
18797TIP3    H177882   4.705   5.305  11.130  4.2268 -0.1101  0.0528
18797TIP3    H277883   4.713   5.154  11.128 -0.4423 -0.4364  0.7088
18798TIP3   OH277884   0.180   4.832   4.052  0.1930  0.2436 -0.2833
18798TIP3    H177885   0.154   4.774   3.981  0.5204  1.4251 -1.3716
18798TIP3    H277886   0.171   4.778   4.131 -1.8098 -0.5591 -1.0242
18799TIP3   OH277887   2.082   2.337   1.996  0.1246  0.4348 -0.6511
18799TIP3    H177888   2.142   2.319   1.923  1.6602  0.6540  0.5253
18799TIP3    H277889   2.091   2.431   2.010  0.5598  0.2322  0.4333
18800TIP3   OH277890   4.453   2.999   2.329  0.4169  0.2744 -0.2607
18800TIP3    H177891   4.499   3.082   2.316 -1.7406  1.7528  1.2680
18800TIP3    H277892   4.394   3.015   2.403 -0.4893 -2.4367 -0.3282
18801TIP3   OH277893   6.420   4.674  11.512  0.0087 -0.0478  0.4242
18801TIP3    H177894   6.390   4.750  11.462 -0.8410 -1.3664 -1.1377
18801TIP3    H277895   6.405   4.599  11.453  5.1358 -0.9710  0.0451
18802TIP3   OH277896   0.198   5.909  12.964 -0.1381 -0.0076  0.4841
18802TIP3    H177897   0.142   5.984  12.941  1.6342  0.8419 -1.1508
18802TIP3    H277898   0.225   5.873  12.880  0.6302 -1.2876  1.2770
18803TIP3   OH277899   0.184   5.153   2.645  0.1739 -0.3055 -0.1810
18803TIP3    H177900   0.150   5.115   2.564 -1.4199  2.3148 -0.7897
18803TIP3    H277901   0.117   5.131   2.711 -0.9800  1.7280 -0.6270
18804TIP3   OH277902   4.171   4.471  13.840 -0.0652  0.1525  0.3606
18804TIP3    H177903   4.134   4.405  13.782 -0.1231  0.3220  0.2049
18804TIP3    H277904   4.169   4.552  13.789  0.3083  0.2100  0.4319
18805TIP3   OH277905   4.455   5.485   4.633 -0.1495 -0.8887  0.4333
18805TIP3    H177906   4.544   5.499   4.599 -0.5938 -2.6101 -1.5868
18805TIP3    H277907   4.427   5.571   4.662  1.6383 -0.0172 -0.3179
18806TIP3   OH277908   3.035   6.210  16.724  0.3142  0.3584 -0.1925
18806TIP3    H177909   3.027   6.231  16.631 -0.6357 -0.4311 -0.2982
18806TIP3    H277910   3.115   6.254  16.752  0.6680  0.5044 -1.4098
18807TIP3   OH277911   2.451   1.050  15.359 -0.3949 -0.0573  0.4191
18807TIP3    H177912   2.502   1.035  15.279  0.4730 -1.2694  1.1843
18807TIP3    H277913   2.369   1.087  15.328 -0.6777 -1.9381 -1.1803
18808TIP3   OH277914   3.473   2.542   5.918  0.2010  0.3410 -0.0943
18808TIP3    H177915   3.438   2.540   6.007 -2.4952  0.3079 -1.1132
18808TIP3    H277916   3.525   2.623   5.915 -0.0953  0.6115  1.3489
18809TIP3   OH277917   5.759   1.712  13.148 -0.1227  0.6901 -0.1926
18809TIP3    H177918   5.736   1.623  13.122 -0.1028  0.5238  0.3413
18809TIP3    H277919   5.756   1.710  13.244 -1.1764  1.5482 -0.2019
18810TIP3   OH277920   6.099   4.169   2.980  0.3608  0.4030 -0.0928
18810TIP3    H177921   6.038   4.172   3.054 -0.9110 -0.0576 -1.0950
18810TIP3    H277922   6.109   4.261   2.954  1.6796  0.6799  1.3236
18811TIP3   OH277923   3.154   1.682   0.022  0.4853 -0.0717  0.8332
18811TIP3    H177924   3.069   1.662   0.060 -0.3349  1.1130 -0.3556
18811TIP3    H277925   3.151   1.776   0.004  0.1805 -0.8919 -3.8331
18812TIP3   OH277926   5.066   0.345   2.996  0.4117  0.0485  0.5221
18812TIP3    H177927   5.147   0.343   2.945  0.1928 -0.9671  0.1945
18812TIP3    H277928   4.996   0.332   2.931 -0.0375  1.1810  0.7636
18813TIP3   OH277929   1.766   4.271  16.486 -0.1818 -0.2973  0.6980
18813TIP3    H177930   1.690   4.302  16.535 -1.4701  0.1535 -1.5097
18813TIP3    H277931   1.778   4.181  16.516 -1.8843 -0.5348  0.7447
18814TIP3   OH277932   0.802   5.294   1.631  0.9152 -0.1556 -0.4797
18814TIP3    H177933   0.815   5.200   1.638 -1.3285 -0.5230 -0.8872
18814TIP3    H277934   0.738   5.316   1.698  2.4902  1.3406  0.5831
18815TIP3   OH277935   0.313   2.621  17.014 -0.1579  0.4349 -0.2720
18815TIP3    H177936   0.314   2.551  16.950 -0.3057  0.6584 -0.5223
18815TIP3    H277937   0.310   2.577  17.099 -0.4785  0.1438 -0.4350
18816TIP3   OH277938   4.511   0.559  16.743 -0.3071  0.5865 -0.4355
18816TIP3    H177939   4.589   0.590  16.788 -0.1655  0.6205 -0.7080
18816TIP3    H277940   4.495   0.624  16.674  0.2361 -0.1653 -1.2805
18817TIP3   OH277941   5.962   1.426  17.196  0.6328  0.7969  0.0565
18817TIP3    H177942   5.936   1.502  17.249  0.4097  1.6017 -1.1855
18817TIP3    H277943   5.965   1.353  17.259  3.0101  2.2379  1.7166
18818TIP3   OH277944   4.703   4.532  13.324 -0.2379  0.3713  0.3343
18818TIP3    H177945   4.622   4.514  13.277  0.3046  0.3066 -0.6069
18818TIP3    H277946   4.683   4.606  13.381 -0.9123  0.4552 -0.0117
18819TIP3   OH277947   4.509   4.035   1.440  0.4575  0.3038 -0.4444
18819TIP3    H177948   4.508   4.116   1.490  0.8170 -0.4305  0.7550
18819TIP3    H277949   4.487   4.062   1.350  0.8804  1.7569 -0.1182
18820TIP3   OH277950   0.619   6.009  12.479  0.1689 -0.7431 -0.3792
18820TIP3    H177951   0.629   5.926  12.433  0.8005 -2.0599  2.0446
18820TIP3    H277952   0.705   6.026  12.517 -0.7187 -0.5117  1.6076
18821TIP3   OH277953   4.808   4.206  15.098 -0.0855  0.2279 -0.2600
18821TIP3    H177954   4.743   4.235  15.163  1.0234  1.7332  0.2128
18821TIP3    H277955   4.882   4.266  15.110  0.8737 -0.6471 -1.6754
18822TIP3   OH277956   6.082   6.435  17.278  0.1186  0.0339 -0.0497
18822TIP3    H177957   6.063   6.459  17.368  0.4484  0.2821 -0.0419
18822TIP3    H277958   6.161   6.380  17.284 -2.0406 -3.1527  0.1752
18823TIP3   OH277959   0.426   6.449   5.007  0.6959  0.1160 -0.4434
18823TIP3    H177960   0.494   6.442   5.074  1.3867 -2.5811 -1.3702
18823TIP3    H277961   0.474   6.458   4.925 -0.1031 -0.2655 -0.9508
18824TIP3   OH277962   1.452   1.518   5.452 -0.2591  0.2734 -0.1598
18824TIP3    H177963   1.540   1.541   5.483 -1.6073  0.1263  4.0668
18824TIP3    H277964   1.463   1.431   5.413  1.4249  0.2085  0.3924
18825TIP3   OH277965   6.158   2.699   2.706  0.3857  0.2369 -0.0896
18825TIP3    H177966   6.108   2.666   2.631 -0.0578  0.8519 -0.0702
18825TIP3    H277967   6.126   2.788   2.718  1.5467  0.6676 -0.1177
18826TIP3   OH277968   4.966   2.258  10.971 -0.1523  0.2348  0.1424
18826TIP3    H177969   4.960   2.334  10.912 -0.7294 -1.1021 -1.5683
18826TIP3    H277970   4.876   2.227  10.978  0.1367 -0.5000  0.5725
18827TIP3   OH277971   1.153   5.959  12.998  0.0231  1.0341 -0.4250
18827TIP3    H177972   1.234   5.929  12.955 -0.4066  1.1822 -1.3545
18827TIP3    H277973   1.182   5.992  13.083  0.8214  0.1985 -0.3533
18828TIP3   OH277974   6.396   4.276   0.274  0.1865 -0.4251 -1.0350
18828TIP3    H177975   6.358   4.195   0.310  0.8869 -0.2341  0.1429
18828TIP3    H277976   6.320   4.333   0.261 -0.0937 -0.5248  0.0689
18829TIP3   OH277977   1.939   3.345   2.839 -0.5706  0.0318  0.3871
18829TIP3    H177978   2.028   3.342   2.802 -0.6506  1.2562  0.0674
18829TIP3    H277979   1.949   3.394   2.921 -1.1176  1.0529 -0.1511
18830TIP3   OH277980   4.538   0.504   3.918 -0.1335  0.2626 -0.8298
18830TIP3    H177981   4.615   0.560   3.910  0.2501 -0.0156  0.8299
18830TIP3    H277982   4.516   0.506   4.011  0.9560 -3.7232 -0.3934
18831TIP3   OH277983   1.499   2.923  13.980 -0.4954  0.3879 -0.8134
18831TIP3    H177984   1.432   2.855  13.972 -0.0955 -0.0939 -0.1529
18831TIP3    H277985   1.468   2.977  14.052  1.0171 -1.2443  1.1210
18832TIP3   OH277986   6.432   4.227  16.734 -0.1703 -0.0043  0.1596
18832TIP3    H177987   6.433   4.321  16.748  0.1955  0.0340 -0.1315
18832TIP3    H277988   6.516   4.207  16.694  0.1108 -0.5820  1.0252
18833TIP3   OH277989   1.423   2.435   2.857 -0.5624  0.5254 -0.0967
18833TIP3    H177990   1.401   2.344   2.876  1.4424 -0.2013 -1.0961
18833TIP3    H277991   1.473   2.464   2.934 -0.6362  0.5856 -0.0710
18834TIP3   OH277992   4.094   5.217  12.647  0.4593  0.7203  0.0547
18834TIP3    H177993   4.131   5.141  12.603  0.1551  0.1816  0.7206
18834TIP3    H277994   4.136   5.292  12.605  1.9189  0.1395  0.4438
18835TIP3   OH277995   1.010   1.423   6.743 -0.6504 -0.2275 -0.4317
18835TIP3    H177996   1.037   1.450   6.655 -1.0709  0.0105 -0.4888
18835TIP3    H277997   1.092   1.397   6.786 -0.4752 -0.6079 -0.9807
18836TIP3   OH277998   3.675   5.138   1.628 -0.7269 -0.4971 -0.6218
18836TIP3    H177999   3.765   5.165   1.613 -0.8333  0.3596  0.2620
18836TIP3    H278000   3.622   5.215   1.606 -1.2531 -0.9955 -1.1507
18837TIP3   OH278001   6.484   1.079   0.856  0.6081  0.0825  0.0008
18837TIP3    H178002   6.467   0.997   0.903  2.7769 -0.4729 -0.1300
18837TIP3    H278003   6.544   1.054   0.787  0.3712  1.5991 -0.7648
18838TIP3   OH278004   3.077   5.736  16.627  0.2717  0.2389 -0.3973
18838TIP3    H178005   3.138   5.796  16.670  0.3555 -0.0372 -0.1282
18838TIP3    H278006   2.993   5.782  16.630  0.0838 -0.1609  0.8738
18839TIP3   OH278007   3.948   2.725  14.510  0.2965 -0.3625 -0.5646
18839TIP3    H178008   3.932   2.637  14.477 -0.2184 -0.3465 -0.3685
18839TIP3    H278009   3.929   2.782  14.436 -1.7690 -0.2682  0.0132
18840TIP3   OH278010   1.046   6.484   1.824 -0.4228 -0.1742 -0.0169
18840TIP3    H178011   1.027   6.430   1.901 -0.0666 -0.1243  0.1072
18840TIP3    H278012   1.140   6.502   1.830 -0.5921  0.6637  0.0642
18841TIP3   OH278013   2.060   4.278  13.905  0.2085  0.2106 -0.2911
18841TIP3    H178014   2.105   4.353  13.868 -0.4370  1.2329  0.9379
18841TIP3    H278015   2.014   4.238  13.831  3.4061 -1.1004 -1.6330
18842TIP3   OH278016   2.818   5.132  13.987  0.5171 -0.0576 -0.1835
18842TIP3    H178017   2.912   5.133  14.005  1.1081 -0.2637 -3.0468
18842TIP3    H278018   2.789   5.222  14.005  1.3808  0.1609  0.1162
18843TIP3   OH278019   6.807   6.549   5.644 -0.0078  0.1327  0.3271
18843TIP3    H178020   6.725   6.553   5.595  1.1639 -0.3074 -1.6878
18843TIP3    H278021   6.779   6.529   5.734 -1.9896 -2.2726 -0.7629
18844TIP3   OH278022   1.347   6.797   0.353  0.7063 -0.3491 -0.1156
18844TIP3    H178023   1.351   6.891   0.339  1.1942 -0.3303  0.1354
18844TIP3    H278024   1.300   6.763   0.277  0.6035  0.0862 -0.2462
18845TIP3   OH278025   2.860   3.557   4.627  0.0212  0.2436 -0.6070
18845TIP3    H178026   2.809   3.478   4.645  1.9892 -0.8558  0.3477
18845TIP3    H278027   2.846   3.613   4.703  2.9461 -1.5332  1.3141
18846TIP3   OH278028   5.772   5.136  16.316  0.3240 -0.6653  0.0057
18846TIP3    H178029   5.810   5.116  16.230  0.7563  0.9730 -0.2045
18846TIP3    H278030   5.680   5.157  16.297  0.1840 -1.2143  0.0725
18847TIP3   OH278031   2.352   5.208   2.757  0.2182  0.0103 -0.2151
18847TIP3    H178032   2.422   5.238   2.699  0.0769 -0.1206 -0.4558
18847TIP3    H278033   2.393   5.142   2.812 -0.0040 -0.9632 -1.1866
18848TIP3   OH278034   3.351   0.274   2.466 -0.3298  0.4384 -0.6361
18848TIP3    H178035   3.356   0.314   2.553 -1.5093  0.9400 -0.7927
18848TIP3    H278036   3.421   0.208   2.466  1.6320  2.4719 -0.3866
18849TIP3   OH278037   1.746   2.302  15.034  0.3295 -0.4747 -0.2467
18849TIP3    H178038   1.699   2.326  15.114 -0.0605  0.7821 -0.8510
18849TIP3    H278039   1.826   2.258  15.065 -0.8548 -1.9475  0.7930
18850TIP3   OH278040   4.225   5.716  15.922  0.2552  0.1026 -0.1896
18850TIP3    H178041   4.311   5.674  15.929 -0.0471 -0.3185  1.2219
18850TIP3    H278042   4.184   5.700  16.007 -1.3542  0.0164 -0.9757
18851TIP3   OH278043   0.001   4.426  15.198 -0.1908 -0.1167  0.0827
18851TIP3    H178044  -0.065   4.405  15.132 -0.3898 -2.8974  1.1120
18851TIP3    H278045   0.069   4.359  15.187  1.9657  2.0390 -0.2234
18852TIP3   OH278046   0.103   2.388  16.535 -0.5664  1.0789 -0.1556
18852TIP3    H178047   0.098   2.456  16.468 -0.1442  1.2891  0.0292
18852TIP3    H278048   0.195   2.383  16.557 -0.5532  0.2305 -0.3914
18853TIP3   OH278049   6.550   4.277  14.522 -0.2559 -0.3211  0.3025
18853TIP3    H178050   6.587   4.218  14.456  1.5914  2.0287 -0.8384
18853TIP3    H278051   6.509   4.347  14.471 -2.0129 -0.3588  1.6343
18854TIP3   OH278052   3.873   0.543   4.152  0.0780 -0.0716 -0.5915
18854TIP3    H178053   3.813   0.508   4.219  0.1243 -1.0039 -1.0277
18854TIP3    H278054   3.840   0.507   4.070  0.5806  0.3106 -0.9591
18855TIP3   OH278055   3.868   1.284   3.094  0.2721 -0.7995 -1.1687
18855TIP3    H178056   3.841   1.306   3.005  0.0314 -5.7507 -2.4607
18855TIP3    H278057   3.785   1.273   3.141  0.3995  3.3130  0.1859
18856TIP3   OH278058   5.730   4.991  13.065  0.0305 -0.5696  0.0820
18856TIP3    H178059   5.768   4.908  13.095 -1.4396 -0.5252  2.1926
18856TIP3    H278060   5.637   4.972  13.055  0.0711  0.1596 -1.9706
18857TIP3   OH278061   6.367   2.129  17.269  0.0755  0.3148  0.3720
18857TIP3    H178062   6.352   2.162  17.181  1.6853  0.1414  0.0093
18857TIP3    H278063   6.426   2.054  17.257 -1.1962 -0.8832  1.4360
18858TIP3   OH278064   2.734   4.849   2.178 -0.9333  0.1682 -0.8271
18858TIP3    H178065   2.790   4.897   2.118  0.8506 -0.8684 -0.0483
18858TIP3    H278066   2.744   4.757   2.153  0.5364 -0.3648  1.5779
18859TIP3   OH278067   6.048   6.084   0.079  0.1633  0.4971  0.4112
18859TIP3    H178068   6.113   6.016   0.095  1.6601  2.0977  1.2558
18859TIP3    H278069   6.073   6.121  -0.006  0.1714  0.8852  0.5790
18860TIP3   OH278070   4.816   3.999   3.377  0.3402  0.4331  0.1244
18860TIP3    H178071   4.744   3.972   3.321  1.0770 -1.3556 -0.0051
18860TIP3    H278072   4.778   4.008   3.464  0.4273 -2.9869  0.5648
18861TIP3   OH278073   2.991   4.223  11.896 -0.4955  0.2309  0.0256
18861TIP3    H178074   2.998   4.239  11.802  1.8221  0.5272  0.2133
18861TIP3    H278075   2.929   4.288  11.927 -2.7558 -1.1062 -1.5886
18862TIP3   OH278076   3.940   0.853   6.037 -0.1296 -0.2936  0.4052
18862TIP3    H178077   3.945   0.775   6.092 -1.5490 -1.4192 -1.0018
18862TIP3    H278078   3.853   0.849   5.997  0.6119  0.8145 -1.4286
18863TIP3   OH278079   1.088   2.233  16.391  0.1754 -0.0415 -0.0565
18863TIP3    H178080   1.076   2.324  16.416  2.2217  0.5093 -0.9431
18863TIP3    H278081   1.041   2.223  16.308  2.2853  0.9865 -1.4111
18864TIP3   OH278082   1.021   2.034  16.118 -0.1971  0.4734 -0.1570
18864TIP3    H178083   1.111   2.067  16.122  0.2908 -0.8491  0.1460
18864TIP3    H278084   0.966   2.111  16.134  0.8910  1.2346 -0.0422
18865TIP3   OH278085   1.000   2.755  13.308  0.2392  0.6105 -0.1933
18865TIP3    H178086   1.053   2.715  13.377 -0.7666  0.4360  0.4808
18865TIP3    H278087   0.976   2.841  13.342  0.5169  0.8990 -0.7170
18866TIP3   OH278088   1.028   1.781  16.029  0.2782 -0.2664  0.1252
18866TIP3    H178089   1.034   1.872  16.059  1.2536 -0.2526 -0.0842
18866TIP3    H278090   0.975   1.737  16.095 -1.3977  0.7594 -0.4920
18867TIP3   OH278091   5.877   2.663  13.061  0.3012 -0.0687  0.0668
18867TIP3    H178092   5.824   2.716  13.120  0.6597 -0.3298  0.6360
18867TIP3    H278093   5.815   2.624  13.000 -0.3369 -1.5484  1.6359
18868TIP3   OH278094   3.903   2.480   6.477 -0.0718  0.4938 -0.0587
18868TIP3    H178095   3.940   2.562   6.510 -0.3185  0.8968 -0.7869
18868TIP3    H278096   3.979   2.429   6.449  0.0130  0.8847 -0.5476
18869TIP3   OH278097   2.561   4.877   0.485 -0.7788  0.3184 -0.5239
18869TIP3    H178098   2.532   4.967   0.477 -0.8754  0.5278  1.7523
18869TIP3    H278099   2.654   4.883   0.508 -0.9952 -0.1227  0.4927
18870TIP3   OH278100   4.558   4.343   5.068  0.0575  0.4386 -0.4231
18870TIP3    H178101   4.568   4.438   5.075  1.2883  0.3083 -0.2092
18870TIP3    H278102   4.555   4.312   5.159 -0.5402  0.2914 -0.4917
18871TIP3   OH278103   2.248   1.742  13.835  0.1652 -0.0463  0.5661
18871TIP3    H178104   2.305   1.815  13.812  0.3754 -0.8147 -1.4674
18871TIP3    H278105   2.308   1.676  13.872  0.4037 -0.2801 -0.2182
18872TIP3   OH278106   1.633   1.255   0.285 -0.3299  0.1376 -0.5791
18872TIP3    H178107   1.586   1.332   0.318  0.6481  0.3223  0.4211
18872TIP3    H278108   1.601   1.183   0.339 -1.6383 -0.2719 -1.8667
18873TIP3   OH278109   5.217   2.589   1.406 -0.3486 -0.3537 -0.2230
18873TIP3    H178110   5.288   2.542   1.361  1.5092  1.9729  0.1667
18873TIP3    H278111   5.185   2.527   1.471  2.7363 -0.7909  0.9792
18874TIP3   OH278112   6.216   3.313  14.552 -0.0032 -0.3283  0.4202
18874TIP3    H178113   6.123   3.318  14.573  0.4885  0.6875  2.4876
18874TIP3    H278114   6.250   3.246  14.611  0.9761  0.8850  1.2655
18875TIP3   OH278115   3.641   1.624  13.308  0.2552 -0.1353 -0.1419
18875TIP3    H178116   3.716   1.565  13.316 -0.2947 -0.9516 -0.7570
18875TIP3    H278117   3.574   1.570  13.264 -0.9190  0.3609  1.0191
18876TIP3   OH278118   2.390   1.724   6.127 -0.0240 -0.1699  0.2073
18876TIP3    H178119   2.350   1.811   6.126 -1.2668 -0.7304 -0.2936
18876TIP3    H278120   2.317   1.665   6.145  0.9723 -1.0322  1.5176
18877TIP3   OH278121   1.488   0.914  12.884 -0.0960 -0.1237 -0.3885
18877TIP3    H178122   1.522   0.828  12.911 -1.6320 -0.1271  1.6806
18877TIP3    H278123   1.540   0.977  12.933  1.4144  0.2038 -2.3340
18878TIP3   OH278124   3.159   6.294   4.424  0.0022 -0.4136 -0.5084
18878TIP3    H178125   3.208   6.270   4.345 -0.4320  1.1743 -1.3040
18878TIP3    H278126   3.087   6.349   4.391  0.6280  1.4396  1.1075
18879TIP3   OH278127   4.646   2.923  15.242  0.0194 -0.4889  0.0045
18879TIP3    H178128   4.717   2.982  15.264  0.3473 -1.4426  1.5942
18879TIP3    H278129   4.579   2.940  15.308 -0.5619 -0.7384 -0.5135
18880TIP3   OH278130   4.191   3.233  12.858 -1.3525  0.2575 -0.3068
18880TIP3    H178131   4.222   3.302  12.916  1.2052 -1.7909  0.8840
18880TIP3    H278132   4.267   3.209  12.805 -3.0444  0.5087 -2.9807
18881TIP3   OH278133   5.156   1.529   0.025 -0.0476  0.7132 -0.9187
18881TIP3    H178134   5.246   1.510  -0.002 -0.2770  0.7962 -1.7350
18881TIP3    H278135   5.138   1.466   0.094  0.2347 -0.0670 -1.5546
18882TIP3   OH278136   1.910   2.312  17.138 -0.1885 -0.3240 -0.0059
18882TIP3    H178137   1.844   2.282  17.200 -1.1554  0.1170 -0.8051
18882TIP3    H278138   1.985   2.254  17.153 -1.5166 -2.2446 -0.5612
18883TIP3   OH278139   4.770   1.190  16.837  0.3167  0.7474 -0.5712
18883TIP3    H178140   4.700   1.188  16.902  1.8474  1.2290  1.1408
18883TIP3    H278141   4.793   1.098  16.823 -0.0932  0.6385 -0.5126
18884TIP3   OH278142   1.000   0.648  14.357  0.7149 -0.2196  0.0335
18884TIP3    H178143   1.027   0.567  14.401  0.7597 -0.3711 -0.2722
18884TIP3    H278144   0.912   0.665  14.391  0.0231 -1.3110 -1.1529
18885TIP3   OH278145   4.706   1.238   5.755  0.2881  0.2745 -0.3549
18885TIP3    H178146   4.731   1.328   5.775  1.0311  0.6178 -2.5801
18885TIP3    H278147   4.704   1.194   5.839  2.2273  1.8131  0.5377
18886TIP3   OH278148   6.098   5.881   3.720 -0.4498 -0.4909  0.7821
18886TIP3    H178149   6.167   5.838   3.670 -0.6906  0.1943 -0.1757
18886TIP3    H278150   6.057   5.811   3.770  0.7391 -0.9495  1.1271
18887TIP3   OH278151   0.382   6.370   3.101  0.1918 -0.0623  0.1010
18887TIP3    H178152   0.303   6.349   3.050 -1.9655  1.4334  2.6363
18887TIP3    H278153   0.417   6.285   3.127  0.4933 -0.8097 -2.5447
18888TIP3   OH278154   3.626   2.690  15.895 -0.9850 -0.1855  0.4692
18888TIP3    H178155   3.587   2.626  15.837  1.3014 -0.4893 -0.7725
18888TIP3    H278156   3.634   2.769  15.842  0.6813 -0.3245  0.5027
18889TIP3   OH278157   2.849   1.509   5.487  0.1243 -0.7039 -0.3023
18889TIP3    H178158   2.914   1.566   5.528 -0.4648  0.2979 -0.7333
18889TIP3    H278159   2.900   1.448   5.434  0.6560  1.0005 -1.7919
18890TIP3   OH278160   2.165   3.019  15.918 -0.0662 -0.3299 -0.5253
18890TIP3    H178161   2.083   3.003  15.872  0.2568  0.0795 -1.2576
18890TIP3    H278162   2.147   2.998  16.010 -0.9660 -0.3020 -0.6962
18891TIP3   OH278163   0.268   6.064   0.559 -0.3822  0.2528 -0.2768
18891TIP3    H178164   0.340   6.030   0.613  1.5403  2.7081 -1.2010
18891TIP3    H278165   0.213   6.112   0.620  0.4873  1.0192 -0.0905
18892TIP3   OH278166   0.351   3.306  17.093 -0.4482  0.3114  0.5193
18892TIP3    H178167   0.257   3.288  17.091 -0.0597 -2.0488  1.8813
18892TIP3    H278168   0.382   3.287  17.005 -0.9596 -0.6420  0.5376
18893TIP3   OH278169   0.869   0.217   4.032 -0.0920  0.7463  0.0760
18893TIP3    H178170   0.836   0.267   3.958 -2.2900  1.9881  1.8216
18893TIP3    H278171   0.901   0.283   4.093 -2.4532  0.0700  2.1359
18894TIP3   OH278172   0.097   1.442  11.476 -0.2847  0.2260 -0.5574
18894TIP3    H178173   0.161   1.441  11.547 -1.6105  1.8016  0.7096
18894TIP3    H278174   0.047   1.523  11.490 -1.4627 -0.1308 -2.4902
18895TIP3   OH278175   2.499   2.337  12.387 -0.3606 -0.4888  0.5637
18895TIP3    H178176   2.420   2.373  12.348  0.3702  1.4776  0.8439
18895TIP3    H278177   2.489   2.351  12.481  1.0807  1.4063  0.4661
18896TIP3   OH278178   3.875   6.155  17.191  0.0475 -0.6540 -0.0718
18896TIP3    H178179   3.856   6.066  17.221  1.6090 -1.0291 -0.1542
18896TIP3    H278180   3.970   6.156  17.178 -0.2768  0.2581 -2.5682
18897TIP3   OH278181   6.714   3.694  15.136 -0.5112  0.0668 -0.6447
18897TIP3    H178182   6.650   3.691  15.065 -0.3298  2.0735 -0.9168
18897TIP3    H278183   6.663   3.677  15.216 -1.1763  0.4014 -0.9938
18898TIP3   OH278184   6.255   1.262  17.257  0.0481  0.1002 -0.1897
18898TIP3    H178185   6.174   1.312  17.254  1.3132  2.2914  0.8901
18898TIP3    H278186   6.324   1.328  17.262  1.8843 -1.7266 -0.5599
18899TIP3   OH278187   5.516   4.839   1.000  0.4881  0.1789 -0.0479
18899TIP3    H178188   5.580   4.846   0.929 -0.0812  0.8218 -0.5144
18899TIP3    H278189   5.556   4.780   1.063  0.0343 -2.3087 -1.9955
18900TIP3   OH278190   5.896   6.777   5.866 -0.2251 -0.3006  0.2134
18900TIP3    H178191   5.946   6.858   5.876 -1.9836  1.0947 -1.7843
18900TIP3    H278192   5.826   6.783   5.931 -1.1309  0.4657 -0.7872
18901TIP3   OH278193   2.867   2.996   1.447 -0.7989 -0.5087 -0.2800
18901TIP3    H178194   2.871   3.091   1.441 -2.2853 -0.3664  0.6631
18901TIP3    H278195   2.952   2.966   1.416 -0.8896  1.0433 -2.1534
18902TIP3   OH278196   0.262   1.963  13.047  0.6043 -0.0619  0.5240
18902TIP3    H178197   0.181   1.927  13.084  0.4198  0.6302  0.7903
18902TIP3    H278198   0.313   1.885  13.022 -0.1607 -0.4953  0.3055
18903TIP3   OH278199   0.288   4.722   0.612  0.2669 -1.3408  0.6505
18903TIP3    H178200   0.247   4.725   0.525 -1.1429  1.4137  1.3454
18903TIP3    H278201   0.293   4.629   0.634 -2.4990 -1.9025 -0.9166
18904TIP3   OH278202   1.444   1.080   0.975 -0.2772 -0.1246  0.0031
18904TIP3    H178203   1.363   1.084   0.925 -0.1588 -1.2185 -0.2983
18904TIP3    H278204   1.422   1.117   1.060 -1.4465 -1.6338  0.3773
18905TIP3   OH278205   6.390   4.088   4.217 -0.0479  0.5658 -0.1045
18905TIP3    H178206   6.425   4.170   4.183 -1.0652  0.4381 -1.5036
18905TIP3    H278207   6.294   4.099   4.213 -0.2231  0.5219  2.6972
18906TIP3   OH278208   2.721   1.434  13.849  0.0065 -0.7985 -0.6279
18906TIP3    H178209   2.737   1.398  13.762  1.9760  2.1701 -1.5562
18906TIP3    H278210   2.678   1.518  13.833 -1.8464 -1.2906  1.3963
18907TIP3   OH278211   4.565   0.128   5.907  0.2806  0.3454 -0.3259
18907TIP3    H178212   4.615   0.105   5.985  1.0502  0.5761 -0.7490
18907TIP3    H278213   4.630   0.155   5.843 -0.3284 -0.0850 -1.1432
18908TIP3   OH278214   5.647   5.484   0.418  0.2166 -0.0419 -0.1874
18908TIP3    H178215   5.742   5.484   0.406  0.3495  1.2859  0.8171
18908TIP3    H278216   5.622   5.391   0.416  1.4408 -0.3577 -1.0878
18909TIP3   OH278217   5.596   2.662   2.701 -0.4593 -0.3044 -0.2675
18909TIP3    H178218   5.657   2.724   2.741 -1.7663  0.9695 -0.2166
18909TIP3    H278219   5.650   2.611   2.641  0.8263  0.2002  0.4264
18910TIP3   OH278220   6.729   6.315  13.980  0.3034 -0.8803  0.3988
18910TIP3    H178221   6.692   6.252  14.042 -0.7918 -1.0445 -0.3961
18910TIP3    H278222   6.699   6.400  14.011  2.0018 -0.7244  1.6240
18911TIP3   OH278223   4.447   5.560   3.410  0.3175 -0.4730  0.4790
18911TIP3    H178224   4.501   5.621   3.360 -1.2009 -0.1844 -0.8498
18911TIP3    H278225   4.432   5.487   3.350 -2.1673  0.2265  0.2172
18912TIP3   OH278226   2.467   5.026  14.361 -0.0446  0.7342 -0.4173
18912TIP3    H178227   2.375   5.020  14.334  0.2925  0.3153 -1.5000
18912TIP3    H278228   2.513   4.963  14.305  0.7543  0.1940  0.8263
18913TIP3   OH278229   1.185   6.604  14.265 -0.3912 -0.0124 -0.3079
18913TIP3    H178230   1.158   6.672  14.202  2.0131 -0.0854 -1.4496
18913TIP3    H278231   1.249   6.648  14.321 -1.4879 -0.3524  1.2381
18914TIP3   OH278232   5.328   2.994  13.273 -0.4433 -0.1568 -0.1051
18914TIP3    H178233   5.293   2.963  13.189 -0.6791 -0.6922  0.1872
18914TIP3    H278234   5.260   2.973  13.337 -0.7766  1.3472  0.0465
18915TIP3   OH278235   1.267   4.654   6.633 -0.2255  0.4194 -0.2033
18915TIP3    H178236   1.266   4.686   6.542  0.4614  0.2059 -0.2931
18915TIP3    H278237   1.203   4.583   6.634 -1.5737  1.6258 -0.0645
18916TIP3   OH278238   5.129   1.027  11.265  0.1229  0.3823 -0.0948
18916TIP3    H178239   5.037   1.047  11.248  0.5363  1.6225 -0.9103
18916TIP3    H278240   5.174   1.110  11.253  1.3515 -0.2092  0.3524
18917TIP3   OH278241   3.705   3.875   3.845  0.0573  0.0021  0.1849
18917TIP3    H178242   3.770   3.844   3.908 -0.8962 -1.7463  0.3161
18917TIP3    H278243   3.755   3.888   3.763  0.6940 -0.6248  0.4736
18918TIP3   OH278244   2.279   5.239  14.578 -0.1268 -0.6807  0.0111
18918TIP3    H178245   2.353   5.294  14.554  0.3001 -0.5046  1.6606
18918TIP3    H278246   2.260   5.263  14.669 -1.1638 -1.8852  0.1263
18919TIP3   OH278247   3.741   2.087  10.749  0.9066  0.0540 -0.3063
18919TIP3    H178248   3.727   2.105  10.656  1.7166 -2.2642 -0.9116
18919TIP3    H278249   3.790   2.004  10.750  0.8712  0.0367  2.1832
18920TIP3   OH278250   4.498   3.354   5.859 -0.1287 -0.3835 -0.2690
18920TIP3    H178251   4.435   3.310   5.802 -1.3657  0.4218  0.4708
18920TIP3    H278252   4.558   3.284   5.886 -1.6258 -1.4909  0.2822
18921TIP3   OH278253   5.229   6.786  16.716  0.4809 -0.1096  0.0689
18921TIP3    H178254   5.158   6.740  16.671  0.3446 -1.6518  1.7908
18921TIP3    H278255   5.269   6.841  16.648 -0.3849 -1.5601 -1.6687
18922TIP3   OH278256   3.963   2.488   5.438  0.1355  0.0777 -0.0866
18922TIP3    H178257   3.988   2.564   5.385  1.1483 -0.9306 -1.0725
18922TIP3    H278258   3.947   2.524   5.526 -0.1763  1.5424 -0.7264
18923TIP3   OH278259   6.673   3.557  13.079 -0.8299 -0.1618  0.2478
18923TIP3    H178260   6.754   3.563  13.130 -0.7836 -1.2131  0.3097
18923TIP3    H278261   6.702   3.538  12.990 -0.9914 -0.0045  0.1599
18924TIP3   OH278262   2.604   0.436  10.857 -0.8339  0.2670 -0.0310
18924TIP3    H178263   2.512   0.440  10.884 -0.6636  1.4678  0.4089
18924TIP3    H278264   2.615   0.513  10.801  0.6731  1.8757  2.4051
18925TIP3   OH278265   5.134   0.441   2.267  0.0385  0.5437 -0.5529
18925TIP3    H178266   5.174   0.526   2.256  1.1349  0.2047  0.7145
18925TIP3    H278267   5.157   0.392   2.188  0.7089  0.9037 -0.5761
18926TIP3   OH278268   0.273   1.040  12.000  0.3557  0.7731 -0.1423
18926TIP3    H178269   0.251   0.947  11.998  2.4643  0.2395 -0.4868
18926TIP3    H278270   0.257   1.070  11.911  1.6985  0.1940 -0.6080
18927TIP3   OH278271   0.509   3.342  12.114  0.2145  0.0068 -0.0621
18927TIP3    H178272   0.572   3.270  12.107 -0.5209 -0.6143 -0.4897
18927TIP3    H278273   0.530   3.400  12.041  1.5940  0.8678  1.0083
18928TIP3   OH278274   0.948   4.489   1.000  0.7981  0.5357 -0.0184
18928TIP3    H178275   1.017   4.423   1.001  2.0541  1.8501  2.1924
18928TIP3    H278276   0.872   4.445   1.038  1.4764  0.1770  0.9351
18929TIP3   OH278277   3.844   5.845  12.338  0.3066  0.6573 -0.1770
18929TIP3    H178278   3.828   5.856  12.432 -1.7844  2.2677 -0.6778
18929TIP3    H278279   3.883   5.928  12.311  1.7157 -0.1258 -0.5936
18930TIP3   OH278280   0.926   5.591   3.888 -0.1827  0.2161 -0.3839
18930TIP3    H178281   0.980   5.563   3.962  0.6125 -0.6827 -1.2870
18930TIP3    H278282   0.969   5.670   3.854  0.7546 -0.6725 -1.2915
18931TIP3   OH278283   1.304   2.151   4.644  0.2997 -0.6602 -0.0447
18931TIP3    H178284   1.214   2.181   4.630  0.3906  0.0902  0.9092
18931TIP3    H278285   1.298   2.091   4.718  0.5840 -0.5700  0.0524
18932TIP3   OH278286   0.359   2.194   0.923 -0.0186  0.5936 -0.0206
18932TIP3    H178287   0.402   2.160   0.845 -0.2032 -0.9414  0.5305
18932TIP3    H278288   0.282   2.240   0.890  0.9282  1.6047 -0.8686
18933TIP3   OH278289   1.182   3.709  14.697  0.0932 -0.2822 -0.0227
18933TIP3    H178290   1.269   3.731  14.729  1.3350 -0.8875 -2.8119
18933TIP3    H278291   1.151   3.788  14.654 -0.6804 -0.1256  0.8040
18934TIP3   OH278292   2.922   1.857  15.516 -0.7450  0.2237 -0.0846
18934TIP3    H178293   2.889   1.838  15.604  2.8502  0.8979  1.4814
18934TIP3    H278294   2.965   1.777  15.489 -1.1453  0.2869 -0.9245
18935TIP3   OH278295   6.293   5.564   4.944  0.1778  0.9178  0.0870
18935TIP3    H178296   6.374   5.534   4.985  0.6729  1.5290 -0.4364
18935TIP3    H278297   6.244   5.483   4.926  1.8074  0.3432 -1.9673
18936TIP3   OH278298   5.005   1.588   2.228  0.1669 -0.0179 -0.7575
18936TIP3    H178299   5.018   1.683   2.234 -0.2347 -0.0872  2.0380
18936TIP3    H278300   5.078   1.556   2.176  1.8955  1.5093  0.6815
18937TIP3   OH278301   3.276   4.926  17.143  0.1793 -0.0233 -0.2429
18937TIP3    H178302   3.264   5.021  17.153  0.1839 -0.0825  0.3025
18937TIP3    H278303   3.253   4.909  17.051  0.5215  0.5570 -0.4348
18938TIP3   OH278304   4.253   6.441   5.245  0.4055 -0.2204  0.0928
18938TIP3    H178305   4.321   6.455   5.179  0.4997  0.0952  0.2551
18938TIP3    H278306   4.171   6.437   5.195  0.2571  1.8992  0.1096
18939TIP3   OH278307   0.689   5.790   0.573  0.0668  0.2249 -0.2334
18939TIP3    H178308   0.771   5.743   0.585  0.2742  0.8317  0.6875
18939TIP3    H278309   0.632   5.726   0.529  1.0853 -0.1274 -1.0581
18940TIP3   OH278310   5.825   3.602   1.444  0.2829  0.2673 -0.2520
18940TIP3    H178311   5.814   3.555   1.527 -0.9957 -0.7539 -0.9730
18940TIP3    H278312   5.770   3.680   1.453 -0.1334 -0.0223 -0.2643
18941TIP3   OH278313   3.216   4.837  15.616 -0.7164  0.2466 -0.0684
18941TIP3    H178314   3.181   4.758  15.576  0.1311  0.1775 -0.6801
18941TIP3    H278315   3.139   4.893  15.629 -1.0343  0.2126 -1.6687
18942TIP3   OH278316   4.910   5.692  13.904  0.2577  0.0097  0.3664
18942TIP3    H178317   4.993   5.685  13.857  0.2207 -1.2490  0.4786
18942TIP3    H278318   4.873   5.604  13.900 -2.8310  1.3498 -2.9043
18943TIP3   OH278319   5.455   4.831  16.316  0.3587 -0.4440 -0.8393
18943TIP3    H178320   5.401   4.828  16.236 -0.9517 -2.4139  0.0680
18943TIP3    H278321   5.530   4.775  16.296 -2.0651 -4.4331  0.6986
18944TIP3   OH278322   5.569   3.407  11.847 -0.0959 -0.2857  0.0462
18944TIP3    H178323   5.523   3.489  11.859 -0.0734 -0.1120 -1.0185
18944TIP3    H278324   5.502   3.344  11.822  0.2320 -0.0519 -1.4224
18945TIP3   OH278325   6.013   0.504   4.541  0.5382  0.0123  0.0881
18945TIP3    H178326   6.098   0.548   4.551  0.9187 -0.7612  0.3520
18945TIP3    H278327   5.971   0.514   4.626 -0.2140  1.5545 -0.4465
18946TIP3   OH278328   5.497   6.679  12.377  0.8959  0.2424 -0.7700
18946TIP3    H178329   5.433   6.749  12.361  0.8322  0.4489  0.3345
18946TIP3    H278330   5.563   6.720  12.433 -0.1057 -1.0689  1.4740
18947TIP3   OH278331   0.581   2.006  14.344 -0.2197  0.5646  0.0318
18947TIP3    H178332   0.493   1.989  14.310 -0.3627  1.2231  0.0599
18947TIP3    H278333   0.595   1.938  14.410 -0.9910  0.8864  0.5295
18948TIP3   OH278334   2.207   6.643   1.070  0.5102  0.0799  0.1600
18948TIP3    H178335   2.292   6.647   1.113 -0.1016 -1.6661  1.5887
18948TIP3    H278336   2.165   6.564   1.106 -1.2114  0.2253 -1.4299
18949TIP3   OH278337   4.278   3.266   6.409 -0.4014  0.4779  0.0296
18949TIP3    H178338   4.282   3.361   6.415  1.3577  0.3562  1.2036
18949TIP3    H278339   4.185   3.245   6.421 -0.5489  1.9218  1.5602
18950TIP3   OH278340   2.612   4.991   4.376 -0.5162 -0.2463  0.1647
18950TIP3    H178341   2.631   4.945   4.458 -0.0895  0.8699  0.6970
18950TIP3    H278342   2.516   4.994   4.373 -0.5598 -1.3275  0.0269
18951TIP3   OH278343   0.539   3.644   0.405  0.5619  0.0828 -0.2811
18951TIP3    H178344   0.571   3.668   0.318  0.3256 -1.6673 -0.8582
18951TIP3    H278345   0.447   3.622   0.392  0.8633 -1.5001  0.1564
18952TIP3   OH278346   2.694   1.757   4.569 -0.0678  0.5497 -0.0567
18952TIP3    H178347   2.707   1.754   4.663 -2.2745  0.7960  0.2957
18952TIP3    H278348   2.733   1.839   4.541  1.2692  0.1176  0.5089
18953TIP3   OH278349   3.061   5.509  15.319 -0.0936  0.2797  0.5249
18953TIP3    H178350   3.044   5.427  15.365 -0.0638 -0.1412 -0.2058
18953TIP3    H278351   3.001   5.572  15.359 -1.5690 -0.5848 -0.2697
18954TIP3   OH278352   4.926   1.101   5.992 -0.2575  0.1344 -0.2241
18954TIP3    H178353   4.966   1.099   6.079 -1.2073  0.2328  0.2249
18954TIP3    H278354   4.838   1.065   6.006 -1.3289  2.4734 -0.6450
18955TIP3   OH278355   6.099   5.078  16.954  0.5879  0.1895 -0.1341
18955TIP3    H178356   6.007   5.086  16.928  0.8325 -0.6877 -1.3112
18955TIP3    H278357   6.101   5.109  17.044 -1.1757 -1.3379  0.4743
18956TIP3   OH278358   1.421   2.618   1.212  0.3282 -0.2565  0.3512
18956TIP3    H178359   1.508   2.581   1.197  0.3069  0.3466 -1.3887
18956TIP3    H278360   1.369   2.588   1.137 -1.1017 -0.9814  1.6018
18957TIP3   OH278361   4.025   5.245  12.096 -0.8431 -0.0822  0.3685
18957TIP3    H178362   3.974   5.168  12.121 -1.5761  0.2235 -0.1450
18957TIP3    H278363   4.033   5.239  12.001  1.6475 -1.0676  0.6111
18958TIP3   OH278364   1.656   5.735   0.723 -0.1540  0.2150 -0.3802
18958TIP3    H178365   1.689   5.821   0.749  0.5093  0.4783 -2.0387
18958TIP3    H278366   1.734   5.686   0.698 -0.4274 -1.2059  1.4270
18959TIP3   OH278367   4.280   6.009  16.176  0.4736 -0.0429 -0.4939
18959TIP3    H178368   4.282   5.921  16.214 -2.3465 -0.7003 -1.7763
18959TIP3    H278369   4.302   5.996  16.084 -2.3234  0.2294 -1.2363
18960TIP3   OH278370   0.375   5.090   0.121  0.4868 -0.4157  0.6527
18960TIP3    H178371   0.397   5.118   0.209  0.9896  0.7248  0.1761
18960TIP3    H278372   0.371   5.171   0.070  2.3864 -1.2113 -0.8589
18961TIP3   OH278373   1.736   0.354   6.474  0.1138 -0.3287  0.1010
18961TIP3    H178374   1.775   0.439   6.493 -0.1567 -0.4942  1.4732
18961TIP3    H278375   1.810   0.293   6.476  0.3257 -0.1056 -1.0099
18962TIP3   OH278376   6.298   2.375  12.374 -0.3837 -0.0894 -0.9829
18962TIP3    H178377   6.363   2.433  12.414 -0.3390 -0.3762 -0.6416
18962TIP3    H278378   6.344   2.337  12.299 -0.0662 -0.5072 -0.5759
18963TIP3   OH278379   0.261   0.295   1.193  1.0741 -0.0948 -0.2876
18963TIP3    H178380   0.206   0.293   1.115 -0.7720  0.4199  0.9649
18963TIP3    H278381   0.273   0.388   1.212 -0.1583 -0.2120  1.1617
18964TIP3   OH278382   0.203   1.928   0.907 -0.2700 -0.2468 -0.6055
18964TIP3    H178383   0.126   1.932   0.964  0.5171 -0.0685  0.4625
18964TIP3    H278384   0.271   1.974   0.956  0.5769 -0.5902 -1.4497
18965TIP3   OH278385   6.794   5.098   1.882  0.3857 -0.3336 -0.1465
18965TIP3    H178386   6.874   5.146   1.904  0.2907  0.4145 -1.3566
18965TIP3    H278387   6.821   5.037   1.813  0.3720 -1.5948  0.9631
18966TIP3   OH278388   3.215   1.455  12.486 -0.3769 -0.3515  0.0074
18966TIP3    H178389   3.120   1.452  12.496 -0.3536  0.9219  0.6170
18966TIP3    H278390   3.237   1.369  12.449 -1.5554 -1.3853  1.6108
18967TIP3   OH278391   3.811   2.287  16.288 -0.0015  0.4713  0.2785
18967TIP3    H178392   3.860   2.256  16.213 -1.0688 -1.7542  0.4529
18967TIP3    H278393   3.778   2.207  16.330 -1.5887  1.7845  1.6166
18968TIP3   OH278394   1.475   3.301   4.958 -0.4573  0.0168 -0.1061
18968TIP3    H178395   1.519   3.272   5.037  0.2418  1.8280  0.1955
18968TIP3    H278396   1.391   3.255   4.959  0.7989 -2.3186  0.0770
18969TIP3   OH278397   5.907   1.000   3.359 -0.3437 -0.0707  0.1950
18969TIP3    H178398   5.963   1.074   3.335  0.1997 -0.0520  1.5082
18969TIP3    H278399   5.828   1.040   3.394 -0.6443 -0.1038 -0.4451
18970TIP3   OH278400   2.327   1.892   3.906 -0.4710 -1.1665  0.3582
18970TIP3    H178401   2.345   1.963   3.968 -1.6609 -1.0747  0.6145
18970TIP3    H278402   2.401   1.894   3.845 -0.6322  0.4608  0.1933
18971TIP3   OH278403   5.347   3.759   4.443 -0.2162  0.6303 -0.1208
18971TIP3    H178404   5.404   3.687   4.420 -0.8002  0.1872 -0.2003
18971TIP3    H278405   5.304   3.783   4.361  1.0665  2.0476 -0.3990
18972TIP3   OH278406   3.284   1.863   1.625 -0.6434 -0.3479  0.2565
18972TIP3    H178407   3.342   1.796   1.590 -0.4730 -0.2140  0.2813
18972TIP3    H278408   3.321   1.946   1.594 -0.2149 -0.1946  1.1423
18973TIP3   OH278409   5.482   5.323   5.324  0.0650 -0.0129 -0.2207
18973TIP3    H178410   5.518   5.278   5.401 -1.5333  1.5302  1.4756
18973TIP3    H278411   5.445   5.404   5.358 -1.3775  0.3500 -2.5019
18974TIP3   OH278412   6.342   5.939   0.586 -0.4337 -0.5411 -0.6562
18974TIP3    H178413   6.410   5.879   0.619  0.8899  1.7739  0.9591
18974TIP3    H278414   6.277   5.942   0.657 -0.0455  0.6152 -0.3456
18975TIP3   OH278415   4.886   3.791   0.490 -0.0408  0.0321 -0.6435
18975TIP3    H178416   4.912   3.879   0.465  0.4682  0.0104 -0.1847
18975TIP3    H278417   4.874   3.794   0.584 -0.1980 -0.3473 -0.6478
18976TIP3   OH278418   2.393   2.473  15.083 -0.1181 -0.0196 -0.3431
18976TIP3    H178419   2.360   2.556  15.048  0.3483 -0.1314 -1.0490
18976TIP3    H278420   2.394   2.414  15.008 -0.4192 -0.6600  0.1512
18977TIP3   OH278421   1.692   4.487   0.770  0.4409  0.4787 -0.3590
18977TIP3    H178422   1.607   4.529   0.756 -1.2499 -1.6240  2.9562
18977TIP3    H278423   1.747   4.556   0.808 -1.7760  0.3292  3.3875
18978TIP3   OH278424   4.442   6.242   6.349  0.1484  0.0306  0.2226
18978TIP3    H178425   4.530   6.277   6.339  0.0151 -0.2521 -2.1860
18978TIP3    H278426   4.384   6.314   6.325 -0.2642 -0.2069  0.4792
18979TIP3   OH278427   6.005   2.095   3.248  0.5605 -0.5396 -0.3812
18979TIP3    H178428   5.994   2.004   3.276 -0.5901  0.2044  1.7298
18979TIP3    H278429   6.050   2.138   3.321 -1.6907  1.2630  0.0137
18980TIP3   OH278430   5.800   3.470   5.784  0.1520 -0.2032 -0.7300
18980TIP3    H178431   5.820   3.418   5.706  0.2433 -0.6380 -0.4190
18980TIP3    H278432   5.833   3.417   5.857 -0.3531 -0.0175 -0.3620
18981TIP3   OH278433   4.913   0.174   0.795 -0.5500  0.2685 -0.5298
18981TIP3    H178434   4.825   0.187   0.832  0.9604 -0.0957  3.4171
18981TIP3    H278435   4.917   0.080   0.774 -0.4592 -0.1065  1.1189
18982TIP3   OH278436   1.980   2.043  14.808  0.4514 -0.0450  0.1189
18982TIP3    H178437   1.960   2.136  14.810 -0.7129 -0.3052  3.2215
18982TIP3    H278438   2.021   2.029  14.723 -1.0567  2.9326 -1.1640
18983TIP3   OH278439   6.162   4.979   4.884  0.0584  0.1771  0.1245
18983TIP3    H178440   6.179   5.004   4.975 -1.6713  1.2691  0.1563
18983TIP3    H278441   6.089   4.917   4.890  0.2763 -0.1428 -0.4947
18984TIP3   OH278442   0.025   0.809  14.429 -0.2529 -0.2772 -0.3821
18984TIP3    H178443  -0.042   0.863  14.386 -1.8247 -1.7699  0.1504
18984TIP3    H278444   0.012   0.721  14.393  0.8948 -0.7469  0.3421
18985TIP3   OH278445   4.391   0.074   2.622 -0.5473  0.4330 -0.3098
18985TIP3    H178446   4.380   0.098   2.714 -0.5981 -1.5871  0.2341
18985TIP3    H278447   4.306   0.039   2.596 -0.1187 -0.3152 -0.7110
18986TIP3   OH278448   6.803   6.092  11.589  0.5257  0.6534  1.0044
18986TIP3    H178449   6.711   6.110  11.567 -0.0063 -0.7015  2.0532
18986TIP3    H278450   6.828   6.164  11.647  0.4408  1.5754 -0.0864
18987TIP3   OH278451   4.876   1.446   3.173  0.1508 -0.4410 -0.0649
18987TIP3    H178452   4.829   1.363   3.162  0.8339 -0.7440 -0.7610
18987TIP3    H278453   4.812   1.513   3.152 -0.4298 -0.7847  0.5729
18988TIP3   OH278454   3.186   0.029   6.922 -0.1170 -0.4843  0.2266
18988TIP3    H178455   3.244  -0.015   6.983 -0.1099 -1.0891 -0.2132
18988TIP3    H278456   3.167  -0.037   6.854  0.2263  0.3063 -0.6518
18989TIP3   OH278457   4.696   4.377   3.850  0.0959  0.3447  0.2788
18989TIP3    H178458   4.748   4.364   3.771  0.7263  1.8449  0.4318
18989TIP3    H278459   4.747   4.439   3.903 -0.6680 -0.0689  1.5340
18990TIP3   OH278460   6.782   0.213  16.308 -0.2502 -0.1524  0.2649
18990TIP3    H178461   6.772   0.117  16.307 -2.8786  0.0783 -1.6379
18990TIP3    H278462   6.820   0.232  16.393  3.0183 -3.1195 -0.3882
18991TIP3   OH278463   0.372   4.140  15.630 -1.2347 -0.3557  0.1951
18991TIP3    H178464   0.290   4.107  15.666 -0.5655 -0.1468  1.9486
18991TIP3    H278465   0.347   4.218  15.580 -2.0442 -0.0426  1.0791
18992TIP3   OH278466   1.166   3.910   1.119  0.2557 -0.1933  0.4334
18992TIP3    H178467   1.112   3.920   1.197 -1.1341  0.9323 -0.6272
18992TIP3    H278468   1.245   3.960   1.137  0.2873 -0.5710  1.3948
18993TIP3   OH278469   2.771   5.818   4.793 -0.0216 -0.8350 -0.6770
18993TIP3    H178470   2.765   5.758   4.719 -1.3355 -0.2785 -1.0219
18993TIP3    H278471   2.727   5.772   4.865 -1.1875 -0.2155 -0.9901
18994TIP3   OH278472   0.851   5.064   2.592  0.2019  0.6364  0.4887
18994TIP3    H178473   0.883   5.040   2.679  0.7798  0.4826  0.2377
18994TIP3    H278474   0.929   5.094   2.545  0.0749 -0.2349 -0.2999
18995TIP3   OH278475   4.289   0.657   3.153  0.0102  0.7740 -0.2615
18995TIP3    H178476   4.241   0.597   3.210  1.1218 -0.1822 -0.3216
18995TIP3    H278477   4.336   0.714   3.213 -0.4827  1.1418 -0.2153
18996TIP3   OH278478   5.063   6.088   4.236  0.2563  0.0280 -0.4741
18996TIP3    H178479   5.006   6.157   4.271  1.6387  0.5052  0.8873
18996TIP3    H278480   5.120   6.133   4.174  0.2364 -0.1504 -0.6226
18997TIP3   OH278481   5.708   1.075  12.253  0.1157 -0.6181 -0.1624
18997TIP3    H178482   5.623   1.050  12.289  0.3264 -0.3212  0.5487
18997TIP3    H278483   5.706   1.045  12.162 -0.8211 -0.4407 -0.2018
18998TIP3   OH278484   6.335   2.861  14.400  0.2135  0.2755  0.1314
18998TIP3    H178485   6.289   2.796  14.347 -0.8891 -0.2753  1.7447
18998TIP3    H278486   6.425   2.857  14.369 -0.8060  1.5310 -3.2320
18999TIP3   OH278487   0.153   4.078  15.776 -0.1524 -0.4814 -0.6646
18999TIP3    H178488   0.076   4.134  15.791  0.5428  0.7656 -1.6049
18999TIP3    H278489   0.146   4.010  15.842 -1.0037  0.7497  0.5550
19000TIP3   OH278490   3.373   0.336   0.300  0.6111  0.3937 -0.2613
19000TIP3    H178491   3.355   0.429   0.284 -0.6059  0.4622  1.4154
19000TIP3    H278492   3.332   0.291   0.226 -1.2018  1.0077  0.3566
19001TIP3   OH278493   5.289   0.082  11.202  0.1327  0.2994  0.3877
19001TIP3    H178494   5.327   0.107  11.118 -0.9161 -1.0640 -0.5106
19001TIP3    H278495   5.304   0.157  11.259 -0.8458  2.0013 -1.5618
19002TIP3   OH278496   0.724   3.473   4.546  0.5365  0.0072 -0.1671
19002TIP3    H178497   0.673   3.552   4.530  0.6318  0.0556 -0.2343
19002TIP3    H278498   0.794   3.477   4.481  1.6922  0.8531  1.1124
19003TIP3   OH278499   6.766   1.044   4.206  0.2510 -0.1921 -0.2576
19003TIP3    H178500   6.813   1.128   4.206  0.2788 -0.2132 -0.9539
19003TIP3    H278501   6.801   0.996   4.131  0.8363 -1.1679  0.6220
19004TIP3   OH278502   4.929   6.709  16.668  0.0913  0.7304 -0.7649
19004TIP3    H178503   4.973   6.633  16.706 -0.8918  0.7327  0.3838
19004TIP3    H278504   4.886   6.752  16.741 -2.8592  0.0432 -2.0232
19005TIP3   OH278505   1.253   0.327   1.719 -0.3960  0.7318  1.0317
19005TIP3    H178506   1.282   0.416   1.701 -0.2558  0.5403  0.3156
19005TIP3    H278507   1.159   0.328   1.702 -0.0889  0.2744 -0.8448
19006TIP3   OH278508   4.173   0.990  13.444 -0.1317  0.0038  0.1336
19006TIP3    H178509   4.161   1.085  13.434  2.7154  0.3359 -0.4607
19006TIP3    H278510   4.251   0.981  13.499 -1.7234 -2.0170  2.1751
19007TIP3   OH278511   1.257   5.599  16.177  0.0607  0.0999  0.1706
19007TIP3    H178512   1.322   5.556  16.233  2.0418  1.7279 -0.8095
19007TIP3    H278513   1.176   5.553  16.195  1.6690 -2.6355  0.7254
19008TIP3   OH278514   0.575   6.086   1.380 -0.1204  0.1707  0.1089
19008TIP3    H178515   0.585   5.994   1.405 -0.2184 -0.2641 -1.4057
19008TIP3    H278516   0.625   6.095   1.299 -4.3133  0.1357 -2.6500
19009TIP3   OH278517   3.898   3.483   3.597  0.4529  0.1618  0.0658
19009TIP3    H178518   3.833   3.477   3.667  0.6294  0.3635  0.2484
19009TIP3    H278519   3.965   3.542   3.632  0.1367  0.9274 -0.5810
19010TIP3   OH278520   0.089   2.122  15.168 -0.0437 -0.0970 -0.0349
19010TIP3    H178521   0.094   2.117  15.072 -0.3330 -0.5146 -0.0238
19010TIP3    H278522   0.168   2.172  15.193 -0.3275  0.6172 -0.5383
19011TIP3   OH278523   5.823   2.381   4.685  0.5646 -0.3488 -0.2501
19011TIP3    H178524   5.885   2.423   4.745  0.3764  0.8970 -0.9055
19011TIP3    H278525   5.876   2.358   4.609  0.6451 -1.2350  0.0643
19012TIP3   OH278526   4.248   6.201  15.685  0.6459 -0.1711 -0.3924
19012TIP3    H178527   4.243   6.111  15.654 -1.5286 -0.8173  1.6622
19012TIP3    H278528   4.237   6.195  15.780 -0.5128  2.3207 -0.3137
19013TIP3   OH278529   5.942   1.467  12.768  0.5182  0.1162 -0.1175
19013TIP3    H178530   5.857   1.510  12.769  0.7748  0.6867 -1.2617
19013TIP3    H278531   5.997   1.525  12.715  0.7942 -1.7409 -1.9443
19014TIP3   OH278532   5.758   3.355  12.585  0.3103  0.5762 -0.2399
19014TIP3    H178533   5.741   3.338  12.492 -0.0081  0.7327 -0.2109
19014TIP3    H278534   5.678   3.399  12.616  0.0623 -0.2446  0.3073
19015TIP3   OH278535   2.846   3.745   2.002  0.2919  0.2883  0.2361
19015TIP3    H178536   2.752   3.750   1.984  0.4527  2.4666 -0.0682
19015TIP3    H278537   2.867   3.652   1.992 -1.8001 -0.2017  0.1783
19016TIP3   OH278538   5.123   1.134  13.145 -0.3871  0.2632  0.0668
19016TIP3    H178539   5.037   1.107  13.115 -0.3820  1.6942 -1.3020
19016TIP3    H278540   5.107   1.176  13.230 -0.6034 -2.3444  1.3617
19017TIP3   OH278541   2.794   4.838   3.262 -0.0580 -0.4404  0.2728
19017TIP3    H178542   2.810   4.893   3.339 -0.5590 -0.4856  0.4067
19017TIP3    H278543   2.876   4.790   3.250  0.0734 -0.3180  0.6829
19018TIP3   OH278544   2.397   0.013  15.686  0.2654 -0.8042  0.1241
19018TIP3    H178545   2.451  -0.059  15.721 -0.0420 -1.2081 -0.2351
19018TIP3    H278546   2.461   0.077  15.654  0.5840  0.1730  2.5950
19019TIP3   OH278547   0.949   2.830   0.274  0.3492  0.3076  0.0679
19019TIP3    H178548   0.860   2.841   0.307 -0.2020 -1.5029 -0.7941
19019TIP3    H278549   0.954   2.889   0.198  0.4490  1.6737  1.1077
19020TIP3   OH278550   4.814   3.092   5.687 -0.5791  0.1548  0.3854
19020TIP3    H178551   4.783   3.117   5.774  3.6340  0.7146  1.8685
19020TIP3    H278552   4.887   3.033   5.705 -0.1585 -0.3559 -2.8122
19021TIP3   OH278553   1.112   0.547  14.765  0.1065  0.4588 -0.5810
19021TIP3    H178554   1.150   0.515  14.683  1.4136  1.7487 -0.4890
19021TIP3    H278555   1.081   0.468  14.809  2.1658 -0.5692 -0.9263
19022TIP3   OH278556   3.182   2.047   0.790  0.3612 -0.4556 -0.3207
19022TIP3    H178557   3.144   1.975   0.740  0.1259  1.1774 -2.5431
19022TIP3    H278558   3.243   2.089   0.730  0.4903  1.2188  0.9469
19023TIP3   OH278559   4.755   4.028   6.497  0.0680 -0.1925 -0.0805
19023TIP3    H178560   4.740   4.123   6.501 -0.2301 -0.2313 -0.2433
19023TIP3    H278561   4.847   4.019   6.471 -0.1060  0.0555 -0.8115
19024TIP3   OH278562   0.879   0.191   2.476  0.1637  0.1717 -0.0395
19024TIP3    H178563   0.828   0.257   2.524 -0.7451  0.2263 -1.0760
19024TIP3    H278564   0.816   0.122   2.455  0.0163  1.1876 -3.1507
19025TIP3   OH278565   1.112   1.595   2.669 -0.2970 -0.6903 -0.0738
19025TIP3    H178566   1.056   1.524   2.637  0.2588 -0.5746 -1.3636
19025TIP3    H278567   1.068   1.675   2.641  0.1855 -0.5854 -0.5506
19026TIP3   OH278568   5.255   4.107   4.489 -0.5140 -0.1069 -0.5658
19026TIP3    H178569   5.325   4.080   4.429 -0.2822 -1.3593  0.2636
19026TIP3    H278570   5.179   4.119   4.432  0.2739  0.9097 -1.4280
19027TIP3   OH278571   2.544   5.600  13.471 -0.3438 -0.0580  0.3177
19027TIP3    H178572   2.619   5.652  13.443 -0.6345 -0.0477 -0.4376
19027TIP3    H278573   2.498   5.656  13.534  0.3412 -0.1124  0.8758
19028TIP3   OH278574   0.885   3.523  15.675  0.0862  0.1939 -0.1692
19028TIP3    H178575   0.836   3.554  15.599  0.5347 -0.4591 -0.7286
19028TIP3    H278576   0.847   3.438  15.695  0.0428  0.3164  0.2727
19029TIP3   OH278577   5.244   5.240  16.593 -0.2378 -0.4213  0.3247
19029TIP3    H178578   5.314   5.197  16.642 -0.5653 -1.0626  0.2395
19029TIP3    H278579   5.227   5.322  16.641  0.5086 -0.3072  0.3915
19030TIP3   OH278580   6.302   2.040  13.845 -0.5077 -0.1862  0.2382
19030TIP3    H178581   6.305   1.950  13.814  1.0952 -0.4679  1.1672
19030TIP3    H278582   6.306   2.094  13.766 -0.1032 -0.9204 -0.2423
19031TIP3   OH278583   3.230   5.438  13.753 -0.0562  0.1356 -0.5640
19031TIP3    H178584   3.206   5.498  13.681 -1.0168  0.7398  0.2493
19031TIP3    H278585   3.294   5.487  13.804 -0.2417  0.1538 -0.3503
19032TIP3   OH278586   3.593   5.709  17.030 -0.2387 -0.6660  0.8542
19032TIP3    H178587   3.501   5.702  17.003  0.4297  1.7317 -2.3966
19032TIP3    H278588   3.597   5.790  17.081  0.2301 -0.2087  0.1044
19033TIP3   OH278589   4.815   3.459  13.032 -0.2264 -0.0829  0.2848
19033TIP3    H178590   4.907   3.441  13.049  0.1682  1.7523  0.2581
19033TIP3    H278591   4.783   3.501  13.112 -1.5061 -2.2560  0.9531
19034TIP3   OH278592   0.748   0.175  16.879  0.8448  0.8042  0.1641
19034TIP3    H178593   0.785   0.165  16.791  0.4236  1.1376 -0.0486
19034TIP3    H278594   0.654   0.163  16.867  0.7487  1.1874  0.5144
19035TIP3   OH278595   5.651   2.529  11.297 -0.0591 -0.0837 -0.2780
19035TIP3    H178596   5.613   2.482  11.223  1.0591 -0.5768 -0.5459
19035TIP3    H278597   5.577   2.545  11.356 -0.8160 -0.3471 -1.1500
19036TIP3   OH278598   3.180   1.599  15.003  0.7814 -0.1923 -0.4188
19036TIP3    H178599   3.252   1.628  14.947  1.6582 -0.2651  0.6485
19036TIP3    H278600   3.181   1.503  14.994  0.3101 -0.1477 -1.0040
19037TIP3   OH278601   5.375   5.067   5.428  0.0918  0.1012 -0.1299
19037TIP3    H178602   5.372   5.066   5.333  1.9504 -0.3685 -0.1987
19037TIP3    H278603   5.467   5.085   5.449 -0.1089 -0.7800  1.5716
19038TIP3   OH278604   4.557   5.911  14.462  0.3082  0.2631 -0.0357
19038TIP3    H178605   4.536   5.956  14.381  0.3277 -2.5332 -1.6855
19038TIP3    H278606   4.644   5.873  14.446  0.4364 -0.0759  1.3901
19039TIP3   OH278607   0.419   0.045   3.644 -0.4712  0.1968  0.4431
19039TIP3    H178608   0.512   0.047   3.622 -0.2796  2.2623  1.3041
19039TIP3    H278609   0.408  -0.033   3.697  0.2960 -1.3327 -1.5658
19040TIP3   OH278610   4.986   4.085  14.048  0.0287 -0.5307  0.8771
19040TIP3    H178611   4.978   4.028  13.972  0.7618 -0.7266  0.9398
19040TIP3    H278612   4.951   4.169  14.019  0.6444 -0.4999  0.1964
19041TIP3   OH278613   6.498   5.743  14.242 -0.1020 -0.0555 -0.2481
19041TIP3    H178614   6.570   5.684  14.220 -0.7073 -1.5900  1.7102
19041TIP3    H278615   6.446   5.749  14.162  0.1764 -1.9095 -0.5918
19042TIP3   OH278616   2.309   6.467   2.978  0.1628 -0.5456  0.4189
19042TIP3    H178617   2.266   6.522   3.044  0.0433 -0.7874  0.5447
19042TIP3    H278618   2.298   6.378   3.011  0.0386 -0.6732  0.0337
19043TIP3   OH278619   1.560   6.120  15.234 -0.3247 -0.3176  0.4851
19043TIP3    H178620   1.560   6.026  15.249 -2.6184 -0.3925  0.1627
19043TIP3    H278621   1.576   6.159  15.320  0.5343 -0.9928  0.6314
19044TIP3   OH278622   5.502   6.722   1.897 -0.0331 -0.0854 -0.2143
19044TIP3    H178623   5.500   6.628   1.880 -1.7069  0.1077 -1.1475
19044TIP3    H278624   5.497   6.730   1.992  4.2094 -1.0406  0.1969
19045TIP3   OH278625   3.492   2.015  13.477 -0.1175  0.1585  0.4509
19045TIP3    H178626   3.503   2.056  13.391  2.0148  1.1538  1.1632
19045TIP3    H278627   3.513   2.085  13.539  1.5996 -1.4420  1.7231
19046TIP3   OH278628   6.317   3.123  16.163  0.1573 -0.2447 -0.3264
19046TIP3    H178629   6.266   3.066  16.106  0.0239 -0.6437  0.1899
19046TIP3    H278630   6.269   3.125  16.246 -0.1025  1.0119 -0.4867
19047TIP3   OH278631   0.108   0.783   2.286  0.5295 -0.3037 -0.4238
19047TIP3    H178632   0.136   0.732   2.362  1.0934  0.0359 -0.4009
19047TIP3    H278633   0.014   0.768   2.280  0.8457 -2.1633 -1.0145
19048TIP3   OH278634   5.458   6.456  16.822 -0.0346 -0.4562 -0.1203
19048TIP3    H178635   5.460   6.519  16.895 -1.5493 -0.3604 -0.1537
19048TIP3    H278636   5.481   6.372  16.862 -0.1053 -0.2626  0.3289
19049TIP3   OH278637   6.621   1.500  13.288  0.4093 -0.0776 -0.2349
19049TIP3    H178638   6.631   1.569  13.223 -2.1018  1.8574  1.3601
19049TIP3    H278639   6.534   1.464  13.272  0.8826 -1.4875  0.2892
19050TIP3   OH278640   0.048   2.217  14.028  0.4554  0.2490  0.1380
19050TIP3    H178641   0.039   2.291  13.968  1.3570 -1.1186 -1.7438
19050TIP3    H278642  -0.023   2.157  14.004  2.9682 -1.9583 -2.0744
19051TIP3   OH278643   6.064   3.139   3.818  0.6570 -0.3334 -0.3489
19051TIP3    H178644   6.073   3.052   3.857  1.2354  0.8513  2.2384
19051TIP3    H278645   6.136   3.190   3.855 -0.8520  1.7978 -0.2327
19052TIP3   OH278646   5.539   3.955   1.815  0.4910  0.2377 -0.1216
19052TIP3    H178647   5.632   3.939   1.800  0.6256  1.4628 -0.6857
19052TIP3    H278648   5.536   4.003   1.898  0.3149 -0.2777  0.1725
19053TIP3   OH278649   6.610   5.107   0.871  0.3880 -0.3097 -0.1483
19053TIP3    H178650   6.612   5.147   0.784  0.0627 -0.3974 -0.1968
19053TIP3    H278651   6.685   5.048   0.872  0.6117 -0.0301 -0.2340
19054TIP3   OH278652   2.400   1.721  10.461 -0.0276  0.1749  0.5289
19054TIP3    H178653   2.309   1.741  10.480  0.1644 -0.5565  2.2915
19054TIP3    H278654   2.400   1.629  10.436 -0.1750  0.9351 -2.4733
19055TIP3   OH278655   1.323   3.690   4.639  0.0389 -0.3057  0.3623
19055TIP3    H178656   1.232   3.689   4.609 -0.3237  0.2893  1.4044
19055TIP3    H278657   1.317   3.677   4.733  0.9734  0.5249  0.5455
19056TIP3   OH278658   2.559   2.269   0.749 -0.1661 -0.3286  0.0929
19056TIP3    H178659   2.628   2.240   0.809 -1.0668  0.9910  1.8024
19056TIP3    H278660   2.560   2.364   0.755 -0.4670 -0.1851 -1.8095
19057TIP3   OH278661   4.693   2.687  16.842 -0.1908  0.2934 -0.0276
19057TIP3    H178662   4.691   2.767  16.893 -1.4238 -0.6101  1.3883
19057TIP3    H278663   4.685   2.617  16.907  0.3041 -0.9531 -1.2853
19058TIP3   OH278664   1.590   5.700  13.450 -0.0418 -0.2657  0.1913
19058TIP3    H178665   1.498   5.698  13.477  0.0632 -0.6163  0.5313
19058TIP3    H278666   1.634   5.750  13.519 -0.1272  0.7037 -0.4498
19059TIP3   OH278667   2.409   6.814   4.407 -0.2077  0.8028 -0.2064
19059TIP3    H178668   2.394   6.869   4.484 -0.3997  0.9361 -0.3367
19059TIP3    H278669   2.327   6.819   4.359 -1.0982 -1.5543  1.0153
19060TIP3   OH278670   3.337   3.102   1.796  0.8271  0.2779 -0.2901
19060TIP3    H178671   3.388   3.046   1.853 -0.1275 -1.0331 -0.7121
19060TIP3    H278672   3.385   3.103   1.713  0.4339 -0.5853 -0.5383
19061TIP3   OH278673   1.994   2.137   5.744 -0.4253  0.0375 -0.0725
19061TIP3    H178674   2.015   2.199   5.675 -0.5110  0.2381  0.0811
19061TIP3    H278675   2.069   2.141   5.804  0.0805 -0.8171 -0.6280
19062TIP3   OH278676   4.590   3.664   0.635 -0.7326 -0.5391 -0.1330
19062TIP3    H178677   4.542   3.746   0.625  2.0865  1.2341  0.1119
19062TIP3    H278678   4.613   3.639   0.545  1.9259  1.2164 -0.0079
19063TIP3   OH278679   3.588   4.031  14.888 -0.5307 -0.0861  0.7343
19063TIP3    H178680   3.682   4.017  14.900 -0.4500 -0.0296  0.1818
19063TIP3    H278681   3.579   4.054  14.795 -1.0254  0.4475  0.9115
19064TIP3   OH278682   2.622   3.514  11.960 -0.0570  0.0455 -0.0022
19064TIP3    H178683   2.621   3.420  11.978 -0.4900  0.6088  3.2531
19064TIP3    H278684   2.703   3.529  11.912 -0.3820 -2.1017 -1.2519
19065TIP3   OH278685   3.438   3.380  12.701  0.1656 -0.4760 -0.1143
19065TIP3    H178686   3.455   3.456  12.757 -1.3086 -0.2609  0.0591
19065TIP3    H278687   3.385   3.414  12.629 -1.2924 -1.5068  0.4460
19066TIP3   OH278688   2.267   5.480  13.028  0.4172  0.1635 -0.2810
19066TIP3    H178689   2.247   5.514  13.115  0.5753 -0.2876 -0.0644
19066TIP3    H278690   2.188   5.497  12.977  0.6046  1.1224 -0.2621
19067TIP3   OH278691   5.330   4.672  12.932 -0.5406  0.2280  0.4383
19067TIP3    H178692   5.327   4.687  13.026 -0.6616  0.6818  0.3671
19067TIP3    H278693   5.408   4.619  12.918 -2.2777 -2.5887  1.1525
19068TIP3   OH278694   6.349   2.108   4.407  0.6027 -0.0213 -0.2685
19068TIP3    H178695   6.377   2.040   4.468 -2.0189 -0.5243  0.4130
19068TIP3    H278696   6.310   2.060   4.334 -1.4209  0.7080  0.2955
19069TIP3   OH278697   3.435   1.778  13.312  0.6383 -0.5564 -0.3493
19069TIP3    H178698   3.446   1.857  13.364 -1.6164 -0.5908  0.2420
19069TIP3    H278699   3.515   1.728  13.327  1.9362  1.4277 -0.4475
19070TIP3   OH278700   2.158   3.599  10.943 -0.3054  0.3844  0.2003
19070TIP3    H178701   2.188   3.553  11.022  2.8189  1.1512 -0.4556
19070TIP3    H278702   2.207   3.558  10.872 -0.8915  1.6792 -0.9756
19071TIP3   OH278703   3.956   0.525  14.358  0.3259  0.1531  0.2346
19071TIP3    H178704   4.043   0.531  14.397 -0.0167 -0.8290  1.1632
19071TIP3    H278705   3.941   0.431  14.345 -0.0980  0.3888 -1.0510
19072TIP3   OH278706   1.531   4.597  16.007  0.3891  0.6506  0.8877
19072TIP3    H178707   1.558   4.608  15.916 -0.5361  0.1443  0.5379
19072TIP3    H278708   1.563   4.511  16.032  0.3819  0.6626  0.9375
19073TIP3   OH278709   0.238   4.478  16.042  0.2344 -0.1788 -0.2347
19073TIP3    H178710   0.313   4.530  16.071 -1.7414  2.0547  1.1067
19073TIP3    H278711   0.175   4.544  16.010 -1.1318 -1.9947 -1.3694
19074TIP3   OH278712   1.641   1.997  15.030 -0.2836 -0.1339  0.2229
19074TIP3    H178713   1.681   2.083  15.015  0.6099 -0.7657 -1.1566
19074TIP3    H278714   1.672   1.943  14.957  0.3348 -2.0512  1.8683
19075TIP3   OH278715   2.177   3.310   3.368 -0.2488 -0.3017  0.3102
19075TIP3    H178716   2.234   3.372   3.413  0.8696 -1.3444  0.3470
19075TIP3    H278717   2.092   3.353   3.365  0.6681  1.4971 -0.2268
19076TIP3   OH278718   5.335   2.256  12.844  0.1351  0.0452 -0.5637
19076TIP3    H178719   5.328   2.198  12.919 -0.2922  0.3058 -0.3952
19076TIP3    H278720   5.257   2.236  12.791 -0.7833  1.4397  0.2061
19077TIP3   OH278721   6.008   0.307  16.130 -0.0579  0.1618  0.0291
19077TIP3    H178722   6.033   0.383  16.078  2.4438  0.3876  1.4946
19077TIP3    H278723   6.011   0.234  16.068  0.1786  0.8371 -0.7707
19078TIP3   OH278724   1.028   1.619   0.357  0.0040  0.2011  0.2585
19078TIP3    H178725   0.989   1.650   0.439  0.9087  2.5523 -0.1587
19078TIP3    H278726   1.051   1.528   0.375  2.4300  1.3376  3.4828
19079TIP3   OH278727   4.658   5.658  15.581  0.1853 -0.3324  0.0395
19079TIP3    H178728   4.708   5.625  15.507 -0.0436 -1.8250  0.5228
19079TIP3    H278729   4.581   5.700  15.541  0.4702 -0.4037 -0.5936
19080TIP3   OH278730   0.305   1.858   4.522 -0.9367  0.4633  0.3776
19080TIP3    H178731   0.282   1.946   4.552 -0.2623  0.9821 -0.6199
19080TIP3    H278732   0.365   1.825   4.589 -1.8596  0.4331  1.1937
19081TIP3   OH278733   4.238   0.638  16.387 -0.1564  0.1076 -0.2841
19081TIP3    H178734   4.332   0.656  16.386 -0.3395  1.0748 -0.1804
19081TIP3    H278735   4.213   0.646  16.479 -0.1682 -1.0999 -0.1687
19082TIP3   OH278736   3.224   5.574   6.482  0.2034  0.4639 -0.0059
19082TIP3    H178737   3.161   5.508   6.511  0.2829 -0.7441 -2.4644
19082TIP3    H278738   3.185   5.657   6.509 -1.7243 -0.3624 -0.1242
19083TIP3   OH278739   2.536   5.625   5.394 -0.6398 -0.4298 -0.3369
19083TIP3    H178740   2.538   5.677   5.475 -0.0321 -0.2309 -0.4749
19083TIP3    H278741   2.511   5.688   5.326 -2.9400 -0.9783 -0.0372
19084TIP3   OH278742   6.006   1.010  14.647 -0.2654  0.2708 -0.0620
19084TIP3    H178743   6.069   0.939  14.637  0.5981  0.6885  2.0914
19084TIP3    H278744   5.941   0.995  14.579 -0.6960 -3.1935  1.0355
19085TIP3   OH278745   6.555   1.293  15.361 -0.2943 -0.1651 -0.0956
19085TIP3    H178746   6.630   1.292  15.421  0.0451 -0.5372 -0.5197
19085TIP3    H278747   6.554   1.382  15.325  1.0024 -0.6445 -1.3926
19086TIP3   OH278748   0.917   2.773  14.758  0.7599  0.1569 -0.5712
19086TIP3    H178749   0.840   2.748  14.707  1.1640  2.7349 -2.5324
19086TIP3    H278750   0.914   2.715  14.835 -2.7147 -0.2924 -0.9432
19087TIP3   OH278751   4.324   2.423   1.274  0.2890  0.6819  0.1794
19087TIP3    H178752   4.279   2.455   1.353  1.3392  0.9079  0.6928
19087TIP3    H278753   4.314   2.328   1.278 -0.1794  0.7342  0.2710
19088TIP3   OH278754   4.177   3.287   5.976  0.4197  0.5674  0.5754
19088TIP3    H178755   4.136   3.353   6.032  0.3455  1.9083 -1.0250
19088TIP3    H278756   4.137   3.300   5.890 -0.5979 -2.4999  0.5552
19089TIP3   OH278757   1.166   2.010  12.213 -0.2402  0.7003 -0.4286
19089TIP3    H178758   1.188   2.103  12.212 -2.1329  1.1639 -0.3020
19089TIP3    H278759   1.151   1.987  12.121  2.0301  0.0601 -0.6592
19090TIP3   OH278760   1.558   2.557  17.244 -0.2388 -0.1445  0.1237
19090TIP3    H178761   1.469   2.564  17.209 -0.2614 -1.8814 -0.1599
19090TIP3    H278762   1.547   2.572  17.338 -0.8422 -0.3929  0.0943
19091TIP3   OH278763   3.273   4.431  12.210  0.5699  0.1203 -0.0077
19091TIP3    H178764   3.237   4.503  12.261  0.3997  0.6307 -0.8429
19091TIP3    H278765   3.213   4.358  12.225  1.0417 -0.0101  1.2704
19092TIP3   OH278766   1.466   1.152  13.486  0.1966 -0.5307  0.5231
19092TIP3    H178767   1.443   1.233  13.439 -1.4197 -0.4166  1.4734
19092TIP3    H278768   1.448   1.082  13.424  0.7112 -0.2254  0.0210
19093TIP3   OH278769   6.768   1.431  14.279 -0.1636 -0.1139 -0.3724
19093TIP3    H178770   6.732   1.513  14.247 -1.2059  0.1044  1.2855
19093TIP3    H278771   6.856   1.454  14.310 -0.5401  0.4348  0.3011
19094TIP3   OH278772   3.236   3.254  14.868  0.3340  0.1515  0.0341
19094TIP3    H178773   3.176   3.234  14.795  0.3108 -0.9156  0.3314
19094TIP3    H278774   3.179   3.274  14.942  0.3374 -0.8743  0.3202
19095TIP3   OH278775   6.011   4.287   4.086  0.1098 -0.4311  0.5811
19095TIP3    H178776   6.069   4.353   4.047 -0.3387 -1.1011 -1.2957
19095TIP3    H278777   5.987   4.324   4.171 -0.1197  1.8656 -0.4203
19096TIP3   OH278778   2.625   3.604  14.461 -0.5628 -0.0208  0.8189
19096TIP3    H178779   2.677   3.581  14.538  0.5738  2.0416  0.7091
19096TIP3    H278780   2.671   3.677  14.421 -0.0518 -2.2169 -2.9525
19097TIP3   OH278781   4.050   1.211   2.290  0.0162  0.1650  0.4755
19097TIP3    H178782   4.025   1.289   2.339 -2.0735  0.1250 -0.5004
19097TIP3    H278783   4.050   1.239   2.199  0.4138 -0.6760  0.2118
19098TIP3   OH278784   2.086   2.882   0.173  0.3979  0.0146  0.1299
19098TIP3    H178785   2.035   2.823   0.228 -0.4512 -0.0949 -0.7581
19098TIP3    H278786   2.168   2.836   0.157  0.0329 -0.6117  0.0522
19099TIP3   OH278787   2.730   0.601  16.551  0.2591  0.1433  0.3444
19099TIP3    H178788   2.765   0.640  16.631  1.9833  0.1181 -0.3697
19099TIP3    H278789   2.806   0.594  16.493 -0.9734  0.2189 -1.3139
19100TIP3   OH278790   6.365   5.829  10.570  0.3432  0.1992 -0.1615
19100TIP3    H178791   6.301   5.829  10.641  1.3956 -1.8093  0.8259
19100TIP3    H278792   6.314   5.804  10.492 -0.2311 -0.6514  0.4747
19101TIP3   OH278793   0.044   4.901   6.019 -0.1337  0.2639  0.4551
19101TIP3    H178794   0.006   4.989   6.025  0.4278  0.6543 -1.4430
19101TIP3    H278795   0.089   4.900   5.934 -0.5894 -2.0501  0.2206
19102TIP3   OH278796   6.123   5.264   5.411 -0.6262  0.2858 -0.4679
19102TIP3    H178797   6.203   5.213   5.396 -2.2125 -2.1494 -0.9558
19102TIP3    H278798   6.118   5.324   5.337  0.1400 -0.3707 -1.0559
19103TIP3   OH278799   2.449   3.724   3.181 -0.8718 -0.1878  0.2363
19103TIP3    H178800   2.529   3.696   3.227 -1.3796 -2.8852 -0.4556
19103TIP3    H278801   2.481   3.783   3.113  0.7039 -2.0038 -0.6794
19104TIP3   OH278802   6.320   3.585  15.611  0.8022 -0.2243 -0.0777
19104TIP3    H178803   6.252   3.608  15.674  0.8449 -0.9531  0.2463
19104TIP3    H278804   6.369   3.666  15.597 -1.2237  0.7571 -1.6846
19105TIP3   OH278805   3.279   0.057   3.623 -0.3108  0.2364 -0.1169
19105TIP3    H178806   3.311  -0.005   3.688 -0.4587 -0.1442 -0.4029
19105TIP3    H278807   3.223   0.117   3.673 -1.4156 -0.7898 -0.0873
19106TIP3   OH278808   5.489   2.069   0.040 -0.4183 -1.0505  0.3594
19106TIP3    H178809   5.553   2.122   0.088 -0.6890 -2.3689  2.2356
19106TIP3    H278810   5.421   2.130   0.014 -0.1916 -0.2792  1.5368
19107TIP3   OH278811   5.386   1.625  14.492  0.3802 -0.3205  0.1200
19107TIP3    H178812   5.430   1.597  14.573  0.4171  1.0469  0.5793
19107TIP3    H278813   5.446   1.689  14.454  0.1725 -0.6690 -0.7917
19108TIP3   OH278814   2.329   2.844   1.221  0.2197 -0.4535 -0.0937
19108TIP3    H178815   2.365   2.756   1.229 -0.8042 -0.8755 -0.0898
19108TIP3    H278816   2.339   2.865   1.128  1.8060  0.0229  0.1563
19109TIP3   OH278817   5.531   0.056   0.616  0.1901  0.3834  0.7213
19109TIP3    H178818   5.464   0.124   0.626 -0.7529 -0.5721  0.9103
19109TIP3    H278819   5.579   0.057   0.698 -0.8313 -0.2484  1.3310
19110TIP3   OH278820   1.043   1.762   3.343  0.0844  0.0510 -0.4917
19110TIP3    H178821   1.135   1.783   3.327 -0.3941  0.9954 -2.1151
19110TIP3    H278822   1.046   1.686   3.402  1.8939  0.0827 -0.5083
19111TIP3   OH278823   4.112   4.066  11.327  0.0625 -0.6835  0.3906
19111TIP3    H178824   4.085   4.048  11.237  0.3390 -1.2349  0.4182
19111TIP3    H278825   4.207   4.058  11.326  0.0426 -0.9897  0.7975
19112TIP3   OH278826   5.349   5.499   4.284 -0.0356  0.2405 -0.0799
19112TIP3    H178827   5.348   5.469   4.375  1.7382  0.6065  0.0676
19112TIP3    H278828   5.442   5.506   4.262 -0.4536  0.7204 -1.7383
19113TIP3   OH278829   4.735   0.263   3.941  0.5523 -0.6227 -0.2147
19113TIP3    H178830   4.818   0.273   3.989  0.9320 -2.2129 -0.5101
19113TIP3    H278831   4.688   0.344   3.957  1.5182 -0.3390  1.2371
19114TIP3   OH278832   1.619   2.404  16.017  0.8781 -0.3323  0.3104
19114TIP3    H178833   1.591   2.425  15.928 -0.0653  1.8739  1.0875
19114TIP3    H278834   1.653   2.315  16.011 -0.4143 -0.7183 -1.9835
19115TIP3   OH278835   3.235   3.826  14.658  0.2493  0.3067 -0.5507
19115TIP3    H178836   3.236   3.873  14.741 -0.0383  0.8373 -0.8477
19115TIP3    H278837   3.327   3.807  14.641  0.1738 -1.3195  0.7426
19116TIP3   OH278838   4.129   5.436  16.730 -0.3170 -0.4802  0.1299
19116TIP3    H178839   4.153   5.515  16.681 -0.2250 -0.7636 -0.2925
19116TIP3    H278840   4.109   5.467  16.818  0.4580 -0.0848  0.1680
19117TIP3   OH278841   1.769   6.124   2.400  0.2058  0.5515 -0.2769
19117TIP3    H178842   1.744   6.032   2.395  1.0120  0.2736  0.7049
19117TIP3    H278843   1.693   6.171   2.366 -1.4018 -0.3012  2.0372
19118TIP3   OH278844   5.671   4.480   4.068  0.2042  0.1643 -0.3584
19118TIP3    H178845   5.723   4.550   4.029 -0.9657 -0.3548 -2.9889
19118TIP3    H278846   5.719   4.400   4.046 -0.6446 -0.1641 -1.0167
19119TIP3   OH278847   5.519   2.366   4.596  0.3099 -0.0002  0.1255
19119TIP3    H178848   5.516   2.423   4.673  1.6005 -0.2920  0.4117
19119TIP3    H278849   5.612   2.362   4.574  0.3261 -2.5378  0.5214
19120TIP3   OH278850   0.127   4.857   1.048  0.2666 -0.3622 -0.0559
19120TIP3    H178851   0.164   4.890   0.966 -0.9724  1.3413  0.0369
19120TIP3    H278852   0.034   4.845   1.028 -0.1332  0.5287  1.2418
19121TIP3   OH278853   0.183   3.505  11.613  0.1692  0.4461 -0.6069
19121TIP3    H178854   0.122   3.431  11.603 -0.7753  1.2387 -0.7659
19121TIP3    H278855   0.132   3.582  11.589  0.6413  1.3497  1.2137
19122TIP3   OH278856   6.779   4.456  14.201  0.4394  0.1240 -0.3063
19122TIP3    H178857   6.823   4.372  14.218 -0.7742 -0.7506 -1.3721
19122TIP3    H278858   6.729   4.474  14.281 -0.6181 -1.0267 -0.6914
19123TIP3   OH278859   2.388   3.930  10.957 -0.0040  0.1548  0.1673
19123TIP3    H178860   2.375   3.957  11.048 -1.0836 -0.6410  0.2600
19123TIP3    H278861   2.421   3.841  10.963 -0.9017 -0.2082 -0.2370
19124TIP3   OH278862   6.620   2.453  13.428 -0.2049 -0.0649 -0.4666
19124TIP3    H178863   6.643   2.479  13.339  2.4538 -1.7250 -0.3250
19124TIP3    H278864   6.557   2.382  13.417 -1.1788  0.8595 -0.9685
19125TIP3   OH278865   5.550   1.830  13.492  0.2309  0.0358  0.1967
19125TIP3    H178866   5.599   1.909  13.515  0.1967  0.1255 -0.0345
19125TIP3    H278867   5.510   1.851  13.407  0.6241 -0.4116 -0.1020
19126TIP3   OH278868   4.633   0.943   6.369 -0.2644 -0.2897 -0.3306
19126TIP3    H178869   4.666   0.853   6.366  1.9005  0.4951 -1.5009
19126TIP3    H278870   4.538   0.934   6.365 -0.0740 -2.5225 -0.4907
19127TIP3   OH278871   5.998   6.705   1.275 -0.2820 -0.4391  0.2292
19127TIP3    H178872   6.071   6.644   1.288  0.6695  1.1524  2.8340
19127TIP3    H278873   5.926   6.667   1.327 -0.4937 -0.6599 -0.2245
19128TIP3   OH278874   4.068   4.018   2.943 -0.1226  0.2547  0.1204
19128TIP3    H178875   4.115   4.093   2.904  1.1755  0.1434  1.4063
19128TIP3    H278876   3.979   4.050   2.956  0.4470  1.6539  0.7770
19129TIP3   OH278877   0.891   1.825  15.104  0.7040 -0.4708 -0.5984
19129TIP3    H178878   0.882   1.893  15.037  1.6321  0.2098 -0.0397
19129TIP3    H278879   0.962   1.769  15.072  1.1907 -0.1076 -0.1534
19130TIP3   OH278880   2.049   5.376   5.162  0.1504  0.3191  0.4138
19130TIP3    H178881   2.120   5.317   5.138  0.1085  0.3445  0.2264
19130TIP3    H278882   2.061   5.453   5.107  2.0144  1.8130  2.8336
19131TIP3   OH278883   0.489   2.137   2.307 -0.0431  0.0992 -0.1271
19131TIP3    H178884   0.397   2.162   2.323  0.3145  1.1059  0.3909
19131TIP3    H278885   0.540   2.195   2.364  0.9373 -0.2072 -0.6827
19132TIP3   OH278886   3.725   2.761   5.018  0.0480 -0.0408 -0.3544
19132TIP3    H178887   3.772   2.723   4.944  2.4724 -0.2824  1.2553
19132TIP3    H278888   3.642   2.712   5.021  0.1414 -0.3741 -2.5729
19133TIP3   OH278889   5.680   1.692  15.745  0.1350 -0.1228 -0.0201
19133TIP3    H178890   5.729   1.612  15.765 -0.0425  0.3312  2.4204
19133TIP3    H278891   5.728   1.761  15.790 -2.3289  0.4101  1.9037
19134TIP3   OH278892   3.882   3.692   2.453 -0.0119  0.2657 -0.5463
19134TIP3    H178893   3.874   3.762   2.518  0.8762 -0.9102  0.8654
19134TIP3    H278894   3.902   3.738   2.371  0.7989  1.6476  0.4029
19135TIP3   OH278895   3.782   1.627   0.913 -0.5367  0.1640  0.6216
19135TIP3    H178896   3.826   1.686   0.973 -2.1919  3.1382 -0.9470
19135TIP3    H278897   3.807   1.539   0.941  0.7598  1.5611  3.9858
19136TIP3   OH278898   5.743   6.688   2.182 -0.1161 -0.3874 -0.0390
19136TIP3    H178899   5.792   6.769   2.196 -2.0568  0.7917  0.1583
19136TIP3    H278900   5.656   6.717   2.155 -2.2057 -2.2468  4.2348
19137TIP3   OH278901   0.761   4.675  13.774  0.2607 -0.1161 -0.4661
19137TIP3    H178902   0.825   4.617  13.732  1.7341  0.8360  0.4374
19137TIP3    H278903   0.766   4.654  13.867  1.6392  2.2197  0.0237
19138TIP3   OH278904   6.175   5.623   3.558 -0.2020  0.1756  0.2487
19138TIP3    H178905   6.171   5.662   3.470  1.1503  2.1091  1.0038
19138TIP3    H278906   6.252   5.566   3.555 -0.0502  0.3789  0.2185
19139TIP3   OH278907   1.755   4.956  11.650 -0.3067  0.1464  0.2886
19139TIP3    H178908   1.810   4.943  11.573  0.4081  1.4660  0.5577
19139TIP3    H278909   1.771   5.047  11.676 -1.1092 -0.0580  1.5499
19140TIP3   OH278910   6.329   4.491  16.662 -0.1016  0.3143 -0.3412
19140TIP3    H178911   6.358   4.516  16.749 -0.7533 -1.0235  0.2804
19140TIP3    H278912   6.243   4.531  16.653 -0.2273  0.0787 -0.1911
19141TIP3   OH278913   6.109   2.146  12.458  0.1737  0.2838  0.2613
19141TIP3    H178914   6.170   2.219  12.468 -0.4161  0.7848  0.2336
19141TIP3    H278915   6.165   2.069  12.446  0.7947  0.9441 -1.2243
19142TIP3   OH278916   4.808   1.518   4.678 -0.7480 -0.0689 -0.4094
19142TIP3    H178917   4.769   1.599   4.645  0.3512  0.1210 -1.2574
19142TIP3    H278918   4.835   1.539   4.767 -2.8838 -0.3079  0.3293
19143TIP3   OH278919   2.132   0.561   5.130  0.7640  0.3228 -0.0595
19143TIP3    H178920   2.123   0.600   5.217  1.3995  0.1327  0.0947
19143TIP3    H278921   2.122   0.467   5.144  3.2336  0.0548  0.1847
19144TIP3   OH278922   0.134   3.524  17.024  0.5191  0.3255  0.7681
19144TIP3    H178923   0.203   3.463  17.000  0.6010  0.5813  0.3468
19144TIP3    H278924   0.163   3.561  17.108  1.0890  0.7236  0.3997
19145TIP3   OH278925   4.357   4.165   4.479  0.3137  0.0868  0.0787
19145TIP3    H178926   4.401   4.129   4.402 -1.1126  0.2568 -0.8257
19145TIP3    H278927   4.419   4.229   4.515  1.5125 -0.9229 -0.1711
19146TIP3   OH278928   5.630   5.366  14.878  0.4633  0.1291  0.5636
19146TIP3    H178929   5.541   5.368  14.842  0.0567  1.0014  1.5843
19146TIP3    H278930   5.682   5.416  14.815 -0.1667  1.3122  0.9633
19147TIP3   OH278931   2.385   0.824   3.771 -0.4987  0.1829  0.3329
19147TIP3    H178932   2.435   0.857   3.845 -0.7931  1.6777 -0.1223
19147TIP3    H278933   2.362   0.734   3.796  2.0015 -0.3998  0.7406
19148TIP3   OH278934   6.336   1.216   5.639  0.1075 -0.0824 -0.1243
19148TIP3    H178935   6.244   1.238   5.653 -0.1310 -0.4951 -1.0169
19148TIP3    H278936   6.342   1.124   5.663  0.9689  0.7249  2.9815
19149TIP3   OH278937   4.477   3.638  16.372 -0.4253  0.0652 -0.0157
19149TIP3    H178938   4.541   3.708  16.388  0.2461 -0.5909  0.2300
19149TIP3    H278939   4.395   3.671  16.410 -0.2005  0.8600 -0.2145
19150TIP3   OH278940   3.889   0.479   3.674 -0.5986  0.0766  0.3263
19150TIP3    H178941   3.887   0.559   3.621  2.0998 -0.4135 -0.5988
19150TIP3    H278942   3.965   0.491   3.732 -0.2849 -1.7271  0.3154
19151TIP3   OH278943   2.547   4.051   4.213 -0.5397  0.8205 -0.5840
19151TIP3    H178944   2.460   4.057   4.174  0.1726  1.4451 -2.1453
19151TIP3    H278945   2.591   3.980   4.165 -0.1482  0.5609  0.1340
19152TIP3   OH278946   0.069   2.809  14.340 -0.5562 -0.2956  0.1979
19152TIP3    H178947   0.141   2.866  14.367 -0.3134 -0.5030  0.0017
19152TIP3    H278948   0.091   2.724  14.380 -1.1384 -0.1405  0.8486
19153TIP3   OH278949   5.225   1.671  12.898  0.6484  0.2500 -1.1093
19153TIP3    H178950   5.142   1.709  12.868  0.4224  0.4447 -0.2679
19153TIP3    H278951   5.292   1.726  12.858  0.3272  1.2704 -0.2820
19154TIP3   OH278952   1.875   4.324   2.812  0.1177 -0.4016 -0.7700
19154TIP3    H178953   1.797   4.379   2.816  0.1049 -0.3786 -1.2675
19154TIP3    H278954   1.847   4.246   2.764  0.4626 -0.2812 -1.1738
19155TIP3   OH278955   5.423   3.054  13.572  0.1157  0.0652 -0.2820
19155TIP3    H178956   5.513   3.080  13.589  0.2067 -0.8758  0.7258
19155TIP3    H278957   5.398   3.104  13.494  1.4722  0.3940 -0.5198
19156TIP3   OH278958   0.698   2.337   2.398  0.0921 -0.0659  0.0764
19156TIP3    H178959   0.671   2.393   2.326 -0.2264 -0.8109 -0.3954
19156TIP3    H278960   0.783   2.371   2.425 -0.0345  0.5486 -0.3010
19157TIP3   OH278961   1.469   1.880   5.132  0.4317  0.0407 -0.3425
19157TIP3    H178962   1.420   1.912   5.208 -1.1507 -1.3427 -0.7432
19157TIP3    H278963   1.516   1.957   5.100 -2.1552  1.6524 -0.4250
19158TIP3   OH278964   1.971   5.326   5.734  0.0854  0.0237 -0.3784
19158TIP3    H178965   1.898   5.289   5.784  0.6963 -1.3061 -0.4390
19158TIP3    H278966   1.992   5.259   5.669  0.5249  0.9387 -1.1893
19159TIP3   OH278967   0.574   6.186  16.710  0.2270  0.6290 -0.1321
19159TIP3    H178968   0.576   6.197  16.805 -1.6178 -0.4301  0.0432
19159TIP3    H278969   0.666   6.175  16.685  0.7076  0.7522  1.5379
19160TIP3   OH278970   2.368   0.366   6.179 -0.3166 -0.0374 -0.4577
19160TIP3    H178971   2.446   0.419   6.162 -0.8878  1.4411  1.3054
19160TIP3    H278972   2.360   0.365   6.274 -2.4352 -0.1886 -0.6062
19161TIP3   OH278973   0.847   1.902  16.722  0.1886 -0.2096 -0.5018
19161TIP3    H178974   0.858   1.892  16.817 -1.1173  1.9947 -0.0901
19161TIP3    H278975   0.936   1.920  16.689  0.1792  2.4513  0.7841
19162TIP3   OH278976   3.016   1.598  16.581 -0.5017 -0.0343 -0.1808
19162TIP3    H178977   3.045   1.673  16.529  0.8692 -0.0801  0.5026
19162TIP3    H278978   2.941   1.630  16.631  2.3977  2.0787  3.0534
19163TIP3   OH278979   4.359   0.380   0.678 -0.1528 -0.2508 -0.1287
19163TIP3    H178980   4.419   0.333   0.621 -0.7952 -0.8010 -0.3533
19163TIP3    H278981   4.383   0.472   0.667  0.9465 -0.5043  0.1368
19164TIP3   OH278982   5.536   3.749   2.142 -1.0619 -0.4627 -0.7833
19164TIP3    H178983   5.521   3.842   2.159  0.0737 -0.3728 -0.2045
19164TIP3    H278984   5.455   3.719   2.103 -0.4733  1.4067 -3.6193
19165TIP3   OH278985   0.097   1.252   4.264  0.2236 -0.5533  0.5170
19165TIP3    H178986   0.162   1.321   4.252 -0.6515  0.1644 -0.2100
19165TIP3    H278987   0.087   1.245   4.359 -1.6123  2.2079  0.5915
19166TIP3   OH278988   5.754   2.408  11.824 -0.6808  0.1819 -0.8361
19166TIP3    H178989   5.698   2.448  11.757  0.0768  0.3988 -1.3466
19166TIP3    H278990   5.834   2.461  11.824 -0.9300  0.5641  0.6935
19167TIP3   OH278991   5.588   5.315   2.448 -0.2029 -0.0622 -0.1458
19167TIP3    H178992   5.501   5.332   2.412 -0.3504 -0.7955 -0.1406
19167TIP3    H278993   5.611   5.396   2.494 -0.2799  0.6624 -1.3477
19168TIP3   OH278994   5.944   6.812  15.578 -0.1276  0.2379 -0.0751
19168TIP3    H178995   5.894   6.730  15.583 -2.0801  1.3060 -1.3908
19168TIP3    H278996   5.993   6.814  15.660 -0.7083 -1.8288  0.3775
19169TIP3   OH278997   2.290   4.149   5.064 -0.1305  0.4905  0.4076
19169TIP3    H178998   2.317   4.057   5.068 -1.2096  0.0289 -2.2231
19169TIP3    H278999   2.208   4.152   5.113 -1.4026 -0.4836 -1.6083
19170TIP3   OH279000   3.215   4.948   2.494  0.3778 -0.6937  0.0886
19170TIP3    H179001   3.301   4.943   2.452  0.3890 -0.9918  0.1420
19170TIP3    H279002   3.167   4.873   2.458 -0.8282  1.0581 -2.1057
19171TIP3   OH279003   2.720   2.129  15.132  0.2855 -0.1266 -0.0646
19171TIP3    H179004   2.656   2.083  15.078 -1.5092  0.0738  1.8633
19171TIP3    H279005   2.783   2.061  15.156 -1.7260 -1.4012  1.7991
19172TIP3   OH279006   3.942   0.289   1.749  0.6670  0.2510 -0.1199
19172TIP3    H179007   4.037   0.285   1.756  0.6887 -1.3590 -0.9640
19172TIP3    H279008   3.910   0.233   1.820  0.2482  2.6839  1.6882
19173TIP3   OH279009   4.777   5.077   3.425  0.1957  0.0055 -0.1720
19173TIP3    H179010   4.804   5.062   3.335 -0.1350 -0.8424 -0.1295
19173TIP3    H279011   4.833   5.149   3.455  1.7843 -1.1124 -0.3736
19174TIP3   OH279012   0.010   4.413  14.726  0.1637  0.2526  0.2602
19174TIP3    H179013   0.059   4.356  14.668  1.9976  4.2200 -2.2981
19174TIP3    H279014   0.077   4.462  14.774 -1.3271  1.8302  0.7919
19175TIP3   OH279015   1.417   1.266  11.791  0.1300 -0.4737 -0.3663
19175TIP3    H179016   1.417   1.237  11.882  0.6641  1.4638  0.2807
19175TIP3    H279017   1.491   1.326  11.785 -0.5640  0.2653 -1.7788
19176TIP3   OH279018   0.616   0.271   4.200  0.4588 -0.6942 -0.1180
19176TIP3    H179019   0.637   0.265   4.106  2.2353 -1.6612  0.3282
19176TIP3    H279020   0.696   0.244   4.244 -0.0735  0.6785  1.7118
19177TIP3   OH279021   1.725   1.650   6.442 -0.6829  0.2084 -0.2874
19177TIP3    H179022   1.780   1.647   6.364  0.0943 -0.6843  0.2822
19177TIP3    H279023   1.786   1.641   6.515 -1.4646  0.4025  0.4012
19178TIP3   OH279024   0.579   4.545  11.485 -0.0315 -0.0986  0.2387
19178TIP3    H179025   0.607   4.512  11.570  0.4799 -1.9219 -0.6219
19178TIP3    H279026   0.551   4.635  11.502 -0.7735 -0.7380  2.4953
19179TIP3   OH279027   5.365   2.642   3.613 -0.6715  0.0344  0.1027
19179TIP3    H179028   5.287   2.665   3.562 -0.1394 -2.2414 -1.8447
19179TIP3    H279029   5.330   2.599   3.691 -1.4282  1.4224  0.5526
19180TIP3   OH279030   5.054   5.014   2.020 -0.1104  0.2521 -0.1932
19180TIP3    H179031   4.996   4.939   2.033 -0.9903  0.8595 -0.5625
19180TIP3    H279032   5.063   5.052   2.107 -0.1823  0.0982 -0.1176
19181TIP3   OH279033   4.357   3.447   3.779 -0.2558  0.4127  0.2204
19181TIP3    H179034   4.422   3.377   3.769  0.2337  1.0265 -0.9942
19181TIP3    H279035   4.278   3.402   3.810  0.4759 -0.4648  0.8404
19182TIP3   OH279036   1.258   3.994   2.094  0.1080 -0.3525  0.2181
19182TIP3    H179037   1.274   4.065   2.031 -0.8345  1.2145  1.7172
19182TIP3    H279038   1.319   4.011   2.166 -1.4156  0.0290  1.4452
19183TIP3   OH279039   3.283   5.991   1.267  0.0091 -0.1184  0.0258
19183TIP3    H179040   3.224   5.951   1.330 -1.0887  1.6712  0.1864
19183TIP3    H279041   3.288   5.928   1.195  0.0999 -1.5084  1.2473
19184TIP3   OH279042   0.444   1.981  15.518  0.1286 -0.1930 -0.2080
19184TIP3    H179043   0.367   2.022  15.558 -0.1064 -1.7208  0.9443
19184TIP3    H279044   0.495   1.947  15.592  0.7298 -1.2459 -1.0804
19185TIP3   OH279045   5.677   1.451  11.087  0.4088 -0.9003  0.0745
19185TIP3    H179046   5.634   1.464  11.002  2.8498 -1.1854 -1.2594
19185TIP3    H279047   5.646   1.523  11.141 -1.4955 -0.9409 -0.9214
19186TIP3   OH279048   4.434   2.011  12.659  1.1249  0.1261  0.0052
19186TIP3    H179049   4.401   1.930  12.698  0.8046 -0.1287 -0.7906
19186TIP3    H279050   4.500   2.042  12.721 -0.2851  0.4032  1.3978
19187TIP3   OH279051   1.958   6.205   3.793  0.4135  0.1354  0.2309
19187TIP3    H179052   1.897   6.180   3.861 -0.4982  0.7289 -0.3569
19187TIP3    H279053   1.904   6.243   3.724  1.3949  0.2771 -0.4847
19188TIP3   OH279054   3.491   5.262   4.387  0.0306 -0.1088  0.1693
19188TIP3    H179055   3.403   5.270   4.422  0.2009  2.2567  0.1658
19188TIP3    H279056   3.545   5.237   4.462 -0.4829 -0.5464  0.3888
19189TIP3   OH279057   5.260   2.073   5.546  0.4906 -0.4740  0.1147
19189TIP3    H179058   5.325   2.143   5.542  0.0548  0.1767  2.8673
19189TIP3    H279059   5.299   2.008   5.604  0.3346 -1.9334 -1.3866
19190TIP3   OH279060   2.637   5.713   2.496 -0.3491 -0.2405 -0.6898
19190TIP3    H179061   2.625   5.678   2.584 -1.9280 -0.2144 -0.8899
19190TIP3    H279062   2.674   5.801   2.510  2.0103 -1.2794 -0.1552
19191TIP3   OH279063   6.606   5.911   4.257 -0.0663  0.1733 -0.5585
19191TIP3    H179064   6.638   5.824   4.282 -0.8262  0.5944  2.0852
19191TIP3    H279065   6.511   5.904   4.264 -0.1605  1.0360 -0.9621
19192TIP3   OH279066   3.632   2.989  14.575 -0.8120 -0.3021  0.2627
19192TIP3    H179067   3.679   2.949  14.648  0.2624  0.6281  0.1007
19192TIP3    H279068   3.556   2.932  14.561  0.6751 -2.2772  0.0149
19193TIP3   OH279069   1.749   5.231   1.235 -0.4165 -0.2430  0.3060
19193TIP3    H179070   1.687   5.230   1.161  0.0377 -1.9130 -0.0616
19193TIP3    H279071   1.698   5.199   1.309  0.2166 -2.4358 -0.1829
19194TIP3   OH279072   0.725   0.709  13.829 -0.1852  0.1951 -0.1293
19194TIP3    H179073   0.803   0.721  13.775  1.5769 -0.5263  2.1258
19194TIP3    H279074   0.681   0.633  13.792  0.4689  0.2920 -1.1110
19195TIP3   OH279075   6.791   2.305   1.170 -0.2183  0.1404  0.4314
19195TIP3    H179076   6.707   2.258   1.165  0.8306 -1.9541  1.6304
19195TIP3    H279077   6.854   2.237   1.195  1.7102  1.8348  0.2349
19196TIP3   OH279078   6.474   0.399   2.422 -0.1752  0.7276  0.0324
19196TIP3    H179079   6.559   0.430   2.392  1.2759 -2.4349  0.6628
19196TIP3    H279080   6.459   0.446   2.504  2.3024 -0.6911  1.3605
19197TIP3   OH279081   6.417   5.485  12.797 -0.0768 -0.0151 -0.3626
19197TIP3    H179082   6.492   5.510  12.851 -0.6942 -0.7817  0.8730
19197TIP3    H279083   6.368   5.422  12.851 -1.6271  0.5037 -1.1283
19198TIP3   OH279084   1.861   4.064   4.851 -0.0239  0.1796 -0.1153
19198TIP3    H179085   1.945   4.075   4.895 -0.6429  1.5314  0.7620
19198TIP3    H279086   1.826   3.983   4.886  0.5371  0.0487  0.1531
19199TIP3   OH279087   3.779   1.397   2.296  0.3472 -0.2144 -0.1145
19199TIP3    H179088   3.726   1.477   2.285 -0.4575 -0.6167  0.7028
19199TIP3    H279089   3.840   1.419   2.366 -1.5171 -1.0996  1.8568
19200TIP3   OH279090   3.609   0.911  11.861 -0.1243 -0.1249  0.5828
19200TIP3    H179091   3.608   0.954  11.775  1.4429  0.2471  0.7280
19200TIP3    H279092   3.667   0.836  11.849 -0.5137 -0.5133  1.1178
19201TIP3   OH279093   1.134   1.353  12.829  0.2964  0.0561 -0.0032
19201TIP3    H179094   1.188   1.308  12.765 -2.5650 -2.4987 -0.7467
19201TIP3    H279095   1.114   1.438  12.789  0.5362 -0.5499 -1.4358
19202TIP3   OH279096   0.973   2.737   1.328 -0.5776 -0.0769  0.7449
19202TIP3    H179097   0.893   2.787   1.340 -1.0257 -0.3885 -0.8801
19202TIP3    H279098   0.965   2.697   1.242  1.0517 -0.6203  0.8127
19203TIP3   OH279099   0.721   6.748  13.946  0.4652  0.8313 -0.3531
19203TIP3    H179100   0.637   6.704  13.935  0.8542  0.3574 -1.5054
19203TIP3    H279101   0.713   6.795  14.029 -1.4269  1.9053 -1.1075
19204TIP3   OH279102   2.862   5.450   6.555  0.2609  0.2732 -0.2016
19204TIP3    H179103   2.949   5.412   6.545 -0.8736 -2.5766  0.2687
19204TIP3    H279104   2.868   5.503   6.635  1.0403 -1.5798  1.0055
19205TIP3   OH279105   2.393   4.278  15.862  0.7905  0.7295 -0.3771
19205TIP3    H179106   2.302   4.307  15.850 -0.2929 -1.5291  1.8479
19205TIP3    H279107   2.398   4.195  15.816  1.4737  0.4232  0.2437
19206TIP3   OH279108   1.224   3.537  15.421 -0.4593 -0.2820 -0.5897
19206TIP3    H179109   1.265   3.606  15.474 -1.4494  0.2240 -0.4654
19206TIP3    H279110   1.297   3.494  15.378  0.1763  0.9146 -0.7488
19207TIP3   OH279111   1.428   4.380   2.880  0.4954 -0.0769  0.3813
19207TIP3    H179112   1.389   4.456   2.924 -1.9113 -1.1050  0.1247
19207TIP3    H279113   1.369   4.362   2.807  1.7270 -1.4337 -0.2974
19208TIP3   OH279114   0.187   1.416   5.345 -0.4485  0.6281 -0.3172
19208TIP3    H179115   0.250   1.371   5.400 -1.0673  0.1401 -0.0012
19208TIP3    H279116   0.230   1.424   5.260 -0.0862  0.0168 -0.1941
19209TIP3   OH279117   3.517   0.548  13.683  0.2774 -0.2068  0.0789
19209TIP3    H179118   3.589   0.512  13.734 -0.0305  2.0430  2.1955
19209TIP3    H279119   3.440   0.536  13.738 -0.6851 -1.0645 -1.4444
19210TIP3   OH279120   2.520   1.805   1.323  0.2436  0.1538 -0.2177
19210TIP3    H179121   2.602   1.776   1.285 -1.0596 -1.2410 -2.0527
19210TIP3    H279122   2.503   1.743   1.394  0.0162 -0.4882 -0.8297
19211TIP3   OH279123   3.199   2.661  14.386  0.4425  0.0597 -0.4579
19211TIP3    H179124   3.151   2.677  14.306 -0.4003  1.8281  0.3663
19211TIP3    H279125   3.266   2.729  14.388  1.3783 -0.8427 -0.3482
19212TIP3   OH279126   4.926   0.259   5.498  0.2046  0.1197  0.3665
19212TIP3    H179127   4.840   0.286   5.531 -0.3881 -1.3626  0.0297
19212TIP3    H279128   4.967   0.341   5.471 -2.0327  0.6060 -1.7323
19213TIP3   OH279129   4.562   5.189  11.472  0.1106 -0.0050  0.2248
19213TIP3    H179130   4.592   5.113  11.421  0.8776 -0.1221  0.8466
19213TIP3    H279131   4.579   5.264  11.415 -0.2998 -0.2665 -0.2404
19214TIP3   OH279132   1.419   4.221  15.438 -0.1495 -0.0002  0.1620
19214TIP3    H179133   1.331   4.183  15.446 -0.2540  0.5401  1.6422
19214TIP3    H279134   1.462   4.201  15.521  1.2550 -0.5480 -0.6725
19215TIP3   OH279135   4.624   1.477   3.938  0.4548  0.3070  0.6969
19215TIP3    H179136   4.712   1.513   3.944  0.7550 -0.0109 -1.4633
19215TIP3    H279137   4.567   1.553   3.926  0.7814  0.3030 -0.9914
19216TIP3   OH279138   1.178   6.705  16.813  0.4721  0.1994  0.2276
19216TIP3    H179139   1.214   6.794  16.819 -1.9377  1.3817 -1.6164
19216TIP3    H279140   1.126   6.695  16.893 -2.0117  1.8507 -1.0791
19217TIP3   OH279141   0.352   1.977  12.502  0.0060 -0.2034 -0.5128
19217TIP3    H179142   0.399   2.027  12.569 -0.0902  1.3126 -1.5615
19217TIP3    H279143   0.421   1.936  12.450  0.0903 -0.9370  0.1727
19218TIP3   OH279144   6.208   2.987   2.682  0.1680  0.1163  0.1593
19218TIP3    H179145   6.298   2.964   2.706 -0.5721 -1.6333  1.3725
19218TIP3    H279146   6.216   3.072   2.639  2.5784 -0.7690 -1.2266
19219TIP3   OH279147   3.350   4.807   3.914 -0.0085 -0.1654 -0.0588
19219TIP3    H179148   3.413   4.878   3.909 -1.8732  1.4232 -1.7969
19219TIP3    H279149   3.401   4.732   3.944  2.2963  1.5252  0.3758
19220TIP3   OH279150   1.961   0.718   1.450 -0.0105  0.7490  0.3463
19220TIP3    H179151   1.954   0.775   1.527 -1.8459 -0.0504  0.7951
19220TIP3    H279152   2.050   0.682   1.455  0.5969  2.2610  0.9689
19221TIP3   OH279153   0.263   5.986   4.695 -0.1650 -0.2703  0.2190
19221TIP3    H179154   0.247   5.975   4.788 -1.3394  0.6549  0.1394
19221TIP3    H279155   0.267   5.897   4.660 -1.2488 -0.5866  0.8994
19222TIP3   OH279156   4.207   3.505   0.728  0.4909 -0.2413 -0.1090
19222TIP3    H179157   4.292   3.489   0.688  0.6495  4.0066 -1.7680
19222TIP3    H279158   4.227   3.536   0.816  0.5683 -0.5328 -0.0223
19223TIP3   OH279159   6.390   3.321  17.149 -0.6678 -0.1150  0.1367
19223TIP3    H179160   6.460   3.276  17.102 -0.2886  0.8981 -0.2712
19223TIP3    H279161   6.316   3.320  17.089 -0.9540 -1.0260  0.4973
19224TIP3   OH279162   2.141   5.288   4.334  0.2502  0.2956 -0.0890
19224TIP3    H179163   2.118   5.378   4.313 -1.8673 -0.0872  0.4973
19224TIP3    H279164   2.077   5.261   4.400  0.7887 -1.6666 -0.3181
19225TIP3   OH279165   5.850   5.142   4.428 -0.1376  0.1487  0.1795
19225TIP3    H179166   5.792   5.174   4.359 -1.2833  0.4115  1.2481
19225TIP3    H279167   5.844   5.047   4.422  0.7800  0.1571 -0.9236
19226TIP3   OH279168   0.438   1.259   4.494 -0.0757  0.3139  0.0395
19226TIP3    H179169   0.423   1.353   4.506 -4.5481 -0.3103 -0.1759
19226TIP3    H279170   0.492   1.235   4.570  1.8629  3.1299 -0.3302
19227TIP3   OH279171   4.911   6.662   5.317  0.0166 -0.2470 -0.5699
19227TIP3    H179172   4.976   6.694   5.379  0.0081 -1.0853 -0.1378
19227TIP3    H279173   4.956   6.664   5.232 -0.1068  1.2970 -0.6224
19228TIP3   OH279174   5.771   1.424   3.800  0.0025  0.0132  0.4436
19228TIP3    H179175   5.682   1.393   3.786  0.2248 -0.5658  0.3179
19228TIP3    H279176   5.773   1.455   3.890 -0.2609 -0.1799  0.5124
19229TIP3   OH279177   3.317   1.299   0.501 -0.0823 -0.5219 -0.2785
19229TIP3    H179178   3.323   1.312   0.406  0.9433  1.0326 -0.0308
19229TIP3    H279179   3.251   1.362   0.530  0.1668 -0.4372  0.1176
19230TIP3   OH279180   5.689   0.023  17.265 -0.3015 -0.4237 -0.1827
19230TIP3    H179181   5.671  -0.070  17.253 -0.7412 -0.1300 -1.8570
19230TIP3    H279182   5.626   0.067  17.209  1.5096  0.8290 -1.2800
19231TIP3   OH279183   6.587   4.716   1.176  0.0070 -0.2506 -0.0310
19231TIP3    H179184   6.663   4.731   1.119  0.0243  0.9463  0.2969
19231TIP3    H279185   6.517   4.690   1.116 -0.3148  2.2064 -0.7763
19232TIP3   OH279186   3.071   4.390  14.966 -0.0229 -0.5132  0.0731
19232TIP3    H179187   3.089   4.478  14.934 -1.5735 -0.1413  0.1997
19232TIP3    H279188   2.984   4.369  14.932 -0.5791 -1.1551  1.8294
19233TIP3   OH279189   5.213   5.401  16.237  0.3556 -0.2696  0.1256
19233TIP3    H179190   5.208   5.459  16.313 -0.6952 -1.1981  0.7757
19233TIP3    H279191   5.267   5.449  16.174  0.1440  1.0812  0.9507
19234TIP3   OH279192   0.959   0.421   6.015 -0.5040  0.2233  0.4903
19234TIP3    H179193   1.005   0.498   6.047 -0.3492  0.1473  0.4498
19234TIP3    H279194   0.948   0.366   6.093 -0.6728  0.3170  0.5321
19235TIP3   OH279195   1.752   3.527  14.154  0.1862 -0.5021  0.3574
19235TIP3    H179196   1.837   3.516  14.196 -0.3483 -3.1254  0.8472
19235TIP3    H279197   1.700   3.453  14.186 -1.8695  0.3545 -0.9179
19236TIP3   OH279198   1.572   2.354  13.009  0.1101 -0.0167  0.0294
19236TIP3    H179199   1.562   2.426  12.947 -0.3652 -0.2195 -0.1388
19236TIP3    H279200   1.658   2.317  12.990  0.5078  0.7432  0.3709
19237TIP3   OH279201   4.497   5.589   0.689  0.1531  0.5522 -0.7055
19237TIP3    H179202   4.568   5.614   0.749  1.0035 -1.3967 -0.8915
19237TIP3    H279203   4.419   5.589   0.744  0.5851  0.8861 -0.0828
19238TIP3   OH279204   4.459   5.541  12.668  0.5221 -0.0557  0.5895
19238TIP3    H179205   4.515   5.476  12.709  0.7761 -1.7237 -2.2632
19238TIP3    H279206   4.519   5.607  12.633  0.5736 -0.5099 -0.2041
19239TIP3   OH279207   0.041   5.868   0.939 -0.1430  0.4360  0.1853
19239TIP3    H179208   0.052   5.852   0.845 -0.8834 -0.2086  0.2007
19239TIP3    H279209  -0.027   5.806   0.966  0.8605 -0.1686  1.3811
19240TIP3   OH279210   5.682   6.133  16.826  0.7878  0.0054  0.3324
19240TIP3    H179211   5.720   6.221  16.829 -1.3299  1.0380 -1.6498
19240TIP3    H279212   5.607   6.137  16.885  0.0238 -0.1210 -0.6203
19241TIP3   OH279213   0.524   1.821  11.644  0.3726 -0.0946 -0.5110
19241TIP3    H179214   0.429   1.820  11.629 -0.2441 -1.0762  2.9616
19241TIP3    H279215   0.549   1.912  11.631 -1.5237  0.6748  0.8962
19242TIP3   OH279216   1.460   2.005  13.794  0.5472 -0.2863  0.2133
19242TIP3    H179217   1.457   2.089  13.840 -2.1868 -0.3087  0.1621
19242TIP3    H279218   1.422   2.024  13.708 -0.2857 -1.6130  0.2855
19243TIP3   OH279219   1.208   0.327   1.365  0.1809 -0.3640 -0.3722
19243TIP3    H179220   1.140   0.260   1.361  1.5284 -1.9611  1.9701
19243TIP3    H279221   1.288   0.282   1.338  0.5884  1.1137 -1.7094
19244TIP3   OH279222   5.066   3.207   0.368 -0.2995 -0.1328  0.3619
19244TIP3    H179223   5.137   3.144   0.371 -0.5487 -0.4049  0.5878
19244TIP3    H279224   5.088   3.272   0.436 -0.3087 -0.2629  0.4897
19245TIP3   OH279225   1.235   1.501   5.894 -0.0295 -0.4463  0.1641
19245TIP3    H179226   1.281   1.582   5.870 -2.7113  0.8435 -0.8323
19245TIP3    H279227   1.247   1.443   5.819  0.1788 -0.2131  0.0180
19246TIP3   OH279228   5.516   4.118  11.455 -0.9956 -0.6906  0.2239
19246TIP3    H179229   5.601   4.094  11.491 -0.6861  0.4174  0.2698
19246TIP3    H279230   5.537   4.177  11.382 -1.7965  2.0356  2.1258
19247TIP3   OH279231   4.765   4.871  11.614  0.3087 -0.0167  0.1177
19247TIP3    H179232   4.734   4.960  11.631 -1.6657 -0.5258 -0.6821
19247TIP3    H279233   4.729   4.819  11.687  0.3942 -0.3823 -0.0979
19248TIP3   OH279234   0.235   3.675  16.827  0.2830  0.5353 -0.2942
19248TIP3    H179235   0.200   3.657  16.914  0.8266 -0.9548 -0.3723
19248TIP3    H279236   0.322   3.713  16.844  0.8362 -0.7673 -0.2067
19249TIP3   OH279237   6.674   5.927   0.139  0.1402 -0.5785  0.3106
19249TIP3    H179238   6.636   5.924   0.226  1.2403 -1.5112  0.7776
19249TIP3    H279239   6.766   5.901   0.152  1.1483  2.2378 -0.6662
19250TIP3   OH279240   2.070   4.493   5.042 -0.4421  0.2268  0.0567
19250TIP3    H179241   1.986   4.453   5.065 -0.3250  0.9493  1.7831
19250TIP3    H279242   2.046   4.570   4.990 -0.8149 -0.0427 -0.1738
19251TIP3   OH279243   6.694   5.084  13.841  0.8648 -0.4827  0.1664
19251TIP3    H179244   6.725   5.153  13.782  0.7123 -1.1664 -0.7349
19251TIP3    H279245   6.625   5.039  13.791  1.0778 -1.3893  0.6742
19252TIP3   OH279246   4.873   4.293  14.566 -0.5967  0.0713  1.1173
19252TIP3    H179247   4.926   4.293  14.645 -0.0756 -1.6322  0.7842
19252TIP3    H279248   4.893   4.377  14.524 -0.4315  0.7257  2.4763
19253TIP3   OH279249   4.468   6.014   1.256 -0.3311 -0.6059 -0.5242
19253TIP3    H179250   4.410   5.940   1.273 -1.5688 -0.0705 -2.2607
19253TIP3    H279251   4.488   6.050   1.342 -0.8863 -2.0647  0.2363
19254TIP3   OH279252   4.042   2.814  11.008 -0.2779 -0.0364 -0.2347
19254TIP3    H179253   3.973   2.768  11.055 -0.4873  0.2788 -0.2328
19254TIP3    H279254   4.046   2.771  10.923 -0.5831  0.0438 -0.2916
19255TIP3   OH279255   4.011   1.028  12.716  0.5497  0.2425 -0.4891
19255TIP3    H179256   4.068   1.035  12.640 -0.2779  0.0732 -1.1347
19255TIP3    H279257   3.992   0.935  12.723  1.3583  0.1443  0.4799
19256TIP3   OH279258   6.217   0.829   2.159  0.6282  0.0918  0.0460
19256TIP3    H179259   6.293   0.862   2.111  0.2833  0.1232 -0.4765
19256TIP3    H279260   6.168   0.908   2.182  0.6041  0.0486  0.1462
19257TIP3   OH279261   4.543   5.247  17.098 -0.7339 -0.2836  0.1684
19257TIP3    H179262   4.507   5.224  17.184  0.2174  0.1123  0.6801
19257TIP3    H279263   4.632   5.212  17.098 -0.7897 -0.4454 -0.7299
19258TIP3   OH279264   2.133   3.796   1.647 -0.2796 -0.0177  0.4120
19258TIP3    H179265   2.133   3.854   1.570 -1.9985  1.2606  1.3282
19258TIP3    H279266   2.040   3.775   1.661  0.1773 -1.6668  1.1038
19259TIP3   OH279267   6.193   5.257  14.341  0.4923 -0.0716  0.1545
19259TIP3    H179268   6.167   5.256  14.433 -1.3352 -1.9656 -0.3606
19259TIP3    H279269   6.245   5.337  14.332  1.1074 -0.1084  2.9266
19260TIP3   OH279270   0.753   2.864   1.401  0.0627 -0.3586  0.4008
19260TIP3    H179271   0.784   2.870   1.491  0.3170 -0.2068  0.3056
19260TIP3    H279272   0.707   2.947   1.386 -0.9092 -0.8322  0.7308
19261TIP3   OH279273   5.853   6.159  16.569  1.0946  0.2945 -0.6058
19261TIP3    H179274   5.820   6.249  16.570  2.5621  0.8423  0.8861
19261TIP3    H279275   5.784   6.109  16.527 -0.5942  1.7992  0.3084
19262TIP3   OH279276   3.802   2.488  16.488 -0.0450  0.3192  0.4684
19262TIP3    H179277   3.892   2.482  16.519 -0.1434 -0.7872  0.5801
19262TIP3    H279278   3.800   2.430  16.411 -1.4704 -2.3141  2.4201
19263TIP3   OH279279   1.707   0.959   4.563  0.0507 -0.3843  0.3186
19263TIP3    H179280   1.799   0.985   4.553  0.3719 -1.6066  0.1111
19263TIP3    H279281   1.667   1.034   4.607  1.1853  0.0894  0.5773
19264TIP3   OH279282   3.993   3.952  12.241  0.3218 -0.0702 -0.0261
19264TIP3    H179283   3.938   3.951  12.163 -0.3863  1.6324  0.4302
19264TIP3    H279284   4.006   3.859  12.263  1.8651 -0.6233 -3.0621
19265TIP3   OH279285   3.167   0.241  16.563 -0.3240 -0.1444 -0.3470
19265TIP3    H179286   3.138   0.159  16.604  0.0730 -0.0519  0.1160
19265TIP3    H279287   3.231   0.277  16.624 -1.4553  1.1701  0.0871
19266TIP3   OH279288   6.743   0.737  12.222 -0.4607  0.5630  0.2348
19266TIP3    H179289   6.756   0.649  12.185 -0.1394  0.4509  0.6070
19266TIP3    H279290   6.655   0.762  12.194 -1.1907 -0.5467  1.4775
19267TIP3   OH279291   2.832   2.856   4.905  0.0287 -0.8881  0.0459
19267TIP3    H179292   2.755   2.858   4.962  0.5436 -1.7172  0.7747
19267TIP3    H279293   2.813   2.920   4.837 -0.7819 -0.1854  0.9167
19268TIP3   OH279294   0.092   3.167  12.976 -0.1974  0.5085 -0.2093
19268TIP3    H179295   0.175   3.152  12.933  0.5147 -1.4266  1.7583
19268TIP3    H279296   0.115   3.215  13.056 -0.6111 -2.3596  1.6929
19269TIP3   OH279297   0.706   6.145  14.036  0.4616  0.0126  0.0019
19269TIP3    H179298   0.755   6.201  14.097 -0.1338 -0.8141  1.2760
19269TIP3    H279299   0.772   6.086  14.000  0.4424 -1.0769  1.6908
19270TIP3   OH279300   4.645   2.436   0.043  0.5367  0.3913 -0.1057
19270TIP3    H179301   4.728   2.409   0.003  0.5047  0.5653 -0.2928
19270TIP3    H279302   4.653   2.409   0.134  0.2485 -0.8002 -0.4259
19271TIP3   OH279303   6.664   2.580   1.126 -0.2314 -0.2714 -0.1843
19271TIP3    H179304   6.623   2.512   1.178 -2.9110  1.1350 -0.3783
19271TIP3    H279305   6.633   2.662   1.164  2.5321  0.8717 -0.2617
19272TIP3   OH279306   4.359   1.777  13.776  0.3998  0.8123 -0.0722
19272TIP3    H179307   4.360   1.743  13.686  1.0376 -0.3882  0.3819
19272TIP3    H279308   4.411   1.858  13.771 -0.7233  1.5022 -1.0552
19273TIP3   OH279309   0.862   0.821   3.722 -0.6797 -0.1574 -0.2803
19273TIP3    H179310   0.873   0.740   3.671  1.8533 -1.1581  1.7650
19273TIP3    H279311   0.859   0.792   3.813 -1.1141  1.9665  0.4101
19274TIP3   OH279312   0.701   6.120   1.130  0.4587 -0.4372 -0.7578
19274TIP3    H179313   0.700   6.122   1.034 -1.6019  1.3527 -0.7419
19274TIP3    H279314   0.714   6.211   1.156  4.2137 -1.3165  0.7240
19275TIP3   OH279315   5.110   1.410  11.462  0.6648 -0.1011  0.4251
19275TIP3    H179316   5.154   1.332  11.497  0.9342  1.0117  2.6898
19275TIP3    H279317   5.138   1.481  11.520  0.9103  1.8120 -1.9686
19276TIP3   OH279318   1.141   1.912  12.794 -0.1154 -0.0712 -0.1613
19276TIP3    H179319   1.137   1.950  12.706 -0.0217  0.9359  0.2533
19276TIP3    H279320   1.051   1.918  12.826 -0.6418 -2.6658 -1.0807
19277TIP3   OH279321   5.259   0.121   0.927 -0.1607 -0.6789  0.8123
19277TIP3    H179322   5.265   0.123   0.832  1.7948 -0.7732  0.9248
19277TIP3    H279323   5.310   0.196   0.956  0.7183 -1.6700  1.8527
19278TIP3   OH279324   4.057   4.344   1.781  0.5710  0.0404 -0.1497
19278TIP3    H179325   4.114   4.371   1.709 -1.5312  2.3267 -1.0377
19278TIP3    H279326   4.038   4.252   1.763  2.2572 -0.1613 -0.9951
19279TIP3   OH279327   4.802   4.722   1.438 -0.1099 -0.7198 -0.2081
19279TIP3    H179328   4.829   4.642   1.393 -0.4849 -1.1085  0.2518
19279TIP3    H279329   4.753   4.692   1.514  1.7086 -0.1005  1.2635
19280TIP3   OH279330   2.300   3.957  14.783  0.3784  0.9873 -0.0150
19280TIP3    H179331   2.334   4.022  14.844  1.0151  2.7500 -2.1854
19280TIP3    H279332   2.377   3.924  14.737  0.2298 -2.2664  1.8825
19281TIP3   OH279333   6.221   4.926  13.767 -0.1831  0.1545 -0.2157
19281TIP3    H179334   6.209   4.838  13.733  0.2775 -0.1959  0.5233
19281TIP3    H279335   6.133   4.965  13.765  0.0621  0.6328 -3.1067
19282TIP3   OH279336   6.250   3.265   5.439 -0.3785  0.0540  0.0309
19282TIP3    H179337   6.288   3.262   5.527  1.6179 -0.4048 -0.8316
19282TIP3    H279338   6.283   3.346   5.401 -0.0078 -0.4815 -0.8226
19283TIP3   OH279339   5.000   2.380   0.791 -0.3582 -0.3345  0.4783
19283TIP3    H179340   4.993   2.419   0.704  1.0730  0.2232  0.5964
19283TIP3    H279341   4.916   2.400   0.833 -0.5012  0.6532 -0.2581
19284TIP3   OH279342   0.935   4.637   3.966  0.7529  0.7401  1.3372
19284TIP3    H179343   1.021   4.599   3.947  0.3166  0.5254 -0.2158
19284TIP3    H279344   0.901   4.664   3.881 -0.4758  1.3672  2.0161
19285TIP3   OH279345   5.121   6.794   1.285 -0.1381  0.4733  0.2530
19285TIP3    H179346   5.099   6.868   1.229  2.3175  0.5728 -0.6216
19285TIP3    H279347   5.205   6.762   1.251 -0.8416 -2.3232  0.9918
19286TIP3   OH279348   6.543   4.982   2.325  0.5640 -0.6322 -0.3144
19286TIP3    H179349   6.597   4.986   2.246  1.2985 -2.4624  0.0563
19286TIP3    H279350   6.581   5.047   2.383  0.7926 -0.1367 -1.0096
19287TIP3   OH279351   5.002   6.725  12.473 -0.0621  0.0801  0.1253
19287TIP3    H179352   4.953   6.653  12.512 -1.1753  0.2932 -0.8393
19287TIP3    H279353   4.935   6.792  12.455  0.8010  0.9432  0.0782
19288TIP3   OH279354   3.114   1.147   4.783 -0.3169 -0.2970  0.0190
19288TIP3    H179355   3.185   1.127   4.844  0.7149  1.5829 -0.5267
19288TIP3    H279356   3.060   1.211   4.828  1.1616  2.0666 -1.4900
19289TIP3   OH279357   5.641   0.831  16.793 -0.3576 -0.1601 -0.0161
19289TIP3    H179358   5.679   0.845  16.880 -2.3727  0.0882  0.8556
19289TIP3    H279359   5.571   0.895  16.787 -0.5921 -0.5476 -1.6270
19290TIP3   OH279360   2.044   3.865   5.415  0.0731  0.5733 -0.5143
19290TIP3    H179361   2.031   3.959   5.403  1.0906  0.7108 -0.6290
19290TIP3    H279362   2.095   3.858   5.496 -0.4807  0.0842 -0.2071
19291TIP3   OH279363   6.629   1.372   1.401 -0.4368  0.8399  0.0655
19291TIP3    H179364   6.682   1.389   1.479  0.5885 -0.4975 -0.3341
19291TIP3    H279365   6.577   1.295   1.424  0.5811 -0.1580 -0.9049
19292TIP3   OH279366   0.188   3.120  16.652 -0.3768 -0.4367  0.5246
19292TIP3    H179367   0.236   3.038  16.659  0.7596  0.1107 -0.7653
19292TIP3    H279368   0.155   3.121  16.562 -0.5221  0.4555  0.5863
19293TIP3   OH279369   1.954   0.881  11.596 -0.7959 -0.2153  0.4229
19293TIP3    H179370   1.887   0.847  11.654  0.4191 -0.0480  1.9526
19293TIP3    H279371   2.032   0.830  11.615 -0.0054  0.7805 -0.0439
19294TIP3   OH279372   3.223   2.401  16.138 -0.6161  0.3243  0.0285
19294TIP3    H179373   3.185   2.443  16.061 -1.2273 -0.6326 -0.2021
19294TIP3    H279374   3.243   2.312  16.110  0.7474  0.4815  0.4865
19295TIP3   OH279375   0.238   1.617   2.718 -0.5986 -0.5863  0.1940
19295TIP3    H179376   0.173   1.646   2.655 -1.3747 -0.2465  1.1397
19295TIP3    H279377   0.217   1.525   2.735 -1.1720 -0.3328  0.8969
19296TIP3   OH279378   5.721   2.639   5.511  0.3475 -0.6633  0.0354
19296TIP3    H179379   5.811   2.607   5.519  0.7888 -0.1467 -2.2537
19296TIP3    H279380   5.667   2.560   5.502  0.8611 -0.9238 -0.8340
19297TIP3   OH279381   5.947   2.173   4.081 -0.2284  0.1064 -0.4821
19297TIP3    H179382   5.992   2.213   4.155  0.1933 -0.5448 -0.3805
19297TIP3    H279383   5.913   2.090   4.115 -1.4334  0.5475 -0.5837
19298TIP3   OH279384   2.000   5.763  12.049 -0.0414  0.1562 -0.4513
19298TIP3    H179385   1.956   5.734  12.129  2.1203 -3.3819 -0.4530
19298TIP3    H279386   2.075   5.814  12.079  1.0232 -1.5430 -0.1567
19299TIP3   OH279387   0.827   6.671   2.016 -0.4691 -0.6906  0.0871
19299TIP3    H179388   0.815   6.676   1.921 -2.5573  2.5978  0.4680
19299TIP3    H279389   0.744   6.636   2.049 -0.0147 -1.1400  0.7725
19300TIP3   OH279390   5.765   6.343  15.128 -1.0778  0.8436 -0.2471
19300TIP3    H179391   5.835   6.408  15.139 -0.0579 -0.2907  0.0992
19300TIP3    H279392   5.690   6.381  15.174 -0.2676  1.4378  0.6093
19301TIP3   OH279393   6.072   3.114  12.046 -0.1291 -0.0599 -0.2757
19301TIP3    H179394   6.056   3.049  12.114 -0.5524  0.9401  0.5954
19301TIP3    H279395   6.166   3.110  12.031  0.0830  0.2222  0.9041
19302TIP3   OH279396   2.105   0.255  10.972  0.7961 -0.4453  0.0471
19302TIP3    H179397   2.017   0.276  10.939  0.9068 -0.4845 -0.2742
19302TIP3    H279398   2.130   0.176  10.925  0.6007 -0.9955  0.8648
19303TIP3   OH279399   1.411   5.480  11.428  0.5254  0.1171 -0.2377
19303TIP3    H179400   1.385   5.496  11.338 -0.2933  0.7437  0.1000
19303TIP3    H279401   1.450   5.563  11.457  0.1343  0.1447  0.2098
19304TIP3   OH279402   5.479   5.236  16.346  0.4422 -0.1296 -0.2533
19304TIP3    H179403   5.389   5.238  16.315  0.2076 -1.5223  0.3087
19304TIP3    H279404   5.490   5.318  16.395 -0.3462  0.2849 -0.7715
19305TIP3   OH279405   1.878   5.536   2.534  0.7197 -0.1574 -0.2062
19305TIP3    H179406   1.855   5.455   2.490  2.3991 -2.0376  2.2467
19305TIP3    H279407   1.796   5.566   2.573  0.0380 -0.5109 -1.3260
19306TIP3   OH279408   1.835   3.766  16.633  0.0213 -0.3003 -0.2016
19306TIP3    H179409   1.881   3.756  16.716 -1.0934  0.2987  0.4929
19306TIP3    H279410   1.870   3.695  16.578  0.2481 -1.1385  1.0046
19307TIP3   OH279411   2.402   3.798   5.687  0.1863 -0.1209  0.2764
19307TIP3    H179412   2.415   3.775   5.779  2.2485 -0.2900 -0.0263
19307TIP3    H279413   2.490   3.823   5.656 -0.9350  2.5229 -0.9347
19308TIP3   OH279414   1.026   4.624   4.617 -0.5809  0.0724  0.0638
19308TIP3    H179415   1.104   4.614   4.562 -0.2058 -1.5642  0.8486
19308TIP3    H279416   0.954   4.631   4.555  0.1644  1.3301 -0.6689
19309TIP3   OH279417   3.679   4.697   4.589 -0.0188 -0.5411 -0.4722
19309TIP3    H179418   3.593   4.697   4.547  0.0546  2.3244 -0.7434
19309TIP3    H279419   3.739   4.673   4.518 -0.2677  0.7391 -1.1352
19310TIP3   OH279420   5.022   6.600  11.709 -0.4683  0.2497 -0.0012
19310TIP3    H179421   5.069   6.668  11.756  0.3063 -0.7788  0.7440
19310TIP3    H279422   5.021   6.629  11.618  0.8090  0.7158  0.1338
19311TIP3   OH279423   4.140   3.709   5.885 -0.4350 -0.0312  0.1927
19311TIP3    H179424   4.122   3.788   5.834 -0.4899 -1.1115 -1.4867
19311TIP3    H279425   4.059   3.692   5.934 -0.6650  0.5374  0.0077
19312TIP3   OH279426   2.523   1.175   6.128  0.1584  0.1069 -0.2177
19312TIP3    H179427   2.571   1.207   6.052 -0.1635  1.1122 -0.0055
19312TIP3    H279428   2.590   1.134   6.183  0.5538  0.2825 -0.5674
19313TIP3   OH279429   3.412   4.563   5.117  0.1869  0.7108 -0.4817
19313TIP3    H179430   3.458   4.484   5.147  1.1670  2.6171  3.3831
19313TIP3    H279431   3.481   4.616   5.076  0.1016  0.7672 -0.5521
19314TIP3   OH279432   6.477   4.104   3.382  0.0924  0.0940  0.0573
19314TIP3    H179433   6.382   4.106   3.380  0.0497  0.7561  2.1284
19314TIP3    H279434   6.504   4.151   3.303 -1.2832  0.1920 -0.3579
19315TIP3   OH279435   2.019   1.035   5.678 -0.0173  1.1241  0.0862
19315TIP3    H179436   2.061   1.065   5.598 -1.2029 -0.6813 -1.2513
19315TIP3    H279437   2.056   0.948   5.694 -0.5723  1.0310  0.8940
19316TIP3   OH279438   0.851   3.683   1.249 -0.1671  0.3339  0.0847
19316TIP3    H179439   0.823   3.637   1.328 -0.3749  1.7350  0.8362
19316TIP3    H279440   0.773   3.684   1.193 -0.3185  0.2615  0.2936
19317TIP3   OH279441   3.841   5.265   5.273 -0.1631 -0.2836 -0.2619
19317TIP3    H179442   3.923   5.287   5.318 -0.1522  1.0063 -0.8961
19317TIP3    H279443   3.787   5.344   5.281 -0.9546 -0.7661 -0.7397
19318TIP3   OH279444   2.070   4.657  12.449  0.2166  0.3508  0.3582
19318TIP3    H179445   2.114   4.579  12.484 -0.3620  0.5970  1.6697
19318TIP3    H279446   1.978   4.631  12.440  0.0829  0.7740  0.4867
19319TIP3   OH279447   6.737   5.605   1.334 -0.1210  0.7221 -0.4573
19319TIP3    H179448   6.741   5.698   1.357  1.3735  0.0583  2.1859
19319TIP3    H279449   6.827   5.574   1.343 -1.1061 -1.6628  1.8680
19320TIP3   OH279450   4.865   6.433  13.195 -0.3094 -0.3170 -0.1601
19320TIP3    H179451   4.956   6.405  13.185 -0.1545 -0.1146  0.6460
19320TIP3    H279452   4.843   6.471  13.110  0.3016 -0.5436 -0.4243
19321TIP3   OH279453   0.618   2.503  16.911 -0.3538  0.2170 -0.3888
19321TIP3    H179454   0.660   2.529  16.993 -2.6216  0.5321  0.7109
19321TIP3    H279455   0.606   2.408  16.921 -2.1130  0.5074  0.3659
19322TIP3   OH279456   3.658   3.102  16.513  0.4150 -0.0420  0.2237
19322TIP3    H179457   3.597   3.114  16.586 -0.2885  1.1155 -0.5439
19322TIP3    H279458   3.636   3.016  16.477 -1.1473  0.5929 -0.3849
19323TIP3   OH279459   1.618   4.868   4.522  0.0057  0.7092 -0.0129
19323TIP3    H179460   1.626   4.805   4.451 -0.4908 -1.0101  1.4160
19323TIP3    H279461   1.543   4.837   4.573  0.2815  1.9731  1.1973
19324TIP3   OH279462   4.499   1.274   1.006  0.3345  0.1809 -0.1885
19324TIP3    H179463   4.538   1.332   1.072  0.1304 -1.0731  1.0612
19324TIP3    H279464   4.419   1.319   0.979 -0.5925 -0.1823  1.8576
19325TIP3   OH279465   4.651   1.936   0.797  0.4376 -0.0707 -0.7304
19325TIP3    H179466   4.581   1.896   0.745 -1.5879 -0.3031  2.0564
19325TIP3    H279467   4.620   2.025   0.814  1.1384  0.0525 -0.0737
19326TIP3   OH279468   2.264   2.248   2.222  0.6034  0.2747 -0.5139
19326TIP3    H179469   2.222   2.288   2.146  0.4690  1.8619  0.3738
19326TIP3    H279470   2.223   2.290   2.298  0.3347 -1.6851  0.4768
19327TIP3   OH279471   5.732   1.132   1.750  0.8682 -0.2930  0.4507
19327TIP3    H179472   5.682   1.111   1.830  0.7484 -0.6355  0.2866
19327TIP3    H279473   5.682   1.091   1.680 -0.8315  2.7471 -0.2300
19328TIP3   OH279474   6.624   2.623   4.365 -0.0229  0.1781 -0.1907
19328TIP3    H179475   6.552   2.567   4.338 -2.1924  1.3085  2.9735
19328TIP3    H279476   6.651   2.588   4.449  2.4520  0.4470 -0.8382
19329TIP3   OH279477   4.123   1.510  10.797  0.3393 -0.4650 -0.5275
19329TIP3    H179478   4.181   1.437  10.776  0.4557 -0.6350  0.3361
19329TIP3    H279479   4.035   1.477  10.777  0.4219 -0.7292 -0.4595
19330TIP3   OH279480   0.555   6.216   3.540 -0.1648 -0.4319  0.5856
19330TIP3    H179481   0.575   6.147   3.604  1.2962  0.5357  1.1886
19330TIP3    H279482   0.639   6.236   3.498 -0.7936  0.1577 -0.4253
19331TIP3   OH279483   3.323   2.684   4.222 -0.1394  0.5369  0.4023
19331TIP3    H179484   3.283   2.598   4.221 -0.2888  0.6008 -1.3007
19331TIP3    H279485   3.290   2.725   4.302 -2.8685  0.3036 -0.5443
19332TIP3   OH279486   5.739   4.268   2.224 -0.1147  0.3921  0.0440
19332TIP3    H179487   5.737   4.281   2.129  0.2284 -1.9318 -0.3182
19332TIP3    H279488   5.829   4.241   2.242 -0.5282 -0.4825  0.8289
19333TIP3   OH279489   4.819   3.546   4.521  0.1695  0.7570 -0.0969
19333TIP3    H179490   4.895   3.489   4.538  1.1180  2.3066  0.9894
19333TIP3    H279491   4.746   3.501   4.564  0.8148  0.1144  0.3401
19334TIP3   OH279492   3.740   6.513  13.999 -0.1074 -0.1849 -0.1460
19334TIP3    H179493   3.694   6.468  13.928  1.4806 -2.3788  0.1312
19334TIP3    H279494   3.808   6.563  13.955 -0.6284  0.3735 -0.3244
19335TIP3   OH279495   1.486   4.008   4.103 -0.4217  0.3844  0.2565
19335TIP3    H179496   1.431   4.004   4.181  0.4528  0.6392  0.9053
19335TIP3    H279497   1.544   3.932   4.111  0.1446  0.8086  0.2230
19336TIP3   OH279498   1.942   3.064   3.958  0.5724 -0.1928 -1.2071
19336TIP3    H179499   2.015   3.043   4.017  0.7582 -0.5755 -1.5731
19336TIP3    H279500   1.885   3.121   4.010  0.8759 -0.3045 -0.7486
19337TIP3   OH279501   1.170   2.355   1.741  0.7129 -0.2835  0.2842
19337TIP3    H179502   1.123   2.436   1.764  1.8731  0.9605 -1.5791
19337TIP3    H279503   1.261   2.381   1.735  1.6543 -2.5862  3.3718
19338TIP3   OH279504   1.516   0.939  14.162 -0.6215 -0.3579  0.4756
19338TIP3    H179505   1.595   0.908  14.205  0.6562 -1.2696 -2.4253
19338TIP3    H279506   1.547   1.005  14.100 -2.4814  1.2599  1.1766
19339TIP3   OH279507   4.591   1.255  12.499 -0.7229  0.5227  0.1136
19339TIP3    H179508   4.684   1.274  12.491 -0.8115  0.4766 -1.1380
19339TIP3    H279509   4.558   1.319  12.562  0.1738  0.4509  0.6633
19340TIP3   OH279510   3.131   0.114  13.974 -0.0183 -0.1385  0.4983
19340TIP3    H179511   3.218   0.086  14.005 -0.1099 -1.4026 -0.3456
19340TIP3    H279512   3.150   0.180  13.908  0.3591 -1.1484 -0.4296
19341TIP3   OH279513   3.033   3.939   0.346 -0.3894  0.1575  0.0382
19341TIP3    H179514   3.070   4.025   0.367 -1.2375  0.5670 -0.1337
19341TIP3    H279515   3.085   3.909   0.271  0.5063  0.1104  0.6617
19342TIP3   OH279516   2.500   2.917   2.378  0.3753  0.1731  0.1060
19342TIP3    H179517   2.432   2.872   2.329 -0.5361 -1.1041  2.4774
19342TIP3    H279518   2.554   2.847   2.415  1.3150  1.1132  0.5478
19343TIP3   OH279519   6.023   3.862  12.923  0.7373 -0.3258 -0.4296
19343TIP3    H179520   6.064   3.778  12.906 -1.2620 -1.3985 -0.0331
19343TIP3    H279521   5.934   3.854  12.889 -0.0760  0.9667  1.2892
19344TIP3   OH279522   0.632   4.652   3.228 -0.2282 -0.3730 -0.1172
19344TIP3    H179523   0.696   4.657   3.158  2.3724  0.5974  2.2347
19344TIP3    H279524   0.577   4.729   3.215  1.8675  1.2572  0.3875
19345TIP3   OH279525   4.969   6.676  10.837 -0.0491 -0.7387 -0.3021
19345TIP3    H179526   4.906   6.644  10.772 -1.5858 -0.6110  1.1084
19345TIP3    H279527   5.041   6.711  10.784 -1.3900 -0.3942 -1.9482
19346TIP3   OH279528   5.789   3.391   0.542  0.2845  0.7526 -0.1013
19346TIP3    H179529   5.847   3.349   0.605 -0.2536  1.0074  0.5704
19346TIP3    H279530   5.848   3.439   0.484  0.7583  0.8518  0.4580
19347TIP3   OH279531   3.364   1.696   4.771 -0.0537  0.1947 -0.0774
19347TIP3    H179532   3.340   1.772   4.823 -0.0149 -0.4902  0.9510
19347TIP3    H279533   3.439   1.658   4.818  0.6207  0.1404 -1.1733
19348TIP3   OH279534   6.254   6.202  13.575 -0.2489  0.3800  0.0402
19348TIP3    H179535   6.235   6.110  13.596  0.6784  0.1611 -0.0251
19348TIP3    H279536   6.324   6.197  13.509 -0.8202  1.1178 -0.6344
19349TIP3   OH279537   3.388   2.557  14.166 -0.1066  0.4684 -0.2307
19349TIP3    H179538   3.441   2.588  14.240 -1.6574  1.1048  0.6177
19349TIP3    H279539   3.372   2.465  14.186  1.1629  0.1064 -0.7948
19350TIP3   OH279540   3.770   4.240  14.248  0.4048  0.1351  0.8572
19350TIP3    H179541   3.714   4.248  14.325 -1.2208  0.4893 -0.3316
19350TIP3    H279542   3.732   4.167  14.199  0.1614  1.2217 -0.6049
19351TIP3   OH279543   2.762   4.590   2.090 -0.0701 -0.4253  0.0787
19351TIP3    H179544   2.740   4.503   2.056 -0.2512 -0.0225 -0.8523
19351TIP3    H279545   2.787   4.641   2.013 -0.0932  0.3896  0.5982
19352TIP3   OH279546   5.272   4.912  15.806 -0.6800  0.0675 -0.8008
19352TIP3    H179547   5.180   4.938  15.800 -0.0551  2.1240 -2.2416
19352TIP3    H279548   5.309   4.933  15.720  1.4164  0.4486  0.1496
19353TIP3   OH279549   3.287   3.473  10.169 -0.5440 -0.3563 -0.2529
19353TIP3    H179550   3.285   3.380  10.146 -2.0358 -0.1104 -1.2267
19353TIP3    H279551   3.339   3.514  10.099  0.0715 -0.4366  0.1495
19354TIP3   OH279552   4.966   0.529  15.996 -0.0713  0.3824 -0.0933
19354TIP3    H179553   4.871   0.539  16.005  0.1429  1.4239  1.1219
19354TIP3    H279554   4.996   0.613  15.961  0.3741 -0.0368 -0.7305
19355TIP3   OH279555   1.003   2.222   0.580  0.3356 -0.3828 -0.0909
19355TIP3    H179556   1.030   2.143   0.626 -2.3676 -0.6401  1.0977
19355TIP3    H279557   1.026   2.293   0.639 -0.6829 -0.5423  0.5092
19356TIP3   OH279558   2.667   2.334  16.482  0.1057  0.8548  0.1704
19356TIP3    H179559   2.752   2.373  16.461 -0.2366  1.1950 -0.6117
19356TIP3    H279560   2.608   2.368  16.415 -0.2662 -0.7831 -0.3642
19357TIP3   OH279561   4.272   6.540  15.881 -0.3933  0.1719  0.1009
19357TIP3    H179562   4.306   6.454  15.905 -2.8510 -1.3290 -1.5561
19357TIP3    H279563   4.348   6.598  15.884  1.4084 -2.1542  0.7513
19358TIP3   OH279564   3.648   4.352  15.806  0.0669 -0.5988  0.2532
19358TIP3    H179565   3.654   4.302  15.887 -1.0799 -1.8736 -0.4266
19358TIP3    H279566   3.555   4.376  15.800 -0.0830 -1.4692 -1.2145
19359TIP3   OH279567   0.283   4.898  13.229  0.4389 -0.2062 -0.3554
19359TIP3    H179568   0.314   4.954  13.158  0.0786 -0.7270 -0.9222
19359TIP3    H279569   0.330   4.930  13.307  0.6583  0.5120 -0.7797
19360TIP3   OH279570   1.619   6.664   1.925 -0.1944  0.4853  0.6858
19360TIP3    H179571   1.554   6.706   1.981 -2.5897 -0.3662 -1.3475
19360TIP3    H279572   1.593   6.688   1.836  2.0458 -0.2241 -0.1931
19361TIP3   OH279573   4.119   1.299   0.440  0.6772 -0.0183 -0.3905
19361TIP3    H179574   4.040   1.268   0.396 -0.2138  0.4179  0.8477
19361TIP3    H279575   4.164   1.353   0.375 -1.5621  2.1413 -0.2022
19362TIP3   OH279576   4.797   0.908  17.152  0.5577  0.3743  0.0421
19362TIP3    H179577   4.740   0.944  17.084 -0.3135  2.2835  1.7010
19362TIP3    H279578   4.743   0.844  17.197  0.3476  0.7849  0.3837
19363TIP3   OH279579   0.801   5.603   0.131  0.0467 -0.2522  0.4995
19363TIP3    H179580   0.748   5.567   0.202  0.5229  0.9317  1.4741
19363TIP3    H279581   0.744   5.600   0.055 -0.6745 -0.9922  1.0488
19364TIP3   OH279582   1.874   4.711  11.754 -0.0224  0.3013  0.1570
19364TIP3    H179583   1.920   4.676  11.678 -0.6514  0.3772 -0.2603
19364TIP3    H279584   1.842   4.797  11.725 -1.0716 -0.0770  0.2007
19365TIP3   OH279585   5.103   6.572   3.965 -0.2694  0.5007 -0.0531
19365TIP3    H179586   5.093   6.615   3.880 -1.7649 -1.5577 -0.9752
19365TIP3    H279587   5.014   6.548   3.990  0.5877 -3.1432 -0.2136
19366TIP3   OH279588   4.291   5.579   2.994 -0.1358  0.0195 -0.4065
19366TIP3    H179589   4.386   5.581   2.983 -0.1068  2.1488 -0.0039
19366TIP3    H279590   4.272   5.653   3.051 -2.1027  0.0077 -1.0056
19367TIP3   OH279591   4.783   3.021   4.258 -0.4703 -0.1055 -0.0017
19367TIP3    H179592   4.750   3.043   4.171 -0.5197  0.8069  0.2489
19367TIP3    H279593   4.704   3.005   4.310 -0.4354 -0.9378 -0.1890
19368TIP3   OH279594   5.753   2.351   2.127  0.0363 -0.2172 -0.0507
19368TIP3    H179595   5.698   2.420   2.166  0.8310 -0.5424  1.6997
19368TIP3    H279596   5.822   2.398   2.081 -1.8614  0.2099 -2.5715
19369TIP3   OH279597   5.938   5.175   5.093 -0.1367 -0.1413 -0.1774
19369TIP3    H179598   5.862   5.232   5.105 -0.0438  0.3408 -1.8775
19369TIP3    H279599   5.991   5.190   5.171 -0.8535  0.9535  0.1099
19370TIP3   OH279600   2.541   6.703   2.733  0.0693 -0.2799  0.8525
19370TIP3    H179601   2.529   6.707   2.828  0.3449  0.9192  0.8501
19370TIP3    H279602   2.472   6.644   2.702 -0.2349 -0.4083  1.7591
19371TIP3   OH279603   5.818   2.887   3.300  0.1730  0.4855 -0.2393
19371TIP3    H179604   5.842   2.945   3.229 -0.1913  1.9565  0.8208
19371TIP3    H279605   5.900   2.842   3.323  0.6588  1.2684 -0.4332
19372TIP3   OH279606   0.888   1.570  11.067 -0.6392 -0.7049 -0.4443
19372TIP3    H179607   0.978   1.547  11.090 -0.4725 -0.8472 -1.2411
19372TIP3    H279608   0.894   1.653  11.020 -0.8172 -1.2217 -1.3969
19373TIP3   OH279609   3.203   2.973   2.882 -0.7105  0.0293  0.3973
19373TIP3    H179610   3.282   3.002   2.928  1.3915 -3.3493 -0.8410
19373TIP3    H279611   3.208   3.016   2.797  0.6758 -1.3131 -0.2392
19374TIP3   OH279612   2.847   1.706   2.236 -0.2698  0.6893 -0.3186
19374TIP3    H179613   2.902   1.669   2.305 -0.4339  0.1626 -0.4712
19374TIP3    H279614   2.762   1.721   2.279  0.1492  2.0693  0.0844
19375TIP3   OH279615   6.556   3.138  11.329  0.0188  0.4620 -0.1592
19375TIP3    H179616   6.476   3.110  11.285  0.0655  0.1775 -0.0640
19375TIP3    H279617   6.564   3.231  11.307 -1.2536  0.9222  1.2103
19376TIP3   OH279618   4.982   5.608   0.064  0.6240 -0.2088 -0.1404
19376TIP3    H179619   5.069   5.596   0.102 -0.0890 -0.3494  1.4811
19376TIP3    H279620   4.995   5.595  -0.030  2.5124  0.6030 -0.0262
19377TIP3   OH279621   1.277   3.299  15.845  0.3312  0.1764 -0.3750
19377TIP3    H179622   1.278   3.368  15.912  0.2425 -1.2128  1.0830
19377TIP3    H279623   1.235   3.340  15.770 -1.1863  1.2357  1.0114
19378TIP3   OH279624   3.348   1.489   2.276 -0.1713  0.0216 -0.0606
19378TIP3    H179625   3.428   1.498   2.327  0.1354  0.3367 -0.5941
19378TIP3    H279626   3.377   1.490   2.185 -0.8230  0.5557 -0.2633
19379TIP3   OH279627   5.636   4.548  10.335  0.2506  0.8650 -0.0488
19379TIP3    H179628   5.626   4.641  10.317  0.0096  1.4064  2.6795
19379TIP3    H279629   5.717   4.542  10.386  0.3197 -0.4419 -0.2902
19380TIP3   OH279630   0.346   1.113   1.001  0.0761  0.6759  0.0037
19380TIP3    H179631   0.373   1.035   0.953  1.5476 -0.7326  2.9512
19380TIP3    H279632   0.414   1.177   0.984  0.2076  0.4374 -0.3710
19381TIP3   OH279633   4.377   1.618   4.763  0.6214 -0.1230  0.4495
19381TIP3    H179634   4.392   1.586   4.852  0.0798 -0.2057  0.5109
19381TIP3    H279635   4.286   1.597   4.745  0.8808 -0.5858 -0.3303
19382TIP3   OH279636   4.321   2.529   3.977  0.2017  0.6590  0.3295
19382TIP3    H179637   4.327   2.584   4.056  1.0874 -0.4588  1.0595
19382TIP3    H279638   4.337   2.440   4.009 -1.4323 -0.0609 -0.8124
19383TIP3   OH279639   4.557   6.415  13.127  0.3972  0.4072 -0.3677
19383TIP3    H179640   4.551   6.359  13.050  2.0094 -0.1865 -0.0669
19383TIP3    H279641   4.607   6.364  13.190  0.1503  1.3887  0.6356
19384TIP3   OH279642   4.876   5.397   0.215  0.2999 -0.0496  0.6325
19384TIP3    H179643   4.938   5.324   0.214  0.9571  0.5039  0.0272
19384TIP3    H279644   4.921   5.467   0.167 -1.7714 -0.4815 -2.1160
19385TIP3   OH279645   6.227   3.573   5.710 -0.5764 -0.5648 -0.1159
19385TIP3    H179646   6.166   3.505   5.737 -1.1681  0.0503  0.1143
19385TIP3    H279647   6.312   3.529   5.706 -0.3350 -0.5612  3.3782
19386TIP3   OH279648   1.003   5.799   6.069 -0.3774 -0.2066  0.2590
19386TIP3    H179649   0.995   5.707   6.042 -0.2195 -0.4220  0.9364
19386TIP3    H279650   0.988   5.849   5.989  0.0304 -0.8404 -0.2138
19387TIP3   OH279651   2.964   4.890   0.358 -0.6567  0.5609 -0.4819
19387TIP3    H179652   2.983   4.951   0.429  0.6870  0.6208 -0.8778
19387TIP3    H279653   2.894   4.931   0.308  0.4274  1.9310 -0.9131
19388TIP3   OH279654   4.747   2.460   0.902 -0.5104  0.3174 -0.0276
19388TIP3    H179655   4.718   2.546   0.872 -0.6925  0.8347  1.5548
19388TIP3    H279656   4.682   2.435   0.968  0.9019  0.1068  1.3184
19389TIP3   OH279657   6.312   3.551   1.295  0.0842 -0.0205  0.0886
19389TIP3    H179658   6.316   3.611   1.370 -1.2422  1.5986 -1.1086
19389TIP3    H279659   6.224   3.514   1.298  0.0309  0.0382 -0.6547
19390TIP3   OH279660   5.222   1.880  14.484  0.3100  0.2547 -0.7171
19390TIP3    H179661   5.285   1.808  14.476  0.6901  0.8121 -3.3603
19390TIP3    H279662   5.136   1.838  14.482  0.5638 -0.3730  1.1492
19391TIP3   OH279663   5.195   0.933  14.543 -0.1754  0.2258 -0.0166
19391TIP3    H179664   5.170   0.977  14.624 -0.0254  1.4033 -0.5967
19391TIP3    H279665   5.192   0.840  14.564 -0.2603  0.5213  1.2995
19392TIP3   OH279666   6.192   4.732   4.491 -0.4869  0.1443 -0.7498
19392TIP3    H179667   6.178   4.687   4.408  0.8607  0.9411 -1.4197
19392TIP3    H279668   6.126   4.801   4.492 -1.0487 -0.3937 -0.7785
19393TIP3   OH279669   4.786   0.125  16.392  0.1833 -0.2320 -0.4600
19393TIP3    H179670   4.872   0.135  16.351  0.7681 -1.6632  0.3519
19393TIP3    H279671   4.789   0.184  16.467  0.1996  0.2363 -0.8274
19394TIP3   OH279672   0.529   3.446   1.796  0.3791 -0.4653  0.0517
19394TIP3    H179673   0.540   3.495   1.877  0.8355  1.0950 -0.9331
19394TIP3    H279674   0.448   3.396   1.808 -0.7055  1.4135  0.6206
19395TIP3   OH279675   3.049   0.024   1.880  0.9926 -0.1239  0.1767
19395TIP3    H179676   2.976   0.046   1.821  1.0341 -0.3247  0.0513
19395TIP3    H279677   3.112   0.095   1.867  0.5575  0.3731  0.7300
19396TIP3   OH279678   0.137   5.762  14.177  0.3845 -0.5740  0.4969
19396TIP3    H179679   0.129   5.763  14.082 -0.6531 -1.9222  0.5471
19396TIP3    H279680   0.228   5.738  14.194  0.4783 -0.6823 -0.1561
19397TIP3   OH279681   2.087   4.482  15.473  0.0490  0.1019 -0.6681
19397TIP3    H179682   2.026   4.454  15.405 -0.7005 -2.2449  0.8953
19397TIP3    H279683   2.148   4.409  15.482 -1.4246 -0.8310  2.9059
19398TIP3   OH279684   2.436   6.152   5.929 -0.6394  0.0455  0.6350
19398TIP3    H179685   2.372   6.091   5.893 -1.0090 -0.6650  2.4575
19398TIP3    H279686   2.515   6.099   5.942 -0.4314  0.3549  0.6527
19399TIP3   OH279687   4.157   6.731  11.330 -0.3496 -0.5765 -0.2638
19399TIP3    H179688   4.161   6.775  11.245  1.9304  0.5406  0.3618
19399TIP3    H279689   4.241   6.685  11.337 -1.3081 -2.2745  0.5710
19400TIP3   OH279690   3.044   1.868   5.861  0.4969 -0.1550 -0.4275
19400TIP3    H179691   3.081   1.891   5.946 -0.6795 -1.2449  0.4000
19400TIP3    H279692   3.095   1.793   5.831  1.4268  0.7208 -1.0607
19401TIP3   OH279693   3.699   1.991  16.447 -0.5851 -0.3723 -0.0234
19401TIP3    H179694   3.778   1.937  16.450 -0.7927 -0.6839 -0.0641
19401TIP3    H279695   3.657   1.976  16.532 -1.1920 -1.1123 -0.4533
19402TIP3   OH279696   1.147   6.329  12.927 -0.1240 -0.3243 -0.4977
19402TIP3    H179697   1.221   6.286  12.884  0.7617  0.1604  0.5224
19402TIP3    H279698   1.187   6.388  12.991 -1.4245 -2.8357  2.7616
19403TIP3   OH279699   5.277   6.242   1.369 -0.0433 -0.1503  0.3198
19403TIP3    H179700   5.244   6.332   1.366  1.4738  0.3520 -2.5612
19403TIP3    H279701   5.214   6.191   1.318 -0.3961 -0.5803  1.1685
19404TIP3   OH279702   4.653   5.290   5.086  0.1893  0.5268  0.1506
19404TIP3    H179703   4.586   5.297   5.018 -1.9747 -0.7305  2.1138
19404TIP3    H279704   4.698   5.208   5.068  0.1473  0.5823 -0.2114
19405TIP3   OH279705   3.437   5.178   6.195 -0.1032  0.0208  0.3801
19405TIP3    H179706   3.409   5.091   6.165 -1.0243  0.3711  0.2258
19405TIP3    H279707   3.528   5.185   6.165  1.0435 -2.1490  3.1059
19406TIP3   OH279708   3.057   5.829   5.087 -0.1170 -0.0210 -0.1082
19406TIP3    H179709   3.134   5.869   5.127 -0.5373  1.0683 -0.3486
19406TIP3    H279710   3.085   5.805   4.999  0.0487  0.0536 -0.0755
19407TIP3   OH279711   5.877   6.518   3.419  0.1097  0.0713  0.4515
19407TIP3    H179712   5.912   6.456   3.355  0.8812  0.6871  0.2750
19407TIP3    H279713   5.800   6.556   3.375  1.5905  1.7114 -0.7995
19408TIP3   OH279714   6.006   0.037  11.823  0.6011  0.2720  0.2525
19408TIP3    H179715   6.018  -0.058  11.828  2.7092  0.4948  0.1776
19408TIP3    H279716   5.950   0.059  11.897  0.6944 -0.9620  0.6895
19409TIP3   OH279717   5.295   5.635  11.080 -0.1149 -0.2456  0.4130
19409TIP3    H179718   5.360   5.700  11.107 -0.0565 -0.4516  0.7746
19409TIP3    H279719   5.300   5.635  10.985 -1.0341  1.2048  0.3526
19410TIP3   OH279720   5.009   5.835  14.521 -0.1002  0.3447  0.2152
19410TIP3    H179721   5.044   5.924  14.513  0.4459  0.1417  0.3709
19410TIP3    H279722   4.984   5.828  14.614  0.5555  0.0788  0.3773
19411TIP3   OH279723   0.465   2.474  15.282  0.6004 -0.2234 -0.4297
19411TIP3    H179724   0.439   2.552  15.233  1.0430  1.2966  1.6774
19411TIP3    H279725   0.531   2.505  15.344 -1.2632 -1.6465  2.4306
19412TIP3   OH279726   5.519   1.779  10.382  0.5535 -0.3149 -0.1238
19412TIP3    H179727   5.488   1.715  10.318 -1.5740 -0.7081  1.2683
19412TIP3    H279728   5.612   1.758  10.394  1.0921 -0.0418 -3.2542
19413TIP3   OH279729   4.852   0.514  17.222  0.0607  0.1246 -0.3228
19413TIP3    H179730   4.816   0.549  17.303  0.9178  0.8559 -0.2555
19413TIP3    H279731   4.837   0.419  17.228 -1.7695  0.4148 -0.2646
19414TIP3   OH279732   1.067   1.537   3.526  0.6621 -0.3675  0.0662
19414TIP3    H179733   1.056   1.467   3.590 -0.3609 -0.3464 -0.0816
19414TIP3    H279734   1.145   1.585   3.556 -0.5575  0.4259  2.0414
19415TIP3   OH279735   5.520   1.241  15.429  0.1108  0.0754  0.1751
19415TIP3    H179736   5.583   1.217  15.497  0.3809  1.7687  0.5544
19415TIP3    H279737   5.573   1.274  15.357 -0.1209 -2.7459 -1.3312
19416TIP3   OH279738   1.099   4.685  16.752 -0.1906  0.4726 -0.0192
19416TIP3    H179739   1.068   4.629  16.823 -0.0295  0.8370  0.3367
19416TIP3    H279740   1.140   4.760  16.796 -0.3117  0.8198 -0.4933
19417TIP3   OH279741   1.419   4.506   5.650  0.0926 -0.2088  0.5429
19417TIP3    H179742   1.339   4.506   5.598 -0.0456 -2.1734  0.7261
19417TIP3    H279743   1.411   4.583   5.707 -1.8822 -0.6636  0.8930
19418TIP3   OH279744   2.319   2.458   3.305 -0.1037 -0.4083  0.0754
19418TIP3    H179745   2.354   2.501   3.383 -2.2421  0.2470  0.7211
19418TIP3    H279746   2.320   2.365   3.326  0.5324 -0.3426  0.3577
19419TIP3   OH279747   6.748   4.373  10.630  0.2197  0.1000 -0.7376
19419TIP3    H179748   6.810   4.390  10.700 -1.2663 -1.2204  0.9435
19419TIP3    H279749   6.766   4.283  10.603 -0.9171 -0.2629 -0.2913
19420TIP3   OH279750   2.907   6.432  13.096  0.4012 -0.5681  0.1258
19420TIP3    H179751   2.823   6.419  13.050  0.4586  0.2540 -0.2324
19420TIP3    H279752   2.912   6.527  13.109  1.6537 -0.5283 -0.5745
19421TIP3   OH279753   3.681   6.544   0.597  0.3433 -0.3553  0.6144
19421TIP3    H179754   3.667   6.466   0.544  0.7691 -0.3524  0.4949
19421TIP3    H279755   3.593   6.577   0.615  0.0992 -1.5097  1.6469
19422TIP3   OH279756   4.470   6.050  11.514  0.2817  0.1962 -0.3735
19422TIP3    H179757   4.518   6.132  11.507  1.8936 -0.6104  0.9228
19422TIP3    H279758   4.431   6.051  11.601 -3.3237  1.4658 -1.9014
19423TIP3   OH279759   2.993   3.585  13.980  0.0042 -0.7487 -0.0071
19423TIP3    H179760   3.080   3.547  13.993 -0.2341 -1.2948  0.0062
19423TIP3    H279761   2.994   3.616  13.889  0.7937  0.7815  0.5201
19424TIP3   OH279762   2.158   1.682   0.122  0.1211 -1.0311 -0.8546
19424TIP3    H179763   2.221   1.655   0.189  0.8825 -0.3238 -1.2760
19424TIP3    H279764   2.092   1.731   0.170  1.4675  0.8061 -0.8103
19425TIP3   OH279765   2.648   3.012  14.254  0.0577 -0.1563 -0.5433
19425TIP3    H179766   2.608   2.929  14.280  0.1950 -0.5487 -1.5606
19425TIP3    H279767   2.582   3.078  14.277 -0.6495 -0.6820 -1.0197
19426TIP3   OH279768   2.835   3.746  12.465  0.1933  0.5215 -0.1123
19426TIP3    H179769   2.800   3.670  12.419  2.0905  0.8089 -2.0776
19426TIP3    H279770   2.758   3.790  12.500 -1.0761 -1.1464 -0.7404
19427TIP3   OH279771   0.549   1.995  14.019 -0.2367 -0.2162  0.2500
19427TIP3    H179772   0.587   1.908  14.034 -0.1238 -0.0674  0.8328
19427TIP3    H279773   0.466   1.977  13.976 -0.2923 -0.6253  0.5220
19428TIP3   OH279774   2.173   3.664  14.005  0.7889 -0.1019  0.7128
19428TIP3    H179775   2.212   3.590  13.958  2.2546 -0.6053  2.6419
19428TIP3    H279776   2.249   3.714  14.037 -0.1801  2.4485 -0.8660
19429TIP3   OH279777   0.290   3.893  11.964 -0.5825 -0.2887 -0.5129
19429TIP3    H179778   0.308   3.927  12.052  1.9104  1.0581 -1.4796
19429TIP3    H279779   0.295   3.798  11.973  3.2262 -0.1317  0.1956
19430TIP3   OH279780   5.920   0.321   2.685 -0.0845 -0.5367 -0.3107
19430TIP3    H179781   5.980   0.375   2.633 -0.0626 -0.4672 -0.2139
19430TIP3    H279782   5.970   0.242   2.704  0.1160 -0.3123  0.1003
19431TIP3   OH279783   5.502   4.125  12.946 -0.4388  0.2227 -0.0891
19431TIP3    H179784   5.482   4.115  13.039 -2.4908 -0.1317 -0.5569
19431TIP3    H279785   5.579   4.183  12.945  0.6162 -1.0696  1.8775
19432TIP3   OH279786   6.435   0.110  13.009 -0.0801 -0.5538  0.1295
19432TIP3    H179787   6.416   0.204  13.011  1.2544 -0.2751  0.0424
19432TIP3    H279788   6.471   0.094  12.922  2.3533 -0.5969  1.1084
19433TIP3   OH279789   6.231   3.396  12.216 -0.3903 -0.4014 -0.0685
19433TIP3    H179790   6.315   3.391  12.170  0.0006  0.8838  0.4825
19433TIP3    H279791   6.253   3.377  12.307 -0.4828  1.1583  0.2943
19434TIP3   OH279792   2.216   1.575   5.924 -0.1775 -0.0565 -0.0930
19434TIP3    H179793   2.214   1.500   5.984 -3.9417  0.6093  0.7393
19434TIP3    H279794   2.185   1.540   5.841 -0.8578  0.3003  0.0042
19435TIP3   OH279795   0.314   0.117  12.324  0.5465 -0.2527 -0.1778
19435TIP3    H179796   0.317   0.027  12.354  2.8263 -0.2465 -0.3621
19435TIP3    H279797   0.301   0.169  12.403  3.1541 -0.4842  0.4360
19436TIP3   OH279798   5.073   6.749   1.899  0.2108 -0.2056 -0.3819
19436TIP3    H179799   5.095   6.675   1.954 -1.7780 -1.4406 -1.1760
19436TIP3    H279800   4.978   6.760   1.911  0.4465  2.1266 -0.3747
19437TIP3   OH279801   3.251   0.289   4.333 -0.2400 -0.6030 -0.6231
19437TIP3    H179802   3.179   0.334   4.288 -0.7652 -0.3599  0.4331
19437TIP3    H279803   3.231   0.300   4.427  0.4745 -1.6670 -0.3349
19438TIP3   OH279804   2.181   0.319   4.912 -0.0593  0.0507 -0.7444
19438TIP3    H179805   2.272   0.301   4.887  0.1107 -0.1165 -0.0262
19438TIP3    H279806   2.174   0.286   5.002 -1.0025 -0.4902 -1.0052
19439TIP3   OH279807   3.265   0.658   2.358  0.6084  0.3870  0.2376
19439TIP3    H179808   3.173   0.653   2.385  0.5461 -0.0396 -0.0398
19439TIP3    H279809   3.300   0.735   2.403  0.2025  0.3547  0.6045
19440TIP3   OH279810   6.214   6.665  10.314  0.0840 -0.0628 -0.7067
19440TIP3    H179811   6.144   6.685  10.253 -0.0230  0.4174 -0.4328
19440TIP3    H279812   6.171   6.651  10.398  0.4605  2.4306 -0.0418
19441TIP3   OH279813   1.671   0.825  13.440 -0.0219 -0.4360  0.3688
19441TIP3    H179814   1.626   0.840  13.356 -1.6086  0.9150  1.4429
19441TIP3    H279815   1.756   0.868  13.429 -0.0142 -0.7168 -0.7400
19442TIP3   OH279816   4.112   0.577   2.305  0.1515  0.3518 -0.0760
19442TIP3    H179817   4.039   0.625   2.345  0.7342 -0.2137  1.6980
19442TIP3    H279818   4.142   0.634   2.234 -2.4142  0.3182 -1.2751
19443TIP3   OH279819   1.660   1.393   2.593  0.9319 -0.3276 -0.1395
19443TIP3    H179820   1.681   1.478   2.555 -0.5785 -0.9463 -2.4306
19443TIP3    H279821   1.717   1.387   2.670 -0.9381  4.0135  1.7673
19444TIP3   OH279822   3.727   4.631  11.646  0.7506 -0.2771  0.0121
19444TIP3    H179823   3.750   4.724  11.653  1.1630 -0.3774 -0.0466
19444TIP3    H279824   3.736   4.598  11.735  0.9096 -0.3370 -0.0277
19445TIP3   OH279825   1.684   1.800  13.550 -0.5144  0.6622 -0.4336
19445TIP3    H179826   1.596   1.765  13.569 -0.3986  0.5339 -0.1317
19445TIP3    H279827   1.669   1.869  13.486 -0.9767  1.4764  0.5264
19446TIP3   OH279828   3.624   3.541   2.364 -0.6017  0.6476 -0.0665
19446TIP3    H179829   3.712   3.514   2.338  0.0104  1.5073  1.0418
19446TIP3    H279830   3.591   3.592   2.290 -1.4300 -2.3228 -1.8156
19447TIP3   OH279831   1.072   0.102   0.968  0.3807 -0.1093 -0.4037
19447TIP3    H179832   1.040   0.075   0.882 -0.8395  2.0454 -0.6541
19447TIP3    H279833   1.167   0.087   0.964  0.0963 -1.7736 -1.4462
19448TIP3   OH279834   6.250   4.648  14.761 -0.3927 -0.3387 -0.0374
19448TIP3    H179835   6.219   4.707  14.693 -1.8687  1.2292  1.9180
19448TIP3    H279836   6.343   4.671  14.773 -0.5508  0.5022 -0.4013
19449TIP3   OH279837   4.961   4.403  11.116 -0.2394  0.5812 -0.2041
19449TIP3    H179838   4.903   4.477  11.099 -2.3839 -0.8591  0.5819
19449TIP3    H279839   5.011   4.392  11.035  0.3267  3.0493 -0.2170
19450TIP3   OH279840   1.762   2.751  15.017 -0.3584  0.4529  0.0984
19450TIP3    H179841   1.690   2.688  15.007  0.0211  0.2224 -1.2089
19450TIP3    H279842   1.736   2.826  14.963  1.0686 -0.2351 -1.5717
19451TIP3   OH279843   2.523   3.926   2.294 -0.3839 -0.9421 -0.1994
19451TIP3    H179844   2.609   3.935   2.252 -0.9789  0.5720 -1.0984
19451TIP3    H279845   2.531   3.845   2.345  1.4700 -1.0058 -0.5294
19452TIP3   OH279846   3.952   0.544  10.952  0.0455  0.1438  0.0497
19452TIP3    H179847   4.016   0.482  10.987  0.0600 -0.8043 -1.5931
19452TIP3    H279848   3.912   0.583  11.029  1.0715 -0.8415  1.1058
19453TIP3   OH279849   2.060   2.067  12.509 -0.4116 -0.2354 -0.3464
19453TIP3    H179850   2.037   2.159  12.518 -1.3486 -0.5548  0.6300
19453TIP3    H279851   2.086   2.040  12.597  1.5833 -0.4601 -0.9788
19454TIP3   OH279852   4.058   1.852  11.473 -0.1435 -0.4734 -0.7561
19454TIP3    H179853   4.107   1.801  11.538 -1.0582 -0.9781 -0.4499
19454TIP3    H279854   4.057   1.796  11.395  0.6952  0.0037 -1.1168
19455TIP3   OH279855   5.796   4.492   2.941  0.0198  0.0200 -0.5360
19455TIP3    H179856   5.752   4.407   2.932  2.0172 -1.1229  0.3505
19455TIP3    H279857   5.749   4.549   2.880 -1.8143 -1.5185 -0.6186
19456TIP3   OH279858   4.125   5.684   4.210 -0.3617  0.1635  0.1969
19456TIP3    H179859   4.145   5.777   4.221 -0.4716  0.1045  0.9107
19456TIP3    H279860   4.099   5.654   4.297  2.6166 -1.2342  0.6708
19457TIP3   OH279861   2.711   3.454  17.004  0.7736  0.6341 -0.6476
19457TIP3    H179862   2.781   3.398  17.039 -0.4861 -1.4761 -1.4114
19457TIP3    H279863   2.652   3.393  16.961 -0.9678  2.5292 -0.9787
19458TIP3   OH279864   5.778   3.404  16.925  0.3351  0.1945 -0.0773
19458TIP3    H179865   5.732   3.345  16.865  3.0604 -0.2997 -1.7565
19458TIP3    H279866   5.758   3.370  17.012 -0.4140 -1.5125 -0.8921
19459TIP3   OH279867   1.891   1.207   1.625  0.6228  0.0880  0.5320
19459TIP3    H179868   1.818   1.196   1.565  2.0818  0.9282 -1.4351
19459TIP3    H279869   1.854   1.254   1.700 -0.7416  0.9510 -0.6633
19460TIP3   OH279870   4.629   6.381  15.333 -0.4881  0.2623 -0.3583
19460TIP3    H179871   4.564   6.376  15.403  1.2481  1.4660  1.3908
19460TIP3    H279872   4.708   6.344  15.371  0.1792 -0.1504 -2.0873
19461TIP3   OH279873   0.759   2.732   4.632 -0.2468 -0.0016 -0.0982
19461TIP3    H179874   0.766   2.828   4.630  0.7788 -0.0744 -0.5928
19461TIP3    H279875   0.743   2.711   4.724 -0.3603  0.6435  0.0289
19462TIP3   OH279876   2.441   6.669  12.047  0.5213 -0.1821 -0.6126
19462TIP3    H179877   2.510   6.608  12.024  0.3971 -0.8203  0.6744
19462TIP3    H279878   2.442   6.672  12.143 -1.1672 -0.1410 -0.5730
19463TIP3   OH279879   6.125   1.944  15.816  0.3442  0.3097 -0.0577
19463TIP3    H179880   6.173   2.027  15.811  0.1328  0.4497  0.1832
19463TIP3    H279881   6.055   1.954  15.751  0.0401  0.5097  0.2936
19464TIP3   OH279882   4.284   1.424  13.624  0.1659 -0.2829  0.0868
19464TIP3    H179883   4.275   1.509  13.580 -1.2284  0.3689  1.5718
19464TIP3    H279884   4.305   1.447  13.714 -0.1619 -1.5148  0.4773
19465TIP3   OH279885   0.661   4.929   0.146  0.1347 -0.3457 -0.0199
19465TIP3    H179886   0.601   4.865   0.107  1.5153 -1.7397  0.1068
19465TIP3    H279887   0.671   4.996   0.078 -1.6865  0.0170  0.0234
19466TIP3   OH279888   2.626   0.499   5.023  0.1485 -0.7922  0.2255
19466TIP3    H179889   2.648   0.497   5.117 -1.9322  0.0437  0.7495
19466TIP3    H279890   2.680   0.430   4.985  0.1104 -1.9873  2.2495
19467TIP3   OH279891   6.304   4.821  15.523 -0.1645  0.5883  0.2262
19467TIP3    H179892   6.288   4.729  15.539 -0.2571  0.4697 -0.5135
19467TIP3    H279893   6.235   4.847  15.462 -0.6553  1.3561  1.0956
19468TIP3   OH279894   0.875   5.309   0.231 -0.0174  0.6261 -0.4047
19468TIP3    H179895   0.813   5.358   0.285 -0.2243  1.9080 -1.7549
19468TIP3    H279896   0.843   5.219   0.231 -0.2920  0.7210  1.1837
19469TIP3   OH279897   3.390   1.278  15.638  0.5491  0.1260  0.8586
19469TIP3    H179898   3.340   1.266  15.719 -1.8744  2.0221 -0.2895
19469TIP3    H279899   3.343   1.228  15.573  2.4818 -1.3746  0.5756
19470TIP3   OH279900   0.639   0.904  14.988  0.0278  0.4830 -0.0901
19470TIP3    H179901   0.644   0.973  14.923  0.4018 -0.1902 -0.7911
19470TIP3    H279902   0.550   0.871  14.982  0.1157  0.2976 -0.3983
19471TIP3   OH279903   4.874   4.584  11.980  0.1659  0.0810 -0.3245
19471TIP3    H179904   4.855   4.515  12.043 -0.3308  0.3490 -0.1832
19471TIP3    H279905   4.801   4.581  11.918  0.3307  0.2370 -0.5270
19472TIP3   OH279906   4.813   6.663   2.129  0.1861 -0.6702  0.1433
19472TIP3    H179907   4.804   6.741   2.073 -0.1645  0.1990  1.3839
19472TIP3    H279908   4.841   6.698   2.214  3.1064 -2.2002 -0.1579
19473TIP3   OH279909   5.317   2.222  11.266 -0.1023  0.3613 -0.2780
19473TIP3    H179910   5.374   2.149  11.240 -2.0626 -0.5633 -2.1962
19473TIP3    H279911   5.228   2.185  11.263 -1.0260  2.4918 -0.0091
19474TIP3   OH279912   4.284   4.926   1.959 -0.0872 -1.2258  0.1439
19474TIP3    H179913   4.250   4.883   1.881  0.9992  1.2167 -1.7378
19474TIP3    H279914   4.264   5.019   1.947 -0.5600 -0.8808  3.1340
19475TIP3   OH279915   4.365   3.040   0.978 -0.6423  0.5786  0.0774
19475TIP3    H179916   4.395   3.048   0.887  0.7749 -0.2414  0.4595
19475TIP3    H279917   4.344   2.948   0.988  3.0721 -0.1906  1.7067
19476TIP3   OH279918   1.949   5.422  16.254  0.3144 -0.2965 -0.0110
19476TIP3    H179919   2.007   5.488  16.216 -0.9291 -0.2144 -1.8703
19476TIP3    H279920   1.924   5.367  16.179 -0.8956 -1.1409  0.9957
19477TIP3   OH279921   1.183   3.295  16.872 -0.0681 -0.3306 -0.2248
19477TIP3    H179922   1.162   3.330  16.959 -1.1862 -0.3578 -0.4709
19477TIP3    H279923   1.250   3.355  16.838  0.4923 -0.4055  0.7055
19478TIP3   OH279924   1.007   1.970   6.074  0.8189  0.1697  0.1234
19478TIP3    H179925   1.074   1.985   6.007  0.1960  0.2841 -0.4860
19478TIP3    H279926   1.030   1.885   6.112  0.4237 -0.5375 -1.1633
19479TIP3   OH279927   0.899   2.879   1.632  0.4930 -0.4938  0.0781
19479TIP3    H179928   0.968   2.828   1.674  0.6349 -0.4073 -0.0488
19479TIP3    H279929   0.946   2.947   1.583  0.2797  0.1649  0.7890
19480TIP3   OH279930   1.486   5.036  13.967 -0.7654 -0.0133  0.8682
19480TIP3    H179931   1.551   5.058  13.901  0.6574 -1.3083  1.7834
19480TIP3    H279932   1.419   4.986  13.920 -0.0573 -0.4214  0.2911
19481TIP3   OH279933   3.842   6.585   2.220  0.1567 -0.0906  0.1285
19481TIP3    H179934   3.762   6.569   2.170 -0.1043 -1.9933  1.0836
19481TIP3    H279935   3.856   6.679   2.215 -1.8388  0.1892 -0.5105
19482TIP3   OH279936   6.180   3.039   4.774  0.6821  0.4260 -0.0204
19482TIP3    H179937   6.186   3.128   4.739  1.9855  0.9231  1.3692
19482TIP3    H279938   6.235   2.986   4.716 -0.7936  0.3377 -1.3642
19483TIP3   OH279939   1.653   5.831   3.434  0.1902  0.4072  0.0517
19483TIP3    H179940   1.558   5.822   3.433  0.1610  0.7769 -0.4914
19483TIP3    H279941   1.668   5.916   3.476  0.3087  0.0488  0.7533
19484TIP3   OH279942   3.939   6.609   1.371  0.0147 -0.3541  0.2441
19484TIP3    H179943   3.906   6.583   1.457  2.6906 -1.6258  0.9391
19484TIP3    H279944   3.950   6.704   1.377 -3.7219  0.1843 -0.1403
19485TIP3   OH279945   1.595   3.647  13.665 -0.1660  0.0784  0.2114
19485TIP3    H179946   1.591   3.738  13.637  1.6302 -0.3393 -1.5021
19485TIP3    H279947   1.672   3.642  13.722  0.1743 -0.5003 -0.2863
19486TIP3   OH279948   1.191   0.242   5.035 -0.3972  0.0339 -0.5161
19486TIP3    H179949   1.103   0.237   4.997 -0.2717 -1.7246 -0.5902
19486TIP3    H279950   1.211   0.153   5.063  1.6294  0.2838 -1.0922
19487TIP3   OH279951   2.538   0.713   5.684  0.4932 -0.3885  0.2476
19487TIP3    H179952   2.516   0.680   5.597  1.0485  0.5731 -0.2603
19487TIP3    H279953   2.470   0.777   5.703  0.2332 -0.7759  0.6297
19488TIP3   OH279954   3.583   4.680   1.774 -0.2378  0.3556  0.0051
19488TIP3    H179955   3.607   4.708   1.686  0.3589  0.0572  0.0642
19488TIP3    H279956   3.662   4.697   1.827 -0.3999  0.0153  0.3592
19489TIP3   OH279957   0.886   5.659   4.385 -0.1071 -0.5297 -0.1082
19489TIP3    H179958   0.975   5.669   4.420 -0.2221 -0.2080  0.0999
19489TIP3    H279959   0.885   5.713   4.306  0.0522 -0.9885 -0.4238
19490TIP3   OH279960   1.754   2.481   2.653 -0.1319  0.4518 -0.2268
19490TIP3    H179961   1.846   2.494   2.673 -0.4870 -0.2749  1.9756
19490TIP3    H279962   1.713   2.566   2.671  0.1018  0.7713 -1.1967
19491TIP3   OH279963   0.094   5.572   2.786 -0.2111 -0.4212  0.1375
19491TIP3    H179964   0.029   5.518   2.740  0.7149 -2.8526  1.5906
19491TIP3    H279965   0.052   5.593   2.869 -1.3438  2.8313 -1.1748
19492TIP3   OH279966   4.297   1.563  14.927 -0.1528  0.8881 -0.1811
19492TIP3    H179967   4.296   1.470  14.951 -0.6701  1.1894  1.0472
19492TIP3    H279968   4.387   1.581  14.902 -0.0220  0.0756 -0.3062
19493TIP3   OH279969   2.804   5.259   3.247  0.5764 -0.4094  0.5993
19493TIP3    H179970   2.801   5.312   3.168  0.8667 -0.5403  0.5009
19493TIP3    H279971   2.719   5.274   3.289  1.3537  1.5670  1.5176
19494TIP3   OH279972   5.087   4.533  14.581  0.0629 -0.3785  0.1205
19494TIP3    H179973   5.016   4.593  14.559 -0.1973 -0.2450  1.2855
19494TIP3    H279974   5.165   4.572  14.541 -0.0719  0.8453  1.0183
19495TIP3   OH279975   5.975   1.261   1.655  0.5947  0.4136  0.3352
19495TIP3    H179976   6.002   1.317   1.728 -0.1951  1.3208 -0.0525
19495TIP3    H279977   5.900   1.212   1.689 -0.0235  1.1296  0.0096
19496TIP3   OH279978   4.200   5.945   2.226 -0.1660  0.0900  0.1533
19496TIP3    H179979   4.153   5.862   2.236 -0.4095  0.1166 -0.6883
19496TIP3    H279980   4.291   5.920   2.213 -0.3442 -0.0832 -0.8002
19497TIP3   OH279981   4.508   3.052   1.212  0.2403 -0.7198 -0.4002
19497TIP3    H179982   4.454   3.067   1.135  0.5884  2.1901 -0.1461
19497TIP3    H279983   4.585   3.006   1.179 -0.3215 -0.8845 -1.5131
19498TIP3   OH279984   4.718   2.518  17.061  0.4294  0.2138  0.4806
19498TIP3    H179985   4.781   2.458  17.100 -0.0081 -0.0515  0.7760
19498TIP3    H279986   4.653   2.532  17.129 -0.6634 -0.7261 -0.3523
19499TIP3   OH279987   5.161   3.225   5.029  0.6396 -0.4950  0.0497
19499TIP3    H179988   5.188   3.193   5.114 -0.3777 -1.3853  0.0403
19499TIP3    H279989   5.230   3.287   5.004  0.6541  0.1925  1.7497
19500TIP3   OH279990   3.366   5.667   0.701 -0.0655 -0.2452 -0.2561
19500TIP3    H179991   3.288   5.653   0.755 -0.1239 -1.2541 -0.5849
19500TIP3    H279992   3.439   5.642   0.757  0.0967  1.5661  0.3586
19501TIP3   OH279993   4.580   0.294  10.903 -0.1955  0.1339  0.0646
19501TIP3    H179994   4.492   0.323  10.880 -0.3313  2.1593  2.9941
19501TIP3    H279995   4.567   0.222  10.965  0.2317 -1.2784 -1.4372
19502TIP3   OH279996   0.536   5.469   3.324 -0.2831 -0.1625  0.4515
19502TIP3    H179997   0.518   5.409   3.251 -1.2035 -0.6774  1.0835
19502TIP3    H279998   0.625   5.499   3.309 -0.0505 -1.1751 -0.2485
19503TIP3   OH279999   6.229   2.583  13.864  0.1527  0.2458  0.3221
19503TIP3    H180000   6.299   2.644  13.887 -0.4125  0.5304  1.3278
19503TIP3    H280001   6.160   2.600  13.929 -0.9663  0.1746 -0.8100
19504TIP3   OH280002   3.327   2.413   0.918  0.1552  0.2286  0.0206
19504TIP3    H180003   3.248   2.360   0.925  0.6738 -0.4021  1.4067
19504TIP3    H280004   3.296   2.503   0.925 -0.5348  0.0166 -0.3514
19505TIP3   OH280005   3.374   1.110   4.869 -0.9672 -0.2805  0.0093
19505TIP3    H180006   3.436   1.040   4.886 -1.1467 -0.3711  0.2954
19505TIP3    H280007   3.398   1.143   4.782  0.2245  0.4676  0.6199
19506TIP3   OH280008   1.159   5.261   6.019  0.3077  0.4912 -0.1835
19506TIP3    H180009   1.206   5.303   6.092  0.1552  0.9082 -0.3218
19506TIP3    H280010   1.071   5.297   6.025  0.5724  1.3364 -1.2134
19507TIP3   OH280011   0.431   6.398   2.283  0.8147 -0.0519  0.4179
19507TIP3    H180012   0.433   6.433   2.372  0.6641 -0.5570  0.6280
19507TIP3    H280013   0.376   6.459   2.234  0.7492  0.1295  0.7181
19508TIP3   OH280014   0.078   5.290   1.493 -0.2792 -0.0060 -0.3597
19508TIP3    H180015   0.083   5.201   1.527 -2.5490 -0.4808 -1.1796
19508TIP3    H280016   0.137   5.341   1.550 -1.4237 -1.4036  2.1599
19509TIP3   OH280017   1.224   2.146  15.358  0.3993 -0.0754 -0.2322
19509TIP3    H180018   1.218   2.133  15.453 -1.6730 -2.9339 -0.6965
19509TIP3    H280019   1.270   2.068  15.326  2.3777  1.5384 -1.4736
19510TIP3   OH280020   4.913   3.432   1.522  0.3473  0.6898  0.0295
19510TIP3    H180021   4.878   3.483   1.594 -0.8162  0.3627 -0.2949
19510TIP3    H280022   4.876   3.473   1.443  1.4690  0.9443 -0.3691
19511TIP3   OH280023   4.985   5.676   3.936  0.2335 -0.3504 -0.2274
19511TIP3    H180024   5.072   5.637   3.940  0.1430 -0.3908  1.9942
19511TIP3    H280025   4.985   5.743   4.004 -1.7326 -0.9512  0.4137
19512TIP3   OH280026   1.962   0.758   5.005 -0.0320 -0.0256 -0.3344
19512TIP3    H180027   1.993   0.696   5.071  1.1140 -0.0463 -0.8823
19512TIP3    H280028   1.977   0.844   5.045 -3.2601 -0.0906  1.1611
19513TIP3   OH280029   5.128   2.379  11.450  0.8054  0.1869 -0.3364
19513TIP3    H180030   5.106   2.318  11.381 -0.9585 -1.4846  1.6463
19513TIP3    H280031   5.127   2.327  11.530  2.8317  2.0551  0.9719
19514TIP3   OH280032   5.046   4.623   1.773  0.0325  0.3126 -0.4858
19514TIP3    H180033   4.977   4.569   1.811 -2.4691 -0.3788 -5.4761
19514TIP3    H280034   5.006   4.709   1.761  1.2011  0.9073 -0.2184
19515TIP3   OH280035   5.332   6.773   0.412  0.2478  0.2972  0.2753
19515TIP3    H180036   5.367   6.722   0.485  0.4689  2.1648  1.5395
19515TIP3    H280037   5.256   6.818   0.449 -1.3924 -0.9736 -1.4683
19516TIP3   OH280038   1.457   4.671  11.313 -0.1840  0.4629  0.1864
19516TIP3    H180039   1.518   4.738  11.346 -1.4062  1.4835  0.4029
19516TIP3    H280040   1.453   4.606  11.383  0.3935  0.5539  0.3101
19517TIP3   OH280041   5.977   1.922  16.666  0.1243 -0.2268 -0.5498
19517TIP3    H180042   6.035   1.855  16.628 -0.4410 -0.6447 -0.6867
19517TIP3    H280043   6.036   1.991  16.696  0.7805 -1.2020  0.4303
19518TIP3   OH280044   3.856   6.381  16.610 -0.3424 -0.4251  0.0718
19518TIP3    H180045   3.911   6.422  16.677 -2.2818 -0.6053  1.8191
19518TIP3    H280046   3.917   6.360  16.539  1.4475  1.4001  1.0075
19519TIP3   OH280047   3.066   4.916   5.260  0.2359 -0.7635  0.2593
19519TIP3    H180048   3.088   4.894   5.351  0.7364  0.4775  0.4556
19519TIP3    H280049   3.150   4.928   5.217  0.0123  0.9701  0.2453
19520TIP3   OH280050   5.513   6.266  16.561 -0.5507 -0.8533  0.2803
19520TIP3    H180051   5.495   6.312  16.478  0.4680 -1.5289 -0.3336
19520TIP3    H280052   5.578   6.322  16.605 -1.7232 -0.0626  1.0193
19521TIP3   OH280053   6.672   0.068   4.988 -0.4378 -0.2472  0.1676
19521TIP3    H180054   6.767   0.081   4.988 -0.3481 -0.7927 -1.0528
19521TIP3    H280055   6.656   0.010   4.913 -1.7577  0.0254  0.2273
19522TIP3   OH280056   3.511   2.390  12.518  0.5597  0.3859  1.5151
19522TIP3    H180057   3.453   2.419  12.589 -1.4698 -2.3270  1.0284
19522TIP3    H280058   3.452   2.361  12.450  2.5102  1.8104 -0.8714
19523TIP3   OH280059   2.969   5.665  12.844 -0.1903  0.1976 -0.0402
19523TIP3    H180060   2.971   5.576  12.809  2.1390  0.4865 -0.7525
19523TIP3    H280061   2.901   5.709  12.794 -0.6809 -0.9042 -0.3653
19524TIP3   OH280062   0.025   1.316  10.946 -0.1800 -0.2303 -0.1024
19524TIP3    H180063   0.060   1.359  11.025  0.5377 -0.5183 -0.2617
19524TIP3    H280064   0.102   1.281  10.902 -0.7022 -1.0851 -0.3376
19525TIP3   OH280065   3.620   4.871  14.030  0.8943 -0.0875  0.2318
19525TIP3    H180066   3.649   4.914  13.949 -0.9336  2.5645  0.9180
19525TIP3    H280067   3.544   4.819  14.003  1.0245 -0.1592  0.0045
19526TIP3   OH280068   3.964   1.207   3.429 -0.0176  0.1216 -0.5036
19526TIP3    H180069   4.038   1.244   3.381  0.9682 -1.2582 -0.0616
19526TIP3    H280070   3.950   1.268   3.502  1.2960 -0.1163 -0.0380
19527TIP3   OH280071   5.732   6.464  13.914  0.2588 -0.0771 -0.4339
19527TIP3    H180072   5.779   6.400  13.966 -0.5182  0.1395  0.5555
19527TIP3    H280073   5.756   6.444  13.823  1.6616 -0.4196  0.0076
19528TIP3   OH280074   6.798   6.557  17.250  0.3365  0.4165  0.3183
19528TIP3    H180075   6.863   6.620  17.282  2.1409 -0.9477 -0.6249
19528TIP3    H280076   6.814   6.551  17.156 -2.0523  1.0727 -0.1463
19529TIP3   OH280077   0.587   3.715   1.460  0.0843 -0.1779  0.1907
19529TIP3    H180078   0.547   3.628   1.460 -0.7216  0.1849  0.2047
19529TIP3    H280079   0.541   3.762   1.391  2.2329 -0.5277 -1.5517
19530TIP3   OH280080   4.505   3.686  12.557  0.3817  0.3666  0.1513
19530TIP3    H180081   4.467   3.719  12.476 -0.4198  1.0320  0.7869
19530TIP3    H280082   4.441   3.622  12.589  0.3573  0.6177  0.6141
19531TIP3   OH280083   4.044   6.277  14.943  0.1948  0.5805 -0.3567
19531TIP3    H180084   3.961   6.295  14.900  0.2347  0.9006 -0.2998
19531TIP3    H280085   4.020   6.238  15.027  0.1184 -0.1227 -0.7016
19532TIP3   OH280086   2.619   0.187  16.118 -0.4218 -0.1299  0.2290
19532TIP3    H180087   2.662   0.245  16.180 -0.1241  1.6904 -1.6173
19532TIP3    H280088   2.667   0.105  16.123  1.4977  0.9814  0.2307
19533TIP3   OH280089   6.482   4.942  14.410  0.2967  0.3925  0.1414
19533TIP3    H180090   6.424   4.875  14.375 -0.6843 -0.5067  3.3690
19533TIP3    H280091   6.471   5.017  14.351 -0.2733 -1.4917 -2.1992
19534TIP3   OH280092   5.005   2.547  15.219  0.1694  0.3696 -0.1130
19534TIP3    H180093   5.021   2.455  15.200  0.6733  0.1604  1.2210
19534TIP3    H280094   4.917   2.564  15.184  0.9008 -0.0531 -2.2095
19535TIP3   OH280095   5.484   3.489  15.128 -0.5275  0.1067 -0.2963
19535TIP3    H180096   5.417   3.421  15.127  0.7183 -1.1500  0.5909
19535TIP3    H280097   5.439   3.568  15.098 -1.4955 -1.5576 -3.4939
19536TIP3   OH280098   5.562   2.922  15.439  0.3755  0.4382 -0.2252
19536TIP3    H180099   5.591   2.831  15.430 -2.0371 -0.2720 -1.1430
19536TIP3    H280100   5.640   2.968  15.472  1.3652 -2.1288  1.2571
19537TIP3   OH280101   5.742   5.263  16.577 -0.4300  0.2187 -0.0247
19537TIP3    H180102   5.746   5.235  16.486 -0.9712 -2.3517  0.6943
19537TIP3    H280103   5.832   5.290  16.598  0.3603 -1.9317 -0.5095
19538TIP3   OH280104   2.226   4.589  17.006  0.4945 -0.5524  0.2418
19538TIP3    H180105   2.235   4.524  16.937 -0.2635 -0.6629  0.2487
19538TIP3    H280106   2.306   4.580  17.058  1.8486  0.6333 -1.5494
19539TIP3   OH280107   0.751   4.364   1.923 -0.0656  0.5943 -0.3404
19539TIP3    H180108   0.840   4.342   1.953  0.6381 -0.1760 -2.8537
19539TIP3    H280109   0.706   4.279   1.919  0.2255  0.5126 -2.5153
19540TIP3   OH280110   0.933   1.249   2.281  0.0869 -0.4403 -0.4859
19540TIP3    H180111   0.938   1.164   2.238 -0.2748 -1.0386  0.6360
19540TIP3    H280112   0.872   1.299   2.226  1.1099 -0.5332 -1.7402
19541TIP3   OH280113   2.591   2.962   3.375 -0.1756 -0.6088  0.3479
19541TIP3    H180114   2.610   2.904   3.300  1.2281  1.1210 -0.6708
19541TIP3    H280115   2.548   3.038   3.336 -1.0279 -0.4705  1.5498
19542TIP3   OH280116   0.021   1.708   0.589  1.0361 -0.1199  0.4400
19542TIP3    H180117  -0.007   1.798   0.572  1.6772 -0.3499 -2.0180
19542TIP3    H280118  -0.054   1.655   0.563  1.0093 -0.3546  0.9941
19543TIP3   OH280119   4.189   4.542   1.921  0.0757 -0.3048 -0.3144
19543TIP3    H180120   4.278   4.518   1.894 -0.2500 -1.5006 -0.3516
19543TIP3    H280121   4.133   4.479   1.877 -0.7861  0.3044 -0.1036
19544TIP3   OH280122   1.320   5.998   5.082 -0.8075 -0.4168  0.0203
19544TIP3    H180123   1.345   6.071   5.138  1.3765 -0.8649 -0.3129
19544TIP3    H280124   1.323   5.921   5.139 -0.6039 -0.5857 -0.2125
19545TIP3   OH280125   1.935   0.931  13.643 -0.3489 -0.2052  0.6712
19545TIP3    H180126   1.904   0.849  13.682 -0.3700 -0.5970 -0.1650
19545TIP3    H280127   1.857   0.987  13.640 -0.1964  0.0935  1.8475
19546TIP3   OH280128   2.808   1.531   6.688  0.1362  0.0134 -0.8546
19546TIP3    H180129   2.802   1.537   6.783 -0.2057 -0.7605 -0.8218
19546TIP3    H280130   2.755   1.454   6.665 -0.0743  0.4000 -1.6986
19547TIP3   OH280131   6.590   2.598   3.654 -0.2369  0.6561  0.0836
19547TIP3    H180132   6.645   2.583   3.731  0.5293  1.2145 -0.3537
19547TIP3    H280133   6.508   2.633   3.690 -0.2858 -0.0783  0.7231
19548TIP3   OH280134   0.643   2.256  14.451  0.0718  0.2096 -0.0836
19548TIP3    H180135   0.722   2.209  14.475 -0.8962 -0.5320  1.7577
19548TIP3    H280136   0.594   2.194  14.397  0.5369  0.5007 -0.8393
19549TIP3   OH280137   3.679   5.095  16.701 -0.0383  0.3736 -0.1535
19549TIP3    H180138   3.760   5.119  16.745  1.2352  0.2706 -2.3788
19549TIP3    H280139   3.637   5.031  16.760  2.4854 -1.1134  0.0801
19550TIP3   OH280140   0.670   5.135  17.250  0.7786 -0.4135 -0.0310
19550TIP3    H180141   0.664   5.219  17.204  1.3011 -0.3017  0.0998
19550TIP3    H280142   0.579   5.113  17.272  0.6539  0.1953  0.0729
19551TIP3   OH280143   4.516   5.647  13.645 -0.1647 -0.2275 -0.2504
19551TIP3    H180144   4.557   5.590  13.710 -0.0459 -2.1049 -1.8954
19551TIP3    H280145   4.573   5.723  13.639  1.2286 -1.2453 -0.0350
19552TIP3   OH280146   6.666   4.031  15.698 -0.1536 -0.5486  0.8395
19552TIP3    H180147   6.593   4.080  15.659  0.7801 -0.0448 -0.2886
19552TIP3    H280148   6.690   3.967  15.631 -0.6150 -1.8096  1.8575
19553TIP3   OH280149   0.267   0.255   2.077  0.0057  0.0167 -0.3510
19553TIP3    H180150   0.181   0.222   2.104 -0.0458 -0.7170 -1.4050
19553TIP3    H280151   0.256   0.350   2.072 -0.4733  0.0093  0.4472
19554TIP3   OH280152   0.623   6.310  17.044  0.0801 -0.5282 -0.0825
19554TIP3    H180153   0.668   6.375  17.099 -1.0437 -0.0041  0.2191
19554TIP3    H280154   0.650   6.226  17.081  1.8630 -0.2634 -0.7198
19555TIP3   OH280155   2.202   1.459   4.623 -0.2707  0.6827  0.1196
19555TIP3    H180156   2.147   1.419   4.555  1.8017  0.9832 -1.8133
19555TIP3    H280157   2.264   1.390   4.647 -1.6491  0.2425  2.4983
19556TIP3   OH280158   4.466   6.073  16.365 -0.2102  0.5556 -0.6235
19556TIP3    H180159   4.422   6.052  16.282 -1.4149  0.2120  0.0904
19556TIP3    H280160   4.417   6.023  16.431  1.9353 -0.6880  0.0601
19557TIP3   OH280161   0.702   4.773   2.285 -1.1104 -0.1143 -0.6973
19557TIP3    H180162   0.658   4.706   2.337  1.1269 -0.2923  1.0329
19557TIP3    H280163   0.750   4.724   2.218 -0.2738 -0.1993 -0.0453
19558TIP3   OH280164   3.739   0.708   3.404 -0.0747 -0.3992  0.4926
19558TIP3    H180165   3.701   0.711   3.491 -1.5964 -2.3037 -0.0854
19558TIP3    H280166   3.705   0.628   3.365  0.0889  0.7136 -2.0689
19559TIP3   OH280167   3.147   5.198   1.835  0.7265  0.0490 -0.1083
19559TIP3    H180168   3.220   5.195   1.898 -0.0055 -0.5214  0.7156
19559TIP3    H280169   3.085   5.259   1.874 -0.2315 -1.1563  0.2741
19560TIP3   OH280170   5.610   1.602   1.443 -0.2230  0.8112  0.8099
19560TIP3    H180171   5.651   1.684   1.416  0.3801  0.2058 -0.1246
19560TIP3    H280172   5.683   1.542   1.457 -0.7774 -0.3031 -0.9463
19561TIP3   OH280173   1.858   5.513   2.229  0.1587 -0.2553 -0.3379
19561TIP3    H180174   1.938   5.552   2.265 -0.0370 -0.4986  0.3661
19561TIP3    H280175   1.797   5.586   2.222  0.0014 -0.3144  0.3864
19562TIP3   OH280176   2.822   1.087  12.988  0.1987 -1.0368  0.3958
19562TIP3    H180177   2.896   1.071  13.047  0.4564  0.3599  0.4896
19562TIP3    H280178   2.859   1.141  12.917 -0.0488 -2.9130 -1.1915
19563TIP3   OH280179   5.271   6.075  14.900 -0.4107 -0.1696 -0.4946
19563TIP3    H180180   5.348   6.035  14.939  0.1182 -0.7203 -2.0399
19563TIP3    H280181   5.259   6.157  14.946  0.6497 -0.4425  0.2709
19564TIP3   OH280182   2.730   1.830   1.064  0.4809  0.0303  0.7140
19564TIP3    H180183   2.726   1.788   0.978 -0.2305 -1.1888  1.3096
19564TIP3    H280184   2.651   1.885   1.067  1.5032  1.5774 -0.1343
19565TIP3   OH280185   0.001   3.280   4.854 -0.0164 -0.2526  0.7989
19565TIP3    H180186  -0.051   3.238   4.786  1.8760 -2.2921  0.5250
19565TIP3    H280187   0.092   3.266   4.827  0.7107  1.8320  2.0542
19566TIP3   OH280188   4.590   3.201  15.834 -0.4520 -0.1859 -0.0117
19566TIP3    H180189   4.568   3.197  15.741 -0.7898  0.5240  0.0334
19566TIP3    H280190   4.682   3.224  15.836 -0.4574 -0.1515 -0.1654
19567TIP3   OH280191   4.535   3.194   4.872  0.0360 -0.1876  0.9590
19567TIP3    H180192   4.554   3.218   4.963 -0.7758  0.8076  0.8659
19567TIP3    H280193   4.441   3.206   4.862  0.0565 -0.6723  0.0922
19568TIP3   OH280194   0.406   1.093   5.315 -0.1128  0.5581 -0.5319
19568TIP3    H180195   0.447   1.177   5.297 -0.8215  0.8363 -0.8779
19568TIP3    H280196   0.430   1.073   5.406  1.3374  0.3841 -0.9494
19569TIP3   OH280197   1.701   5.099   1.833  0.2261 -0.7880  0.3690
19569TIP3    H180198   1.724   5.138   1.748  0.0155 -0.0927  0.6256
19569TIP3    H280199   1.777   5.117   1.888 -0.6207  0.9197  1.0266
19570TIP3   OH280200   1.521   4.376   3.565  0.0322 -0.6896  0.4232
19570TIP3    H180201   1.504   4.294   3.517 -1.4061  0.6567 -1.4381
19570TIP3    H280202   1.611   4.398   3.544 -0.2084 -0.7499 -0.7312
19571TIP3   OH280203   0.291   3.403   3.264  0.7575 -0.1058 -0.2291
19571TIP3    H180204   0.209   3.418   3.218  0.5928  1.3673  0.5170
19571TIP3    H280205   0.358   3.410   3.196  0.3855  0.3388 -0.5527
19572TIP3   OH280206   5.525   4.175  16.441  0.3403 -0.2416 -0.2380
19572TIP3    H180207   5.488   4.108  16.499  1.9309 -1.6183 -0.7944
19572TIP3    H280208   5.461   4.182  16.370  0.2872 -1.3648 -0.3100
19573TIP3   OH280209   0.713   2.976   1.862  0.3026  0.0482 -0.5311
19573TIP3    H180210   0.757   2.906   1.813 -0.4843 -2.1207  1.7615
19573TIP3    H280211   0.630   2.990   1.816  0.3357 -0.7446 -0.8331
19574TIP3   OH280212   1.403   1.258  12.823  0.0742 -0.0454 -0.1753
19574TIP3    H180213   1.373   1.324  12.885 -0.6348 -0.5449  0.0163
19574TIP3    H280214   1.477   1.216  12.867 -0.4353 -0.4050  0.3445
19575TIP3   OH280215   3.392   1.815  15.638  0.4574 -0.6473 -0.3229
19575TIP3    H180216   3.421   1.740  15.689  0.8660 -0.8647 -0.8671
19575TIP3    H280217   3.384   1.782  15.549  0.6444 -0.0485 -0.5685
19576TIP3   OH280218   2.609   6.141  15.095 -0.0094 -0.1119 -0.1629
19576TIP3    H180219   2.557   6.089  15.033 -0.5659 -0.7804  0.8474
19576TIP3    H280220   2.581   6.231  15.080 -0.3054 -0.2908 -0.7321
19577TIP3   OH280221   3.572   6.035   3.698  0.4077 -0.7409 -0.2454
19577TIP3    H180222   3.666   6.022   3.707  0.7380  1.0981 -0.8563
19577TIP3    H280223   3.560   6.057   3.605 -0.3997  0.6924  0.1838
19578TIP3   OH280224   1.128   2.349  12.234 -0.2886  0.4512 -0.4320
19578TIP3    H180225   1.126   2.370  12.141  0.0994  0.1287 -0.5134
19578TIP3    H280226   1.216   2.373  12.262 -0.4870  0.7899 -0.0901
19579TIP3   OH280227   6.038   0.861   1.793 -0.1202  0.2835  0.1290
19579TIP3    H180228   6.119   0.811   1.784 -0.6801 -0.4279 -0.9769
19579TIP3    H280229   6.048   0.934   1.733 -0.9776 -0.7026 -1.2257
19580TIP3   OH280230   6.690   5.915   3.966  0.2643  0.1690  0.1710
19580TIP3    H180231   6.780   5.900   3.996  0.4813  0.0368 -0.5458
19580TIP3    H280232   6.656   5.983   4.025  1.2963  1.2373 -0.4326
19581TIP3   OH280233   5.616   2.128   0.549  0.0568  0.0331 -0.5070
19581TIP3    H180234   5.601   2.035   0.569 -1.1588  0.2347 -0.4548
19581TIP3    H280235   5.573   2.175   0.620  1.4330  0.6402 -0.0424
19582TIP3   OH280236   6.194   4.748  15.997  0.2312 -0.1041 -0.5828
19582TIP3    H180237   6.238   4.734  15.913  0.9025 -1.9697  0.0609
19582TIP3    H280238   6.265   4.749  16.061 -0.3424  0.6285  0.0501
19583TIP3   OH280239   2.408   6.314  14.520 -0.4580  0.2460  0.5608
19583TIP3    H180240   2.352   6.239  14.543 -0.1044 -0.5663 -1.1516
19583TIP3    H280241   2.369   6.388  14.566 -1.8878 -0.6476  0.8292
19584TIP3   OH280242   0.679   0.712   1.216 -0.1473 -0.4437 -0.1201
19584TIP3    H180243   0.676   0.682   1.307 -1.0986  1.3045  0.4561
19584TIP3    H280244   0.772   0.722   1.197  0.0074  1.2607  1.4008
19585TIP3   OH280245   0.857   4.562  15.581  0.7733  0.5940 -0.0220
19585TIP3    H180246   0.909   4.581  15.502 -1.2878 -1.6995 -2.0270
19585TIP3    H280247   0.915   4.584  15.654  3.3470  1.2532 -2.1756
19586TIP3   OH280248   1.660   2.708  16.327  0.1719  0.0276 -0.0483
19586TIP3    H180249   1.595   2.753  16.272 -1.3814 -0.7293  1.1393
19586TIP3    H280250   1.656   2.616  16.299  1.0569  0.0549 -0.2807
19587TIP3   OH280251   6.239   5.468  11.358  0.3490  0.1615 -0.8774
19587TIP3    H180252   6.241   5.508  11.445 -0.9227  2.5556 -1.8661
19587TIP3    H280253   6.302   5.519  11.307 -2.3219  1.9987 -2.5378
19588TIP3   OH280254   0.771   0.244  11.114 -0.4257 -0.5343 -0.1134
19588TIP3    H180255   0.804   0.260  11.026 -0.7837  1.6568  0.1002
19588TIP3    H280256   0.846   0.259  11.172 -1.1547  2.1739  0.2082
19589TIP3   OH280257   3.424   0.449  15.677  0.0241 -0.8267 -0.1709
19589TIP3    H180258   3.455   0.418  15.592 -0.5621 -0.3014 -0.5790
19589TIP3    H280259   3.500   0.443  15.734  0.8495  0.3656 -1.1457
19590TIP3   OH280260   3.222   0.396   1.394  0.3314 -0.2644  0.1199
19590TIP3    H180261   3.248   0.423   1.306 -0.6280  1.6985  0.4058
19590TIP3    H280262   3.243   0.303   1.398 -0.9128 -0.7110 -2.6485
19591TIP3   OH280263   1.309   1.942  14.051  0.1455 -0.0070 -0.1082
19591TIP3    H180264   1.255   1.918  14.126 -0.5545 -2.2032 -1.2733
19591TIP3    H280265   1.258   2.009  14.006  0.3126  0.9112  1.0508
19592TIP3   OH280266   5.371   0.307   1.601 -0.0083  0.3194  0.2173
19592TIP3    H180267   5.300   0.243   1.593  0.4442 -0.3290  1.3576
19592TIP3    H280268   5.407   0.293   1.689 -0.1386  2.3818  0.6298
19593TIP3   OH280269   2.447   4.030  15.754  0.3728  0.3730 -0.4406
19593TIP3    H180270   2.460   4.075  15.671  3.5297  1.6509  0.6415
19593TIP3    H280271   2.502   3.952  15.749 -0.2461 -0.0988  0.0272
19594TIP3   OH280272   4.432   6.285  15.148 -0.0152  0.0083 -0.4576
19594TIP3    H180273   4.482   6.242  15.079  0.0742 -1.2961  0.4008
19594TIP3    H280274   4.498   6.311  15.212 -0.3484 -1.1988  0.4006
19595TIP3   OH280275   1.708   3.290  11.764 -0.4263  0.3343 -0.2491
19595TIP3    H180276   1.796   3.269  11.794 -0.1650  1.3873 -0.2792
19595TIP3    H280277   1.678   3.210  11.721  0.4650 -0.0695 -0.1284
19596TIP3   OH280278   5.542   1.547  14.728 -0.0021 -0.8153  0.3806
19596TIP3    H180279   5.557   1.454  14.748  2.9577 -0.4437  0.0269
19596TIP3    H280280   5.596   1.595  14.790 -0.0313  0.6264 -0.6699
19597TIP3   OH280281   0.091   2.559   0.840 -0.5775  0.5296  0.3962
19597TIP3    H180282   0.058   2.623   0.777  1.4106  2.0947  0.8858
19597TIP3    H280283   0.086   2.605   0.924 -0.8027 -0.6154  1.0175
19598TIP3   OH280284   3.034   4.755   2.867  0.3570  0.1909  0.2085
19598TIP3    H180285   3.107   4.771   2.808 -0.8497  0.3832 -1.2626
19598TIP3    H280286   3.034   4.661   2.880 -1.0941 -0.2212 -2.4215
19599TIP3   OH280287   6.498   4.507  16.453  0.1013  0.2776 -0.2654
19599TIP3    H180288   6.452   4.492  16.536  1.9752  0.6804  0.8628
19599TIP3    H280289   6.447   4.576  16.410  0.1925  1.4381  1.4222
19600TIP3   OH280290   3.538   5.474   4.871 -0.4594  0.4236 -0.8647
19600TIP3    H180291   3.563   5.451   4.961  2.0413 -0.0635 -1.6290
19600TIP3    H280292   3.445   5.496   4.876 -0.5501 -0.4028  1.6850
19601TIP3   OH280293   0.917   6.794   1.738 -0.3126 -0.2687  0.1727
19601TIP3    H180294   0.971   6.789   1.659 -0.7421  0.8396 -0.2038
19601TIP3    H280295   0.863   6.715   1.736  0.1831 -0.5966 -0.2668
19602TIP3   OH280296   5.384   0.474   4.599  0.4690  0.1324  0.3702
19602TIP3    H180297   5.407   0.407   4.535  0.2832  0.8214 -0.4293
19602TIP3    H280298   5.306   0.515   4.563  0.2933  0.4465  1.1039
19603TIP3   OH280299   2.396   2.999  10.687  0.1403  0.6157 -0.5416
19603TIP3    H180300   2.415   2.937  10.758 -1.9330  0.4557 -0.1057
19603TIP3    H280301   2.313   3.039  10.712  0.7666  2.5780 -1.5168
19604TIP3   OH280302   2.808   4.470  15.567  0.1647  0.2290 -0.2289
19604TIP3    H180303   2.839   4.510  15.485  2.4787 -0.0950  0.4392
19604TIP3    H280304   2.770   4.386  15.540  1.2305 -0.0329 -0.9695
19605TIP3   OH280305   4.353   4.562   3.491  0.9388 -0.0284  0.4417
19605TIP3    H180306   4.317   4.562   3.402  0.2059 -0.0410  0.7268
19605TIP3    H280307   4.290   4.510   3.541  0.7308  0.9459  1.2037
19606TIP3   OH280308   2.158   0.380   4.014  0.0297  0.1436 -0.3479
19606TIP3    H180309   2.099   0.450   3.986 -1.1700 -1.6022 -2.4115
19606TIP3    H280310   2.152   0.379   4.109 -2.4039  0.7806 -0.4575
19607TIP3   OH280311   5.391   2.802  17.228  0.5703  0.2641  0.4419
19607TIP3    H180312   5.378   2.723  17.281  1.1177 -0.6392 -0.7470
19607TIP3    H280313   5.349   2.782  17.144 -1.2241  2.0862  0.8657
19608TIP3   OH280314   3.416   2.834   2.009  0.4364  0.2999 -0.2746
19608TIP3    H180315   3.422   2.900   2.077  0.6182 -0.4486  0.4399
19608TIP3    H280316   3.340   2.781   2.034  1.8582 -1.3678  0.5884
19609TIP3   OH280317   4.914   4.909   0.913 -0.0402  0.4328 -0.1675
19609TIP3    H180318   4.978   4.934   0.846  0.4263 -0.8538 -0.2182
19609TIP3    H280319   4.950   4.830   0.952 -0.7635  0.6604  0.9959
19610TIP3   OH280320   6.069   2.348  15.993  0.8003 -0.2617  0.1745
19610TIP3    H180321   6.017   2.420  15.958 -0.3356 -1.0427  0.2438
19610TIP3    H280322   6.122   2.318  15.919 -0.1731 -0.6370 -0.3802
19611TIP3   OH280323   1.433   1.057   4.426 -0.5406  0.0621  0.1682
19611TIP3    H180324   1.479   1.139   4.444 -0.3220 -0.0251  0.0171
19611TIP3    H280325   1.491   0.989   4.459 -0.9429 -0.0108  0.7318
19612TIP3   OH280326   2.264   3.616  14.731  0.1248  0.2403  0.0770
19612TIP3    H180327   2.200   3.546  14.721  0.8174 -0.1793 -1.8086
19612TIP3    H280328   2.228   3.673  14.798 -0.5613 -1.7872  1.4956
19613TIP3   OH280329   1.829   1.780  16.801  0.5228  0.4971  0.0786
19613TIP3    H180330   1.757   1.842  16.802  0.9349  1.1575 -3.5802
19613TIP3    H280331   1.788   1.695  16.815 -0.4935  1.2008  1.5161
19614TIP3   OH280332   6.642   1.211  17.050 -0.2126 -0.4934 -0.0015
19614TIP3    H180333   6.650   1.302  17.023 -0.9257 -0.6482 -0.7384
19614TIP3    H280334   6.721   1.169  17.016 -0.0468 -0.2285  0.0542
19615TIP3   OH280335   6.209   3.913  14.084 -0.5157  0.0299  0.1141
19615TIP3    H180336   6.248   3.864  14.157 -1.0087  1.5836  1.4360
19615TIP3    H280337   6.122   3.875  14.074 -0.0237 -0.9802 -0.4622
19616TIP3   OH280338   5.154   3.828  11.748  0.2073 -0.2038 -0.5231
19616TIP3    H180339   5.146   3.789  11.661 -1.1167 -0.5213 -0.2770
19616TIP3    H280340   5.064   3.856  11.770  0.9155  1.9906 -0.2413
19617TIP3   OH280341   3.860   3.623  13.428 -0.0145  0.0005 -0.6000
19617TIP3    H180342   3.886   3.702  13.476 -0.2543 -0.3670  0.1436
19617TIP3    H280343   3.788   3.587  13.479 -0.4997 -0.2126 -1.4326
19618TIP3   OH280344   0.156   6.132   3.387 -0.1900  0.1600 -0.7080
19618TIP3    H180345   0.145   6.183   3.467  0.4896  1.0697 -1.1831
19618TIP3    H280346   0.084   6.162   3.330 -1.9359 -1.9854  0.3088
19619TIP3   OH280347   4.225   3.271  15.620  0.5732 -0.8808 -0.0542
19619TIP3    H180348   4.243   3.351  15.669 -1.4390 -1.1186  1.1500
19619TIP3    H280349   4.289   3.270  15.549  0.5501  1.8520 -0.1486
19620TIP3   OH280350   6.587   5.895   4.816 -0.1625 -0.0480  0.4012
19620TIP3    H180351   6.568   5.922   4.726 -1.5100  0.3424  0.7793
19620TIP3    H280352   6.501   5.893   4.859  0.3332 -1.3992  1.3619
19621TIP3   OH280353   5.654   5.212   2.961 -0.2251 -0.2934 -0.3767
19621TIP3    H180354   5.748   5.202   2.973 -0.3247  1.0640  1.8519
19621TIP3    H280355   5.620   5.123   2.962  1.0502 -0.7889 -1.2448
19622TIP3   OH280356   3.257   2.971   3.673  0.0612  0.2421  0.2206
19622TIP3    H180357   3.239   2.905   3.606 -1.7063  0.0613  0.8454
19622TIP3    H280358   3.341   3.009   3.647 -0.7983  0.4704 -2.3549
19623TIP3   OH280359   2.222   4.981  14.263  0.2526 -0.1459  0.9482
19623TIP3    H180360   2.164   5.032  14.206  0.1585  0.3190  1.4581
19623TIP3    H280361   2.179   4.980  14.348 -0.1144 -1.7330  0.7611
19624TIP3   OH280362   2.404   0.731  15.949  0.0699  0.2524 -0.5100
19624TIP3    H180363   2.416   0.684  16.032  0.3029  0.0967 -0.6301
19624TIP3    H280364   2.391   0.822  15.974  0.6701  0.2916 -0.3259
19625TIP3   OH280365   5.673   1.848   4.260 -0.1713  0.2345 -0.3957
19625TIP3    H180366   5.648   1.758   4.242 -0.5258  0.2602 -0.0246
19625TIP3    H280367   5.638   1.867   4.347 -0.1910  0.7616 -0.5128
19626TIP3   OH280368   3.737   2.287  10.923  0.1986  0.2054 -0.6492
19626TIP3    H180369   3.736   2.207  10.871 -1.3217  0.6150 -1.2554
19626TIP3    H280370   3.828   2.318  10.916  0.5430 -0.9026 -1.2489
19627TIP3   OH280371   1.183   2.696   5.225  0.0990  0.1818  0.5039
19627TIP3    H180372   1.122   2.622   5.217 -0.0525  0.4925 -1.3408
19627TIP3    H280373   1.136   2.771   5.189  0.5558  1.0329  1.6313
19628TIP3   OH280374   4.287   6.106   0.769  1.0902 -0.0096 -0.3850
19628TIP3    H180375   4.201   6.084   0.731 -0.0371  1.2447  1.3481
19628TIP3    H280376   4.318   6.023   0.806 -0.4403 -0.0097  0.9824
19629TIP3   OH280377   1.660   1.631  15.795 -0.3531  0.3649  0.2816
19629TIP3    H180378   1.572   1.667  15.807 -0.1569  0.7795  0.4666
19629TIP3    H280379   1.683   1.651  15.705 -1.0816 -1.1259 -0.2496
19630TIP3   OH280380   4.807   2.209   3.780 -0.1874 -0.6166  0.7726
19630TIP3    H180381   4.804   2.250   3.694  2.7683 -0.5624  0.6470
19630TIP3    H280382   4.830   2.281   3.840 -1.0469 -0.8875  1.4370
19631TIP3   OH280383   5.709   2.979   4.726  0.6151 -0.7819  0.5019
19631TIP3    H180384   5.695   2.912   4.659  1.4023 -0.2134 -0.2418
19631TIP3    H280385   5.631   2.975   4.781 -0.9895  0.0970 -1.6339
19632TIP3   OH280386   5.060   0.356   1.803  0.5275  0.1795 -0.1039
19632TIP3    H180387   4.965   0.348   1.806  0.5042 -0.3177 -1.9590
19632TIP3    H280388   5.079   0.435   1.853 -0.8373  0.1750  0.4452
19633TIP3   OH280389   5.646   2.122  11.411 -0.2720  0.6704 -0.3547
19633TIP3    H180390   5.623   2.031  11.431  0.6904  0.9946  2.4477
19633TIP3    H280391   5.597   2.142  11.331 -2.3155 -1.5773  0.2754
19634TIP3   OH280392   0.016   5.037   6.316  0.2412  0.6123  0.5319
19634TIP3    H180393  -0.045   5.056   6.387  0.4262  0.9955  0.5913
19634TIP3    H280394  -0.028   5.070   6.237  0.2932  0.7269  0.5505
19635TIP3   OH280395   2.729   1.374   2.798  0.0453  0.1085 -0.2300
19635TIP3    H180396   2.675   1.451   2.781 -2.4281 -1.5007  0.0385
19635TIP3    H280397   2.749   1.340   2.711  1.2369  1.0868 -0.3541
19636TIP3   OH280398   3.466   6.260  13.454  0.4522 -0.2642 -0.0445
19636TIP3    H180399   3.545   6.313  13.454  0.6868 -0.6083 -0.0920
19636TIP3    H280400   3.401   6.312  13.500  0.5253  0.2920 -0.5663
19637TIP3   OH280401   1.828   6.624  12.331 -0.3476 -0.0286 -0.3263
19637TIP3    H180402   1.856   6.710  12.364 -2.3670 -0.6860  3.3614
19637TIP3    H280403   1.756   6.643  12.272  1.3256  0.9901 -2.0953
19638TIP3   OH280404   2.684   0.278   4.279  0.3638 -0.5421 -0.1836
19638TIP3    H180405   2.674   0.356   4.225  0.0080 -1.8885 -2.1212
19638TIP3    H280406   2.658   0.306   4.367  0.1865  1.4858 -0.8588
19639TIP3   OH280407   4.847   0.298  13.686 -0.4306  0.5202  0.5152
19639TIP3    H180408   4.830   0.270  13.776  1.0991 -0.8262  0.4248
19639TIP3    H280409   4.833   0.219  13.634  0.3915  0.8464 -0.2046
19640TIP3   OH280410   6.195   2.130   3.908  0.4007  0.4806 -0.4679
19640TIP3    H180411   6.136   2.096   3.976  0.2920 -0.5239 -1.0488
19640TIP3    H280412   6.174   2.078   3.830  0.5522  1.5897 -1.2613
19641TIP3   OH280413   1.820   6.218  13.425 -0.3631 -0.1511 -0.5096
19641TIP3    H180414   1.796   6.232  13.517 -0.0325 -3.1680  0.0809
19641TIP3    H280415   1.916   6.220  13.425 -0.3710  2.9977 -1.3750
19642TIP3   OH280416   0.974   4.611  16.499  0.0004 -0.1327  0.5249
19642TIP3    H180417   1.004   4.634  16.587 -0.8409 -1.7134  1.2298
19642TIP3    H280418   1.054   4.611  16.446  0.2164  3.1597  0.7381
19643TIP3   OH280419   1.453   4.005   5.905 -0.1667  0.7128 -0.4991
19643TIP3    H180420   1.525   4.068   5.903  0.8205 -0.3886 -0.0283
19643TIP3    H280421   1.495   3.919   5.908 -1.4977  0.0340 -0.5549
19644TIP3   OH280422   5.668   5.126   1.399  0.1739 -0.0576 -0.0788
19644TIP3    H180423   5.690   5.187   1.328  1.0422 -1.8707 -1.4171
19644TIP3    H280424   5.585   5.087   1.371  0.4677 -0.7041 -0.0688
19645TIP3   OH280425   1.125   2.570  13.471  0.8020 -0.1969 -0.3815
19645TIP3    H180426   1.219   2.563  13.489  0.6421 -0.4836  0.3496
19645TIP3    H280427   1.096   2.479  13.463  0.2193 -0.1642  1.3036
19646TIP3   OH280428   2.165   5.138   3.509  0.0499 -0.3876  0.6312
19646TIP3    H180429   2.232   5.199   3.479  0.3942  0.0085  2.1995
19646TIP3    H280430   2.179   5.130   3.603 -2.0792 -0.3036  0.9998
19647TIP3   OH280431   3.308   4.924   2.742 -0.2989  0.0061 -0.6551
19647TIP3    H180432   3.263   4.907   2.659 -0.8695  0.6959 -0.4949
19647TIP3    H280433   3.360   5.003   2.725 -1.9407  1.3068  0.2035
19648TIP3   OH280434   1.405   6.460  14.190 -0.1347  0.1423 -0.6102
19648TIP3    H180435   1.492   6.453  14.230 -0.4285 -3.0913 -0.3882
19648TIP3    H280436   1.360   6.527  14.241  0.7899 -1.2250  2.0754
19649TIP3   OH280437   6.801   3.685  10.868 -0.0512 -0.2114 -0.3916
19649TIP3    H180438   6.833   3.676  10.778 -0.1973 -2.1228 -0.2707
19649TIP3    H280439   6.706   3.676  10.860  0.1057 -2.8277  0.2074
19650TIP3   OH280440   2.377   5.335   4.154 -0.4883  0.1982  0.0078
19650TIP3    H180441   2.294   5.352   4.198 -2.4735 -2.1638 -2.6968
19650TIP3    H280442   2.376   5.391   4.076  0.2639 -0.1709 -0.2805
19651TIP3   OH280443   3.935   3.084   4.484  0.2556 -0.4096 -0.3305
19651TIP3    H180444   3.962   2.994   4.465 -0.1792 -0.3032 -1.4630
19651TIP3    H280445   4.012   3.137   4.464 -0.0298 -0.3534 -1.2812
19652TIP3   OH280446   6.706   3.992   4.160 -0.1462  0.1328  0.0428
19652TIP3    H180447   6.731   3.986   4.253 -0.6145  1.8217  0.2868
19652TIP3    H280448   6.633   3.931   4.152  0.1690 -0.3453  0.6816
19653TIP3   OH280449   2.338   0.282  15.858  0.1358  0.2074 -0.2965
19653TIP3    H180450   2.343   0.315  15.768  0.2154 -1.6928 -1.0328
19653TIP3    H280451   2.407   0.215  15.862 -2.4373 -2.5161 -0.0718
19654TIP3   OH280452   3.404   4.493   2.774 -0.0199  0.1510 -0.0639
19654TIP3    H180453   3.442   4.487   2.687  0.6138  2.2782  0.0362
19654TIP3    H280454   3.407   4.403   2.808  0.2112 -0.5911 -2.0113
19655TIP3   OH280455   2.875   2.439  11.974  0.0743 -0.2798 -0.4860
19655TIP3    H180456   2.899   2.379  12.044  0.3115 -1.6177 -1.6915
19655TIP3    H280457   2.826   2.385  11.911 -2.1147  1.3937 -0.2727
19656TIP3   OH280458   4.630   4.929   0.964  0.6704 -0.1226  0.1198
19656TIP3    H180459   4.597   4.843   0.942  0.4851 -0.9092  3.2250
19656TIP3    H280460   4.717   4.933   0.923  1.4437 -2.5143  1.4393
19657TIP3   OH280461   5.018   6.488   3.372 -0.1478  0.0408 -0.5118
19657TIP3    H180462   5.058   6.566   3.334  1.8028 -1.0115 -0.6472
19657TIP3    H280463   4.939   6.522   3.416  0.9939  2.1813 -0.0244
19658TIP3   OH280464   5.174   0.627  15.108  0.1916 -0.4943  0.3303
19658TIP3    H180465   5.154   0.675  15.188  0.7363 -0.0105  0.1798
19658TIP3    H280466   5.165   0.535  15.132  0.8446 -0.3683  1.0872
19659TIP3   OH280467   6.415   3.181   0.529  0.4246 -0.4665 -0.0814
19659TIP3    H180468   6.505   3.207   0.549  0.6993 -1.5258  0.0747
19659TIP3    H280469   6.406   3.198   0.435 -0.2420  2.6251  0.4951
19660TIP3   OH280470   5.992   6.225   2.465  0.5267  0.6164 -0.4508
19660TIP3    H180471   6.088   6.227   2.468  0.4887  1.0851  1.0018
19660TIP3    H280472   5.971   6.244   2.374  1.8045  1.4233 -0.5968
19661TIP3   OH280473   4.831   0.257  11.611  0.2223  0.0133 -0.2824
19661TIP3    H180474   4.798   0.309  11.537 -0.4028 -0.5742 -0.4220
19661TIP3    H280475   4.791   0.296  11.688  0.7327  0.5149 -0.2701
19662TIP3   OH280476   0.229   4.011   3.551  0.3088 -0.1877 -0.7202
19662TIP3    H180477   0.168   4.085   3.555  1.3390  0.7308 -1.7427
19662TIP3    H280478   0.258   3.999   3.641 -1.5597 -0.8031 -0.1636
19663TIP3   OH280479   6.347   2.435   1.496  0.3676 -0.0259  0.5813
19663TIP3    H180480   6.425   2.466   1.542  0.5372 -1.3317  1.2096
19663TIP3    H280481   6.275   2.452   1.556  0.3493 -0.0503  0.5660
19664TIP3   OH280482   0.828   4.360  11.085 -0.3541 -0.4394  0.2725
19664TIP3    H180483   0.791   4.448  11.087  0.7504  0.0078  1.4254
19664TIP3    H280484   0.752   4.303  11.071 -1.2541  0.5918  0.8571
19665TIP3   OH280485   5.119   3.204   2.813  0.6759  0.7247 -0.3586
19665TIP3    H180486   5.079   3.290   2.820 -0.8233 -0.0301  0.6234
19665TIP3    H280487   5.152   3.186   2.902  1.2297  0.4033 -0.6258
19666TIP3   OH280488   0.694   5.689   1.714  0.2983 -0.1290 -0.0208
19666TIP3    H180489   0.690   5.662   1.806 -0.0153 -1.1599 -0.3308
19666TIP3    H280490   0.651   5.618   1.666 -0.0404  0.6727 -0.9115
19667TIP3   OH280491   5.089   3.907   0.900 -0.8029 -0.6855  0.0955
19667TIP3    H180492   5.143   3.931   0.975 -2.0971 -0.6612  1.0507
19667TIP3    H280493   5.053   3.821   0.923 -1.6453 -0.4289 -0.2363
19668TIP3   OH280494   1.547   3.225  15.913 -0.0631 -0.2031 -0.2413
19668TIP3    H180495   1.574   3.252  16.000  0.2009  1.3801 -0.7890
19668TIP3    H280496   1.453   3.243  15.910 -0.1686 -0.7338 -0.1102
19669TIP3   OH280497   6.058   1.801   0.272 -0.2488  0.0150 -0.4927
19669TIP3    H180498   6.030   1.892   0.278 -3.4241 -0.7917 -1.7523
19669TIP3    H280499   6.045   1.778   0.180  1.6911 -1.3864 -0.4566
19670TIP3   OH280500   6.148   5.321   3.598 -0.7421 -0.3456  0.0047
19670TIP3    H180501   6.239   5.352   3.598 -0.6870 -0.4729 -1.2923
19670TIP3    H280502   6.116   5.343   3.510 -1.2608 -2.3655 -0.3194
19671TIP3   OH280503   1.222   0.260  16.431 -0.0592 -0.2251 -0.1567
19671TIP3    H180504   1.180   0.316  16.365  0.7396 -1.0624 -1.3950
19671TIP3    H280505   1.207   0.171  16.400 -0.3615 -0.6680  1.2288
19672TIP3   OH280506   1.171   4.022   0.011  0.1252 -0.3961  0.2243
19672TIP3    H180507   1.106   3.961  -0.023 -0.3692  0.5693 -0.6110
19672TIP3    H280508   1.121   4.084   0.064  0.5768 -0.5370  0.8162
19673TIP3   OH280509   5.157   1.265   0.731  0.2080 -0.2051  0.4989
19673TIP3    H180510   5.118   1.342   0.689 -0.5612 -0.7487  0.2013
19673TIP3    H280511   5.098   1.245   0.804  0.6137 -0.2805  0.8044
19674TIP3   OH280512   2.613   3.661   0.398  0.7501 -0.6637  0.5635
19674TIP3    H180513   2.646   3.648   0.487 -1.2237 -2.1555  1.1050
19674TIP3    H280514   2.532   3.711   0.410 -0.1573 -1.9223 -0.2944
19675TIP3   OH280515   6.123   0.627  11.369 -0.3699 -0.0688  0.0402
19675TIP3    H180516   6.033   0.624  11.337 -0.2126  0.0157 -0.4203
19675TIP3    H280517   6.121   0.580  11.452 -1.0191  0.7154  0.4752
19676TIP3   OH280518   4.826   6.472   2.396  0.0080 -0.0743 -0.4659
19676TIP3    H180519   4.735   6.442   2.406  0.4442 -1.0734  0.6288
19676TIP3    H280520   4.867   6.453   2.480  1.6168 -0.9725 -1.4286
19677TIP3   OH280521   4.250   6.701  17.063 -0.1024 -0.4536 -0.4516
19677TIP3    H180522   4.175   6.701  17.003 -1.9765 -0.1635  1.8393
19677TIP3    H280523   4.288   6.788  17.053 -0.7066 -0.2270 -0.8446
19678TIP3   OH280524   0.689   0.642   5.203  0.9200 -0.2599 -0.0676
19678TIP3    H180525   0.754   0.614   5.268  2.0103 -2.2641 -1.9560
19678TIP3    H280526   0.737   0.696   5.141 -0.2079  1.9960  0.9721
19679TIP3   OH280527   5.879   6.178   1.248 -0.2455 -0.0405  0.3595
19679TIP3    H180528   5.877   6.207   1.339  1.3602  1.5955 -0.1137
19679TIP3    H280529   5.882   6.258   1.197  1.6189 -0.9622 -1.0507
19680TIP3   OH280530   5.495   1.584  13.559 -0.2880  0.3582 -0.3899
19680TIP3    H180531   5.542   1.526  13.499 -1.5008  0.7011 -1.6872
19680TIP3    H280532   5.517   1.672  13.529 -1.0975  0.5287 -0.4783
19681TIP3   OH280533   6.481   6.247   4.829 -0.3766 -0.2158 -0.1273
19681TIP3    H180534   6.433   6.327   4.851 -0.3482  0.3112 -1.9658
19681TIP3    H280535   6.567   6.278   4.799 -0.8631 -0.8341 -2.2380
19682TIP3   OH280536   3.405   3.080   2.615 -0.0150  0.6971  0.7470
19682TIP3    H180537   3.394   2.999   2.565  0.4071  0.6926  0.6627
19682TIP3    H280538   3.473   3.128   2.569  0.9063  0.3548  1.7463
19683TIP3   OH280539   0.713   3.543   3.445 -0.4009 -0.0156  0.3289
19683TIP3    H180540   0.681   3.470   3.392 -0.0479  0.0214  0.0589
19683TIP3    H280541   0.643   3.608   3.441 -0.0576  0.3081 -0.7420
19684TIP3   OH280542   5.184   4.015   0.682 -0.1677  0.2416  0.4335
19684TIP3    H180543   5.136   3.976   0.754 -2.1733 -0.8691 -1.4427
19684TIP3    H280544   5.117   4.037   0.617  1.7161 -0.3720 -1.8029
19685TIP3   OH280545   3.083   2.719   2.371  0.0469 -0.0577 -0.0648
19685TIP3    H180546   3.019   2.651   2.348  0.2150  0.2727 -1.4927
19685TIP3    H280547   3.168   2.679   2.352  0.3378 -0.7440  2.4551
19686TIP3   OH280548   2.648   2.816   3.155  0.4131 -0.1355  0.0172
19686TIP3    H180549   2.637   2.874   3.080  1.1727  0.6989  0.5436
19686TIP3    H280550   2.685   2.736   3.118  1.7045  0.6212 -0.3836
19687TIP3   OH280551   3.240   1.729   2.276  0.3162  0.3721 -0.0134
19687TIP3    H180552   3.196   1.715   2.192 -1.3930  0.0095  0.9076
19687TIP3    H280553   3.265   1.642   2.305  1.2141  0.5329 -0.3184
19688TIP3   OH280554   1.110   6.817   0.695 -0.3456  0.0074  0.0098
19688TIP3    H180555   1.037   6.862   0.653 -1.4879 -2.1831 -0.4198
19688TIP3    H280556   1.102   6.726   0.666  0.5174 -0.9786  2.7119
19689TIP3   OH280557   6.397   6.201  16.561 -0.3351  0.4359 -0.0497
19689TIP3    H180558   6.404   6.155  16.478 -0.1626 -0.4092  0.4311
19689TIP3    H280559   6.317   6.166  16.601  0.8511 -0.9059  1.2025
19690TIP3   OH280560   3.299   1.406  13.704 -0.0326  0.3993  0.5316
19690TIP3    H180561   3.213   1.438  13.679 -0.2656  0.3507  1.2691
19690TIP3    H280562   3.294   1.394  13.799 -0.2734 -2.7578  0.1853
19691TIP3   OH280563   1.232   2.860  13.166  0.2033 -0.5126  0.2105
19691TIP3    H180564   1.158   2.833  13.220  0.5643 -0.5621  0.6760
19691TIP3    H280565   1.207   2.946  13.133  0.6603  0.1987  1.7076
19692TIP3   OH280566   3.793   2.945   2.210 -0.7499  0.2992  0.5400
19692TIP3    H180567   3.704   2.982   2.205 -0.9902 -0.5087 -1.6365
19692TIP3    H280568   3.841   3.007   2.265 -1.8454  2.4630 -0.8356
19693TIP3   OH280569   1.130   0.984  11.244 -0.2330  0.2180  0.0200
19693TIP3    H180570   1.190   0.909  11.252 -1.5180 -0.7607  0.6325
19693TIP3    H280571   1.106   0.985  11.151  1.1272  0.9416 -0.3400
19694TIP3   OH280572   1.360   4.465   0.787  0.3381  0.1987  0.5448
19694TIP3    H180573   1.323   4.379   0.766  0.6816  0.0033  0.7273
19694TIP3    H280574   1.284   4.520   0.806  0.1111 -0.0356  0.3209
19695TIP3   OH280575   0.081   3.599  13.244  0.1776  0.0813  0.6836
19695TIP3    H180576   0.059   3.616  13.336 -1.0750  1.2802  0.1857
19695TIP3    H280577   0.122   3.680  13.214  2.9675 -1.2002  0.8549
19696TIP3   OH280578   1.560   1.197  17.116 -0.3054  0.1579  0.7069
19696TIP3    H180579   1.591   1.281  17.083 -0.3481  0.3076  1.0427
19696TIP3    H280580   1.497   1.166  17.050  0.5871 -0.1748 -0.0017
19697TIP3   OH280581   5.868   5.069  15.021 -0.4755  0.1694 -0.2335
19697TIP3    H180582   5.849   5.002  14.955 -2.0236 -0.9612  1.3004
19697TIP3    H280583   5.926   5.025  15.084 -0.1981  0.7756 -0.0595
19698TIP3   OH280584   3.103   6.487  16.167  0.3069  0.4135 -0.4152
19698TIP3    H180585   3.076   6.571  16.129 -1.2318  0.9664  1.7867
19698TIP3    H280586   3.197   6.482  16.149  0.7642  3.4055  0.7712
19699TIP3   OH280587   6.535   3.519  14.860 -0.3602 -0.2099  0.5787
19699TIP3    H180588   6.561   3.602  14.819 -2.6170  1.4812  2.3857
19699TIP3    H280589   6.549   3.453  14.792  0.0582  1.8850 -1.4330
19700TIP3   OH280590   1.526   4.028  16.016  0.0439  0.1162  0.2031
19700TIP3    H180591   1.569   4.104  16.055  1.1974 -0.3449 -0.1277
19700TIP3    H280592   1.549   4.032  15.923 -1.0339  0.1187 -0.0682
19701TIP3   OH280593   3.798   6.507   3.110  0.1875  0.5846 -0.5519
19701TIP3    H180594   3.800   6.458   3.027  0.7028  1.8696 -1.3067
19701TIP3    H280595   3.713   6.551   3.109  0.2760  0.7559 -0.4964
19702TIP3   OH280596   5.575   1.978   4.489 -0.1541 -0.1897  0.2636
19702TIP3    H180597   5.511   2.048   4.477 -1.5848 -1.3624  0.7159
19702TIP3    H280598   5.526   1.910   4.537  1.3315 -1.2777  0.2763
19703TIP3   OH280599   6.247   1.505  16.786 -0.3110 -0.0207 -0.0121
19703TIP3    H180600   6.302   1.583  16.796  1.3342 -1.3144  1.4910
19703TIP3    H280601   6.280   1.444  16.852 -4.2883 -0.4812  1.6964
19704TIP3   OH280602   2.514   4.608  13.216 -0.2566  0.5244  0.7190
19704TIP3    H180603   2.517   4.693  13.173  0.3697  1.0453  1.7861
19704TIP3    H280604   2.423   4.596  13.242 -0.7565 -0.0129 -1.1514
19705TIP3   OH280605   2.008   1.030   2.220 -0.6835 -0.5204  0.6390
19705TIP3    H180606   1.954   0.975   2.162  0.7028 -1.0691 -0.1503
19705TIP3    H280607   2.014   1.114   2.174 -1.7552 -0.1143  1.2406
19706TIP3   OH280608   6.003   3.806   1.116  0.1977  0.1730  0.1423
19706TIP3    H180609   6.003   3.797   1.021  0.5197 -2.1518  0.3404
19706TIP3    H280610   6.094   3.828   1.138  0.3185 -0.1649 -0.0155
19707TIP3   OH280611   6.331   2.150   2.433  0.0590  0.1092 -0.2573
19707TIP3    H180612   6.300   2.231   2.392  1.0274  0.4206 -0.4057
19707TIP3    H280613   6.285   2.146   2.516 -2.0963 -0.6472 -1.4609
19708TIP3   OH280614   2.682   3.457  11.503 -0.3971  0.1244  0.4231
19708TIP3    H180615   2.646   3.374  11.473 -1.5388  1.1361 -1.0426
19708TIP3    H280616   2.612   3.498  11.554 -0.3661  0.8441 -0.0963
19709TIP3   OH280617   1.839   6.504  12.007 -0.5589 -0.3847  0.0679
19709TIP3    H180618   1.923   6.521  12.050 -0.8535 -1.3406  1.0334
19709TIP3    H280619   1.863   6.473  11.920  0.0638  0.4876 -0.0774
19710TIP3   OH280620   0.933   5.610  11.281  0.0762  0.2219  0.0913
19710TIP3    H180621   1.001   5.550  11.251 -0.8389 -1.5446  1.4794
19710TIP3    H280622   0.963   5.640  11.367 -1.9433 -2.3691  1.7609
19711TIP3   OH280623   5.331   4.958  13.872 -0.0019  0.3162  0.0238
19711TIP3    H180624   5.302   5.022  13.937 -0.7141  0.0332 -0.0023
19711TIP3    H280625   5.407   4.916  13.910  0.3551  1.0546  0.1205
19712TIP3   OH280626   2.335   3.205  11.457 -0.7229 -0.1301 -0.3419
19712TIP3    H180627   2.337   3.148  11.381  0.2887 -0.4352 -0.1025
19712TIP3    H280628   2.262   3.264  11.442 -0.1666  0.1878 -1.8232
19713TIP3   OH280629   5.994   2.364   3.806  0.4059  0.2020  1.0795
19713TIP3    H180630   6.008   2.391   3.897 -0.2312  3.0920  0.3652
19713TIP3    H280631   5.923   2.301   3.811 -3.0639  3.9595  2.1919
19714TIP3   OH280632   4.524   4.887   5.503  0.6116  0.0499 -0.0360
19714TIP3    H180633   4.582   4.922   5.570  0.0571  0.3092  0.3132
19714TIP3    H280634   4.445   4.941   5.509 -0.2508 -1.2501  0.4806
19715TIP3   OH280635   6.770   1.642   2.612 -0.1523  0.2738 -0.7227
19715TIP3    H180636   6.756   1.561   2.562 -2.0348 -0.0597  0.3038
19715TIP3    H280637   6.682   1.680   2.621  0.5591  1.8125 -0.1370
19716TIP3   OH280638   4.081   4.639  11.872  0.5999  0.0695  0.2126
19716TIP3    H180639   4.160   4.686  11.900  0.9635 -0.1295 -0.4501
19716TIP3    H280640   4.038   4.698  11.811  0.4054  0.0437  0.3238
19717TIP3   OH280641   3.269   6.113   1.860 -0.1935  0.5617 -0.4581
19717TIP3    H180642   3.280   6.018   1.856 -0.0132  0.6171 -1.6279
19717TIP3    H280643   3.187   6.126   1.907 -0.1333 -0.1699 -0.1454
19718TIP3   OH280644   4.299   5.311   6.409 -0.1371 -1.1165  0.3723
19718TIP3    H180645   4.354   5.276   6.479  0.2365 -1.6878 -0.2033
19718TIP3    H280646   4.334   5.272   6.329 -0.1557  0.0265 -0.2070
19719TIP3   OH280647   0.018   3.667   1.802 -0.2174 -0.0493  0.0013
19719TIP3    H180648  -0.040   3.720   1.747 -1.6901 -1.2527  0.3696
19719TIP3    H280649  -0.030   3.585   1.815  1.5288 -1.0340  0.3914
19720TIP3   OH280650   3.214   2.853  13.510  0.3430 -0.2966  0.2104
19720TIP3    H180651   3.293   2.832  13.461 -0.4786 -0.5173 -1.0394
19720TIP3    H280652   3.179   2.767  13.536  1.1394 -0.1604  1.7886
19721TIP3   OH280653   3.061   0.010   1.442  0.2232 -0.5402  0.3800
19721TIP3    H180654   3.051   0.060   1.361 -1.0227 -0.4707  0.5543
19721TIP3    H280655   2.971  -0.010   1.468  0.6415 -1.1377  1.3909
19722TIP3   OH280656   1.385   1.686  11.790  0.1671  0.6237 -0.5364
19722TIP3    H180657   1.337   1.765  11.767  0.8321  1.2413  0.1887
19722TIP3    H280658   1.408   1.647  11.706 -0.0666  1.2536 -0.8977
19723TIP3   OH280659   4.601   0.923  14.120  0.5300 -0.1881  0.1174
19723TIP3    H180660   4.507   0.913  14.136  0.4734 -3.5306 -1.7788
19723TIP3    H280661   4.606   0.975  14.040  0.2805 -0.5717 -0.1490
19724TIP3   OH280662   1.576   5.773   5.429  0.1968 -0.0985  0.1411
19724TIP3    H180663   1.570   5.678   5.416  1.2982 -0.4733  2.1476
19724TIP3    H280664   1.626   5.804   5.353 -1.6725 -0.8680 -1.4390
19725TIP3   OH280665   4.849   1.249  14.476  0.4579  0.4729  0.1550
19725TIP3    H180666   4.936   1.214  14.498  1.4283  1.5541 -1.8647
19725TIP3    H280667   4.809   1.181  14.422 -0.2541 -0.3207  1.6372
19726TIP3   OH280668   3.267   0.411  14.829 -0.4557 -0.2646 -0.7370
19726TIP3    H180669   3.238   0.359  14.905  0.3973  0.4444  0.0826
19726TIP3    H280670   3.260   0.351  14.755 -0.2233 -1.3201  0.0844
19727TIP3   OH280671   4.616   1.891   4.319  0.4035 -0.1391  0.0378
19727TIP3    H180672   4.525   1.879   4.346  0.2074  0.6122 -0.2647
19727TIP3    H280673   4.617   1.977   4.276  1.1413 -0.3752 -0.4336
19728TIP3   OH280674   4.588   3.264  11.503  0.4754  0.2797  0.0044
19728TIP3    H180675   4.682   3.266  11.483  0.8114  0.0254  1.4978
19728TIP3    H280676   4.576   3.331  11.570 -0.6269  1.1088 -1.0081
19729TIP3   OH280677   4.821   3.696   0.224 -0.6764 -0.1244 -0.1782
19729TIP3    H180678   4.826   3.690   0.320 -0.5215  0.0856 -0.1748
19729TIP3    H280679   4.852   3.611   0.194 -0.6448 -0.1611 -0.0444
19730TIP3   OH280680   3.084   5.500   0.268 -0.0657 -0.2726 -0.0378
19730TIP3    H180681   3.141   5.522   0.342  0.9416  1.0546 -1.2003
19730TIP3    H280682   3.142   5.458   0.205 -0.6008  0.0747 -0.7632
19731TIP3   OH280683   3.842   5.047  10.689  0.6968 -0.2080  0.0791
19731TIP3    H180684   3.782   5.028  10.761  0.3470  0.2865 -0.0800
19731TIP3    H280685   3.853   4.963  10.644 -0.2353 -0.2082 -0.1641
19732TIP3   OH280686   3.984   0.547  16.799 -0.4389  0.5781  0.3782
19732TIP3    H180687   4.035   0.508  16.728 -0.0894  0.0283  0.9297
19732TIP3    H280688   3.896   0.557  16.763 -0.8130 -1.7344  0.5773
19733TIP3   OH280689   2.727   1.601   3.140  0.4020 -0.3530  0.2075
19733TIP3    H180690   2.777   1.521   3.124 -0.7599 -0.8911 -0.7948
19733TIP3    H280691   2.787   1.672   3.114  1.2699 -0.8990  0.6879
19734TIP3   OH280692   2.202   4.770  11.571 -0.6384  0.2079  0.5800
19734TIP3    H180693   2.129   4.711  11.588 -0.9364  0.6162  0.7334
19734TIP3    H280694   2.275   4.734  11.622 -0.0395 -1.5696 -1.4482
19735TIP3   OH280695   1.905   2.313  14.812 -0.2275 -0.0112 -0.2345
19735TIP3    H180696   1.891   2.375  14.741 -0.1260  1.7025  1.2193
19735TIP3    H280697   1.835   2.331  14.875 -1.1589 -2.4615 -0.5171
19736TIP3   OH280698   1.310   1.826   1.867  0.0096 -0.9226 -0.0184
19736TIP3    H180699   1.223   1.789   1.881 -1.4668  2.3395 -0.0360
19736TIP3    H280700   1.311   1.852   1.775  0.9328 -0.7836  0.0221
19737TIP3   OH280701   5.233   2.800   1.579  0.7286  0.1753  0.0827
19737TIP3    H180702   5.236   2.885   1.535  0.4301  0.4018  0.4983
19737TIP3    H280703   5.257   2.737   1.511 -0.3900  0.4561 -0.5728
19738TIP3   OH280704   6.354   0.513   5.168  0.3109 -0.2194 -0.5400
19738TIP3    H180705   6.330   0.432   5.214  0.6982  0.5376  1.0118
19738TIP3    H280706   6.450   0.510   5.164  0.3704  0.5776  0.2857
19739TIP3   OH280707   0.121   3.055  14.947 -0.2698 -0.2690 -0.3956
19739TIP3    H180708   0.056   3.021  14.886  0.5363 -1.9118 -0.3791
19739TIP3    H280709   0.170   2.977  14.975 -0.4723  0.4949  2.1604
19740TIP3   OH280710   4.496   3.393   2.625  0.0348  0.5546 -0.0602
19740TIP3    H180711   4.434   3.333   2.584 -0.6953  0.6273  0.9185
19740TIP3    H280712   4.574   3.340   2.640  0.2135  0.4616 -1.3029
19741TIP3   OH280713   6.219   1.402  11.680 -0.6558 -0.7302 -0.0226
19741TIP3    H180714   6.155   1.389  11.610 -0.5739 -1.2530 -0.0025
19741TIP3    H280715   6.286   1.336  11.664  0.6485  0.7698 -0.9169
19742TIP3   OH280716   2.115   3.423   3.062 -0.1227  0.1859 -0.3492
19742TIP3    H180717   2.204   3.388   3.068 -0.1486  0.4020  1.6617
19742TIP3    H280718   2.127   3.518   3.057 -0.2260  0.2308  0.1559
19743TIP3   OH280719   3.818   2.803  11.534 -0.5380  0.4618 -0.8071
19743TIP3    H180720   3.773   2.887  11.522 -1.4093 -0.0821 -1.4285
19743TIP3    H280721   3.749   2.738  11.523  0.2804 -0.3660 -1.0473
19744TIP3   OH280722   6.803   6.107  13.028  0.2001 -0.1211 -0.0986
19744TIP3    H180723   6.758   6.176  12.980 -0.7152 -0.7791 -0.2015
19744TIP3    H280724   6.882   6.149  13.063  1.2304  0.2272 -2.6870
19745TIP3   OH280725   1.993   5.225  17.116  0.4351  0.5009  0.4863
19745TIP3    H180726   1.995   5.240  17.022 -0.1923  0.4996  0.4707
19745TIP3    H280727   1.914   5.173  17.130  0.7911  0.0844  0.9522
19746TIP3   OH280728   5.142   3.418   2.135  0.0775  0.0301 -0.3983
19746TIP3    H180729   5.056   3.424   2.093 -0.1203 -0.6865 -0.0996
19746TIP3    H280730   5.139   3.337   2.185  0.4474  0.6865  0.7111
19747TIP3   OH280731   1.241   2.460   2.660 -0.4903  0.6242  0.2270
19747TIP3    H180732   1.298   2.426   2.729  1.6552  0.5700 -1.5069
19747TIP3    H280733   1.161   2.487   2.706  0.0203 -1.3918  2.4151
19748TIP3   OH280734   3.274   5.411  13.135 -0.1956  0.1446  0.3710
19748TIP3    H180735   3.250   5.356  13.061  0.4469  0.9957 -0.4919
19748TIP3    H280736   3.286   5.350  13.208 -1.3056 -0.6491 -0.1030
19749TIP3   OH280737   4.204   0.621   5.812  0.2063 -0.1561  0.2010
19749TIP3    H180738   4.185   0.611   5.719  0.1392 -1.1362  0.3158
19749TIP3    H280739   4.128   0.581   5.856  0.5407 -0.2781  0.6704
19750TIP3   OH280740   5.650   0.285   2.588  0.3473  0.1561  0.4229
19750TIP3    H180741   5.735   0.293   2.632 -0.0159 -0.2287  1.1991
19750TIP3    H280742   5.586   0.293   2.659 -0.1998 -3.1947  0.3507
19751TIP3   OH280743   2.909   5.323   3.717  0.6328  0.3499  0.3396
19751TIP3    H180744   2.938   5.261   3.784  2.2035  1.6833  0.9378
19751TIP3    H280745   2.932   5.282   3.634 -1.0245 -1.1691  0.6172
19752TIP3   OH280746   5.329   1.897   0.368 -0.9383 -0.1047 -0.7943
19752TIP3    H180747   5.256   1.906   0.429  1.7192  0.3269  2.5222
19752TIP3    H280748   5.347   1.986   0.338  0.1991  0.2632  0.9045
19753TIP3   OH280749   0.945   5.050   7.232 -0.3423 -0.1604  0.7250
19753TIP3    H180750   0.998   5.052   7.312 -0.0979 -0.7441  0.5794
19753TIP3    H280751   0.956   5.137   7.194  2.4387 -1.0145 -0.5500
19754TIP3   OH280752   4.543   0.289   1.188 -0.0250 -0.1887 -0.1245
19754TIP3    H180753   4.549   0.194   1.192 -0.8576 -0.2291  0.2448
19754TIP3    H280754   4.597   0.320   1.261 -1.9096 -0.4582  1.4124
19755TIP3   OH280755   0.885   1.137   3.941  0.8771  0.0516 -0.6429
19755TIP3    H180756   0.956   1.082   3.906  2.2571 -0.1051  2.2836
19755TIP3    H280757   0.900   1.137   4.035 -3.5632 -0.7114  0.1497
19756TIP3   OH280758   5.426   5.085   1.290  0.0108  0.1306 -0.6361
19756TIP3    H180759   5.343   5.109   1.332  0.3136  1.1414 -0.5987
19756TIP3    H280760   5.412   5.104   1.197 -0.3990 -1.3865 -0.9018
19757TIP3   OH280761   1.765   2.432   6.148 -0.2003  0.3161 -0.3459
19757TIP3    H180762   1.855   2.398   6.150 -0.6735 -1.0121 -1.0434
19757TIP3    H280763   1.726   2.401   6.230  0.1380  1.4050  0.2454
19758TIP3   OH280764   0.997   5.340   4.208  0.0151 -0.2464 -0.4418
19758TIP3    H180765   1.022   5.413   4.152  0.2597 -0.7591 -1.0037
19758TIP3    H280766   1.074   5.282   4.207 -0.4431 -0.8551 -0.5661
19759TIP3   OH280767   0.170   1.229  14.782 -0.1852 -0.0931  0.2183
19759TIP3    H180768   0.135   1.158  14.730  0.8684 -0.9357  0.6363
19759TIP3    H280769   0.156   1.202  14.873  0.1452  0.2641  0.3776
19760TIP3   OH280770   2.729   1.338  12.183  0.4101 -0.9163  0.2950
19760TIP3    H180771   2.739   1.410  12.121  2.5582  0.8491  2.5818
19760TIP3    H280772   2.636   1.340  12.207  0.2656  0.5985 -0.3009
19761TIP3   OH280773   1.906   4.413   4.187  0.0522  0.7512 -0.3418
19761TIP3    H180774   1.836   4.350   4.200  0.1256  1.2715  3.2590
19761TIP3    H280775   1.948   4.387   4.105  0.2944 -4.0957  1.1498
19762TIP3   OH280776   6.546   2.728   2.045  0.6608  0.1167  0.1954
19762TIP3    H180777   6.578   2.693   1.962 -1.5391 -2.5021  0.3977
19762TIP3    H280778   6.543   2.653   2.104 -0.5916  1.3703  1.7904
19763TIP3   OH280779   6.674   3.703   4.467  0.0122 -0.3337 -0.8430
19763TIP3    H180780   6.748   3.660   4.425 -0.5514 -0.3401 -1.8475
19763TIP3    H280781   6.600   3.644   4.452 -0.0841 -0.6023  0.6462
19764TIP3   OH280782   6.452   3.378   6.282 -0.2334 -0.1071  0.4403
19764TIP3    H180783   6.419   3.331   6.359  0.4927 -1.2802  0.0645
19764TIP3    H280784   6.377   3.386   6.224 -0.9577  1.4270  1.5653
19765TIP3   OH280785   4.336   3.794  16.977 -0.1508  0.0350  0.0378
19765TIP3    H180786   4.356   3.779  17.069 -3.5584 -4.2319  0.2800
19765TIP3    H280787   4.397   3.737  16.930 -0.4685 -0.1427 -0.1614
19766TIP3   OH280788   6.680   3.103  12.476  0.7392  0.3143  0.5230
19766TIP3    H180789   6.761   3.052  12.467  0.6088 -0.3342  2.7445
19766TIP3    H280790   6.692   3.154  12.556 -0.5531  1.1887  0.1885
19767TIP3   OH280791   0.026   1.335  12.214 -0.1728  0.4447 -0.2377
19767TIP3    H180792   0.021   1.303  12.304 -0.2178  0.6141 -0.1789
19767TIP3    H280793  -0.002   1.261  12.160  0.0561  0.2754 -0.1251
19768TIP3   OH280794   6.737   6.636   1.414  0.2582 -0.3938  0.7733
19768TIP3    H180795   6.787   6.590   1.347 -2.0177 -0.4751 -0.9435
19768TIP3    H280796   6.724   6.724   1.379 -0.9084 -0.4218  1.0961
19769TIP3   OH280797   1.126   2.757   0.752 -0.3485 -0.3594 -0.6768
19769TIP3    H180798   1.073   2.749   0.831 -0.6037 -1.5832 -0.9655
19769TIP3    H280799   1.179   2.835   0.767  0.0638 -0.9289  0.9684
19770TIP3   OH280800   1.512   5.842   1.152 -0.2805  0.3934  0.5302
19770TIP3    H180801   1.477   5.803   1.232 -0.1678  0.5309  0.6462
19770TIP3    H280802   1.530   5.767   1.094  0.6236  0.2149  1.0285
19771TIP3   OH280803   4.213   5.062   4.932  0.3600  0.1124  0.3577
19771TIP3    H180804   4.297   5.098   4.904 -0.3561  0.0825 -1.8779
19771TIP3    H280805   4.178   5.019   4.854 -1.4555 -0.4136  1.4391
19772TIP3   OH280806   5.674   5.229   0.521  0.5733 -0.8526 -0.1333
19772TIP3    H180807   5.645   5.148   0.478  0.4873 -0.4898 -0.7657
19772TIP3    H280808   5.597   5.261   0.566 -0.1646  0.3425 -2.1706
19773TIP3   OH280809   2.227   1.552  14.320 -0.2587  0.9823 -0.5036
19773TIP3    H180810   2.137   1.518  14.317  0.5755 -1.4255  0.7037
19773TIP3    H280811   2.281   1.477  14.295  1.5527  1.8854  0.6721
19774TIP3   OH280812   4.155   3.307  10.636  0.3191 -0.4136 -0.0115
19774TIP3    H180813   4.208   3.376  10.676  0.7812 -1.3101  0.9283
19774TIP3    H280814   4.068   3.346  10.626  0.7788  0.5681 -0.2288
19775TIP3   OH280815   6.746   1.517   5.352  0.3905 -0.1003 -0.4885
19775TIP3    H180816   6.765   1.611   5.353 -0.1194  0.0284  2.1584
19775TIP3    H280817   6.831   1.475   5.338  0.6773  0.7464 -1.2965
19776TIP3   OH280818   4.624   6.092  13.201  0.8320 -0.1362 -0.0899
19776TIP3    H180819   4.530   6.100  13.181  1.5541  2.6042 -2.7867
19776TIP3    H280820   4.638   6.156  13.271  0.8753  0.1523 -0.3630
19777TIP3   OH280821   4.920   1.414  15.767  0.5797 -0.6993  0.3978
19777TIP3    H180822   4.922   1.352  15.695  1.4324  0.3960 -0.5459
19777TIP3    H280823   4.893   1.497  15.727 -0.6880 -0.4852  1.6579
19778TIP3   OH280824   4.617   0.586  12.017  0.2918 -0.7445 -0.1242
19778TIP3    H180825   4.654   0.657  12.070 -0.6369 -1.3680  1.3929
19778TIP3    H280826   4.654   0.600  11.930  2.6610 -0.2785  0.9149
19779TIP3   OH280827   1.145   4.654   0.834  0.9891 -0.5192 -0.0206
19779TIP3    H180828   1.111   4.631   0.747  0.2688 -1.6222  0.5378
19779TIP3    H280829   1.074   4.632   0.894  1.0225  1.4111  0.7445
19780TIP3   OH280830   2.651   2.580  10.990  0.5316 -0.2661  0.1458
19780TIP3    H180831   2.711   2.590  10.916  0.6741 -0.0699  0.2900
19780TIP3    H280832   2.704   2.540  11.059  0.5476  0.0853  0.3388
19781TIP3   OH280833   1.308   0.331   2.221  0.3807 -0.4020 -0.3042
19781TIP3    H180834   1.232   0.288   2.259 -0.5863  1.8760  0.4188
19781TIP3    H280835   1.382   0.296   2.269 -0.4841 -0.4181  1.0337
19782TIP3   OH280836   1.709   6.605   0.835 -0.0146 -0.4598 -0.0227
19782TIP3    H180837   1.791   6.612   0.884 -0.5543 -0.2572  0.8608
19782TIP3    H280838   1.705   6.513   0.808  0.4624 -0.4896  0.0055
19783TIP3   OH280839   0.862   2.422  12.904 -0.3884 -0.0080  0.6882
19783TIP3    H180840   0.897   2.469  12.980 -0.1317 -0.7339  1.0244
19783TIP3    H280841   0.940   2.399  12.852 -0.6226  1.1402 -0.1781
19784TIP3   OH280842   1.195   1.855   5.555 -0.6860 -0.3950 -0.1932
19784TIP3    H180843   1.196   1.767   5.519 -1.3478  0.2316 -1.7596
19784TIP3    H280844   1.272   1.898   5.517 -1.0624  0.0883 -0.4220
19785TIP3   OH280845   4.964   2.531   2.029  0.0253  0.0173 -0.9298
19785TIP3    H180846   4.948   2.444   2.066 -1.1683  0.5476 -0.1748
19785TIP3    H280847   4.878   2.559   1.997  0.5419  0.6519 -1.7631
19786TIP3   OH280848   0.880   4.474   4.400  0.4844  0.2821  0.2346
19786TIP3    H180849   0.818   4.420   4.449 -0.1779  1.0677  0.2805
19786TIP3    H280850   0.858   4.457   4.308  1.1308 -0.5003  0.2166
19787TIP3   OH280851   0.423   2.005  14.843  0.1516  0.2657  0.2319
19787TIP3    H180852   0.344   2.013  14.897  0.3739  1.6348  0.3819
19787TIP3    H280853   0.393   1.962  14.763 -0.0549 -2.4136  1.7087
19788TIP3   OH280854   2.710   3.972   4.850 -0.0786 -0.0391  0.4286
19788TIP3    H180855   2.663   3.942   4.772 -1.3417  2.6106  0.1175
19788TIP3    H280856   2.653   3.947   4.923  0.6408 -1.6547  0.4503
19789TIP3   OH280857   4.439   5.664   4.403  0.2909  0.5840 -0.9827
19789TIP3    H180858   4.412   5.584   4.447 -0.1361  1.8691  1.1575
19789TIP3    H280859   4.369   5.727   4.422  0.8164  1.5897 -2.2855
19790TIP3   OH280860   2.988   5.734  14.319 -0.1708 -0.0081  0.2289
19790TIP3    H180861   3.072   5.740  14.273 -0.5979 -1.0293 -0.6866
19790TIP3    H280862   3.006   5.773  14.405  1.0049  0.5966 -0.2713
19791TIP3   OH280863   0.825   5.791  12.739  0.1138  0.3007 -0.9382
19791TIP3    H180864   0.732   5.774  12.752  0.6772 -0.6909  2.2393
19791TIP3    H280865   0.841   5.874  12.785  1.3605 -1.1288  1.3025
19792TIP3   OH280866   1.797   0.957  11.937  0.6323 -0.4744  0.0661
19792TIP3    H180867   1.823   0.865  11.934  0.4427 -0.4945 -1.3587
19792TIP3    H280868   1.873   1.004  11.902 -0.0732 -0.2771 -1.2394
19793TIP3   OH280869   6.605   5.760   3.214  0.5504  0.4393  0.4754
19793TIP3    H180870   6.552   5.840   3.214  3.3644  2.3736 -0.9244
19793TIP3    H280871   6.594   5.724   3.126  0.2135 -0.1221  0.7401
19794TIP3   OH280872   4.564   5.049  15.015 -0.4311 -0.4441 -0.3007
19794TIP3    H180873   4.617   5.056  14.935 -1.2076 -0.0977 -0.7928
19794TIP3    H280874   4.478   5.022  14.984 -0.4083 -1.5276  0.5475
19795TIP3   OH280875   3.093   1.517   6.667 -0.1475 -0.0305  0.0974
19795TIP3    H180876   2.998   1.530   6.661 -0.2971 -1.6436 -1.3545
19795TIP3    H280877   3.103   1.423   6.682  1.2681 -0.0224 -0.7882
19796TIP3   OH280878   3.869   2.882  13.828  0.1356 -0.1823 -0.1974
19796TIP3    H180879   3.884   2.940  13.754 -1.1123  0.8769  0.3685
19796TIP3    H280880   3.777   2.857  13.821  0.5740 -1.8844 -0.2697
19797TIP3   OH280881   6.455   4.000  13.162 -0.0510 -0.4578 -0.7294
19797TIP3    H180882   6.509   3.973  13.236  0.8109 -0.2516 -1.2736
19797TIP3    H280883   6.461   3.927  13.100  1.4060  0.5042 -1.7374
19798TIP3   OH280884   0.383   1.401  11.550 -0.8690 -0.5108 -0.0019
19798TIP3    H180885   0.394   1.351  11.470  0.3080 -0.9646  0.4325
19798TIP3    H280886   0.436   1.480  11.537 -1.6301 -0.0105 -0.1407
19799TIP3   OH280887   4.922   0.945   3.988  0.3816  0.2495 -0.7749
19799TIP3    H180888   5.007   0.950   4.032  0.5858  0.4705 -1.1828
19799TIP3    H280889   4.943   0.954   3.895 -0.2656  2.3932 -0.7510
19800TIP3   OH280890   2.718   3.525   1.388 -0.1416  0.0148 -0.1422
19800TIP3    H180891   2.701   3.492   1.300  1.2436 -0.2833 -0.3054
19800TIP3    H280892   2.631   3.551   1.421 -0.5157  1.2044 -1.9918
19801TIP3   OH280893   6.732   3.127   1.040  0.2237 -0.3387 -0.1322
19801TIP3    H180894   6.657   3.082   1.002 -0.4047  0.9782 -0.4880
19801TIP3    H280895   6.808   3.093   0.992 -0.2711 -0.7516 -0.6261
19802TIP3   OH280896   6.642   6.125   3.725  0.5431  0.4573 -0.5099
19802TIP3    H180897   6.707   6.168   3.781  0.6863 -0.4819  0.0643
19802TIP3    H280898   6.694   6.071   3.665  0.3852  1.4269 -1.5330
19803TIP3   OH280899   6.329   2.207  16.321 -0.0183  0.2056 -0.1159
19803TIP3    H180900   6.321   2.151  16.243 -2.3153  0.5924 -0.1939
19803TIP3    H280901   6.361   2.291  16.287 -0.6803  0.2668 -0.5961
19804TIP3   OH280902   3.135   1.868   3.031 -0.2123 -0.0298 -0.1374
19804TIP3    H180903   3.183   1.914   2.962 -0.4273  0.4309  0.0251
19804TIP3    H280904   3.188   1.790   3.048  0.6687  0.6543  0.2879
19805TIP3   OH280905   4.141   6.643   4.773 -0.4640 -0.1882 -0.0905
19805TIP3    H180906   4.048   6.631   4.758 -0.2260 -0.7575 -1.2093
19805TIP3    H280907   4.180   6.638   4.686  0.8129 -2.0048  0.5403
19806TIP3   OH280908   4.067   6.351   4.515 -0.5690 -0.2817  0.0502
19806TIP3    H180909   4.140   6.383   4.567 -0.8059  0.4685 -0.0832
19806TIP3    H280910   4.106   6.331   4.429 -1.0213  2.6906 -0.8929
19807TIP3   OH280911   5.631   4.031   3.340 -0.1757  0.2972 -0.4705
19807TIP3    H180912   5.723   4.006   3.337  0.1564  1.2866  0.7849
19807TIP3    H280913   5.631   4.123   3.313 -0.5230  0.9256  1.6195
19808TIP3   OH280914   4.271   0.592  13.227 -0.3417 -0.0860  0.2534
19808TIP3    H180915   4.176   0.604  13.220 -0.2506  1.7634  1.7219
19808TIP3    H280916   4.281   0.518  13.288 -0.8340 -0.9283 -0.6736
19809TIP3   OH280917   0.281   5.378   2.807  0.4317 -0.8098  0.0935
19809TIP3    H180918   0.219   5.448   2.789  2.6236  0.3911 -3.2109
19809TIP3    H280919   0.288   5.331   2.724  1.9285 -2.5859  1.1897
19810TIP3   OH280920   1.334   1.012  13.700  0.4383  0.5823  0.4570
19810TIP3    H180921   1.274   0.976  13.635  1.0822 -1.1840  0.8388
19810TIP3    H280922   1.395   1.066  13.649  0.7354 -0.5284 -0.3781
19811TIP3   OH280923   6.472   6.621   1.368  0.3556 -0.1397  0.2014
19811TIP3    H180924   6.560   6.616   1.407  0.3997 -0.9815 -0.0077
19811TIP3    H280925   6.478   6.693   1.305  0.4218  0.9188  1.3897
19812TIP3   OH280926   1.671   3.790   4.131  0.0257 -0.1125  0.4274
19812TIP3    H180927   1.644   3.742   4.209 -0.6023  1.1060  0.9717
19812TIP3    H280928   1.680   3.723   4.064 -0.2741 -1.0648  1.3252
19813TIP3   OH280929   6.740   0.547  15.522 -0.1412 -0.3036  0.1424
19813TIP3    H180930   6.734   0.457  15.554  1.2293 -0.7907 -0.9103
19813TIP3    H280931   6.804   0.542  15.450  2.2583  2.0404  2.0248
19814TIP3   OH280932   5.431   1.790  11.785  0.1421 -0.1970  0.1085
19814TIP3    H180933   5.470   1.794  11.698  0.4311 -0.7754  0.2086
19814TIP3    H280934   5.505   1.794  11.845 -0.0377 -0.0615  0.3264
19815TIP3   OH280935   1.443   2.380  11.352  0.4845 -0.0038  0.4978
19815TIP3    H180936   1.384   2.392  11.426 -0.6001  1.0062 -0.5203
19815TIP3    H280937   1.433   2.288  11.328 -0.3842  0.0797  0.5562
19816TIP3   OH280938   3.717   5.821  13.365 -0.7753  0.1085 -0.2204
19816TIP3    H180939   3.649   5.851  13.424  0.4889 -1.5207  2.1473
19816TIP3    H280940   3.798   5.861  13.398 -0.2012 -0.0252 -1.4378
19817TIP3   OH280941   6.427   4.835  14.031  0.5092 -0.1013  1.0221
19817TIP3    H180942   6.484   4.815  13.957 -0.8866 -1.5090  0.2952
19817TIP3    H280943   6.386   4.919  14.009  0.6287 -0.1750  0.5192
19818TIP3   OH280944   1.005   5.963   0.321 -0.3691 -0.0770 -0.3578
19818TIP3    H180945   1.090   5.994   0.351 -0.6643  1.0321 -0.6475
19818TIP3    H280946   1.025   5.912   0.242  0.1018 -0.5309  0.0503
19819TIP3   OH280947   4.058   5.373  14.271 -0.2016  0.3052 -0.5660
19819TIP3    H180948   4.016   5.344  14.352  0.8993 -1.7616 -0.6926
19819TIP3    H280949   4.010   5.328  14.202  1.2516 -0.9538 -0.7964
19820TIP3   OH280950   5.282   0.063   3.838 -0.2203 -0.1524 -0.1184
19820TIP3    H180951   5.201   0.089   3.881  0.0871  0.6073  0.0060
19820TIP3    H280952   5.345   0.051   3.909  0.3342  1.2690 -0.3423
19821TIP3   OH280953   2.607   4.668  15.315 -0.1542 -0.4287  0.2930
19821TIP3    H180954   2.568   4.726  15.380  0.3100 -1.0600  1.1545
19821TIP3    H280955   2.572   4.698  15.231 -3.8109 -2.0272  1.1641
19822TIP3   OH280956   3.844   4.817   2.820  0.0623 -0.1445 -0.2185
19822TIP3    H180957   3.913   4.827   2.754  0.1723 -0.4455 -0.1473
19822TIP3    H280958   3.869   4.739   2.869  0.2210  0.3346  0.4729
19823TIP3   OH280959   4.797   6.719  12.034  0.4403  1.1390 -0.0972
19823TIP3    H180960   4.772   6.728  11.942 -0.4928  1.1203  0.1470
19823TIP3    H280961   4.727   6.762  12.082 -0.2503 -0.8594  0.7270
19824TIP3   OH280962   0.128   1.835   1.310  0.2564  0.2629 -0.0924
19824TIP3    H180963   0.174   1.807   1.389 -1.0424 -0.6885  0.3457
19824TIP3    H280964   0.060   1.769   1.297 -1.5967  2.1410 -0.1724
19825TIP3   OH280965   3.806   3.735   5.283  1.0345  0.2087  0.3413
19825TIP3    H180966   3.796   3.661   5.343 -1.6749  1.2551  1.2843
19825TIP3    H280967   3.763   3.706   5.202 -1.4964  1.2597  1.2440
19826TIP3   OH280968   4.410   5.862   2.485  0.0573 -0.0163  0.5547
19826TIP3    H180969   4.498   5.846   2.450  0.2365  0.6492  0.6943
19826TIP3    H280970   4.413   5.827   2.574 -0.1612 -1.0072  0.1732
19827TIP3   OH280971   6.699   5.381   0.094 -0.2200  0.8278 -0.2709
19827TIP3    H180972   6.711   5.439   0.019  1.4502  0.7233 -0.0854
19827TIP3    H280973   6.767   5.407   0.156 -0.3411 -0.4059  0.3885
19828TIP3   OH280974   3.875   6.265   2.000 -0.0188  0.6728 -0.2009
19828TIP3    H180975   3.896   6.241   2.090  0.7042  0.6152 -0.3874
19828TIP3    H280976   3.940   6.219   1.946 -0.5558  0.5609 -0.7654
19829TIP3   OH280977   2.157   5.529  10.773 -0.4153 -0.1382 -0.2692
19829TIP3    H180978   2.160   5.437  10.802  0.0296 -0.4175 -1.1785
19829TIP3    H280979   2.243   5.544  10.734 -0.6492  0.5427 -0.5219
19830TIP3   OH280980   6.731   3.272   3.338  0.4992 -0.1557  0.2285
19830TIP3    H180981   6.654   3.254   3.283  0.9345  0.0728 -0.4648
19830TIP3    H280982   6.696   3.281   3.426 -0.4413  1.2841 -0.2853
19831TIP3   OH280983   5.836   0.331   5.370 -0.5300 -0.4583 -0.2551
19831TIP3    H180984   5.858   0.272   5.298 -1.5792 -0.2914 -0.7166
19831TIP3    H280985   5.804   0.411   5.327  1.6453  0.7914  0.3383
19832TIP3   OH280986   6.398   1.887   5.672  0.2535  0.5276 -0.4800
19832TIP3    H180987   6.357   1.902   5.757  1.1084  0.3021 -0.0138
19832TIP3    H280988   6.477   1.941   5.674  3.1655 -3.4934  1.0768
19833TIP3   OH280989   1.045   5.226  16.476  0.0101 -0.8058  0.0710
19833TIP3    H180990   1.106   5.261  16.410  0.6166 -0.7508  0.6622
19833TIP3    H280991   0.976   5.292  16.481  0.9639  0.1509  0.9078
19834TIP3   OH280992   2.470   2.928   6.460 -0.3205 -0.2435 -0.1676
19834TIP3    H180993   2.543   2.872   6.434 -0.1510 -0.4411  0.7237
19834TIP3    H280994   2.397   2.867   6.473  0.0435 -0.3374  1.4675
19835TIP3   OH280995   6.173   1.470  13.773 -0.1839 -0.1671  0.2603
19835TIP3    H180996   6.190   1.376  13.781 -0.6321 -0.2770 -0.0464
19835TIP3    H280997   6.161   1.499  13.863  0.0255 -0.3885  0.3626
19836TIP3   OH280998   3.172   5.267  11.397 -0.0274 -0.0133  0.6211
19836TIP3    H180999   3.245   5.276  11.458 -0.4693  1.9138  0.8880
19836TIP3    H281000   3.192   5.328  11.327 -0.5000 -0.7992 -0.2150
19837TIP3   OH281001   6.281   1.956   5.055  0.4353  0.0427 -0.1946
19837TIP3    H181002   6.299   1.869   5.020  1.9886  0.4961 -0.5786
19837TIP3    H281003   6.345   2.013   5.011  0.3225  1.1458  1.0363
19838TIP3   OH281004   4.470   3.074   0.726  0.3639  0.0650  0.5338
19838TIP3    H181005   4.496   3.145   0.666  0.7668  0.0962  0.7455
19838TIP3    H281006   4.527   3.001   0.702  2.1190  0.7804  2.3971
19839TIP3   OH281007   0.342   0.060   5.777 -0.2158 -0.1846  0.1484
19839TIP3    H181008   0.398  -0.016   5.794 -1.6543 -1.3025  0.0021
19839TIP3    H281009   0.310   0.086   5.863 -0.0356  0.0183  0.1549
19840TIP3   OH281010   6.588   5.463   5.953  0.2513 -0.4151 -0.8758
19840TIP3    H181011   6.577   5.449   5.859  3.4255 -2.4341 -1.0232
19840TIP3    H281012   6.675   5.502   5.961  0.3128 -0.9329  1.2677
19841TIP3   OH281013   1.049   6.805   2.956 -0.4549 -0.7521 -0.4498
19841TIP3    H181014   1.011   6.885   2.920  0.3665  0.1265  0.5993
19841TIP3    H281015   1.011   6.797   3.043  1.0770 -0.3243  0.2748
19842TIP3   OH281016   4.196   6.448  12.034 -0.4062  0.3627 -0.1738
19842TIP3    H181017   4.125   6.394  12.000 -0.4136  0.6983 -0.6967
19842TIP3    H281018   4.206   6.518  11.970  0.3849  0.3301 -0.0895
19843TIP3   OH281019   3.363   3.558  16.136  0.3934 -0.3974 -0.8023
19843TIP3    H181020   3.424   3.521  16.200 -0.6656 -0.6635  0.0672
19843TIP3    H281021   3.347   3.486  16.074 -0.0864 -0.7583 -0.2631
19844TIP3   OH281022   5.376   5.134   3.243  0.3572 -0.2667  0.6326
19844TIP3    H181023   5.314   5.174   3.182  0.3324 -3.5209 -1.5793
19844TIP3    H281024   5.323   5.109   3.319  0.0332  1.9841  1.1933
19845TIP3   OH281025   0.250   0.952   2.120  0.5023  0.1401 -0.3338
19845TIP3    H181026   0.175   0.909   2.161  1.3246  1.1923  2.3111
19845TIP3    H281027   0.304   0.879   2.088 -0.1748 -0.7018  0.4028
19846TIP3   OH281028   4.434   5.560   1.936  0.2205 -0.4783 -0.5233
19846TIP3    H181029   4.429   5.475   1.892 -0.3453 -1.2988  1.0723
19846TIP3    H281030   4.506   5.606   1.892  1.7164 -2.4774 -0.2492
19847TIP3   OH281031   1.288   6.035  13.226 -0.5282 -0.5932 -0.0412
19847TIP3    H181032   1.317   5.956  13.273 -1.4730 -0.5568  0.6180
19847TIP3    H281033   1.369   6.076  13.196  0.1318 -0.4528  1.8468
19848TIP3   OH281034   1.560   4.791   0.329 -0.0128  0.2049 -0.0625
19848TIP3    H181035   1.556   4.725   0.398  1.5611 -0.6450 -0.7688
19848TIP3    H281036   1.564   4.741   0.248 -2.4828  1.1965 -0.8432
19849TIP3   OH281037   0.426   1.495   0.697 -0.5767  0.6762 -0.1161
19849TIP3    H181038   0.395   1.474   0.609  1.6437  2.0547 -1.2928
19849TIP3    H281039   0.405   1.587   0.709  0.1501  0.7896  0.3310
19850TIP3   OH281040   6.547   4.405  10.792 -0.3553  0.3867  0.2982
19850TIP3    H181041   6.615   4.366  10.737 -0.9742 -1.3676  0.7542
19850TIP3    H281042   6.520   4.483  10.744 -0.2616 -0.6448 -1.4701
19851TIP3   OH281043   4.720   4.998  15.693  0.2976 -0.6371 -0.0346
19851TIP3    H181044   4.746   4.931  15.755  0.9640 -0.9979 -0.7028
19851TIP3    H281045   4.796   5.011  15.637 -0.8965 -1.6717 -1.9691
19852TIP3   OH281046   4.467   2.936   4.132  0.1876 -0.4614 -0.0451
19852TIP3    H181047   4.429   3.024   4.136  2.3876  0.6189 -1.6625
19852TIP3    H281048   4.510   2.923   4.216 -0.1536 -0.0121  0.1979
19853TIP3   OH281049   3.724   1.196  13.026 -0.2525  0.0256  0.3748
19853TIP3    H181050   3.666   1.153  12.964 -0.5599  1.7648 -0.5609
19853TIP3    H281051   3.795   1.232  12.973  0.7258 -0.4753  1.3010
19854TIP3   OH281052   1.756   3.192   1.713 -0.3019  0.1331  0.4631
19854TIP3    H181053   1.806   3.239   1.780 -0.6810  2.9150 -1.1275
19854TIP3    H281054   1.823   3.150   1.658  0.1470  0.6842  0.5872
19855TIP3   OH281055   2.572   1.984  12.657  0.4820  0.0822  0.1855
19855TIP3    H181056   2.598   1.897  12.689  0.8071 -0.5670 -1.7909
19855TIP3    H281057   2.626   2.045  12.707 -1.4714 -0.6786  3.3635
19856TIP3   OH281058   0.542   1.010  16.973  0.1420  0.5342 -0.4374
19856TIP3    H181059   0.551   1.085  17.032  1.6957 -0.6268  0.8299
19856TIP3    H281060   0.507   0.940  17.028 -0.1229 -0.0410 -1.3262
19857TIP3   OH281061   6.467   6.264   1.164 -0.0068 -0.5169  0.4805
19857TIP3    H181062   6.387   6.246   1.115 -0.2157 -1.9620  1.3076
19857TIP3    H281063   6.522   6.187   1.150  1.1884  0.4183  0.0164
19858TIP3   OH281064   6.388   5.525  15.781  0.2992  0.5578 -1.2908
19858TIP3    H181065   6.326   5.597  15.792 -2.2309 -1.8445  1.2527
19858TIP3    H281066   6.374   5.494  15.692 -1.1485  0.9969 -1.2346
19859TIP3   OH281067   1.230   2.899   4.611  0.4025  0.6648  0.2604
19859TIP3    H181068   1.144   2.860   4.593  0.6026  1.4211 -2.6235
19859TIP3    H281069   1.291   2.825   4.604  0.2320  0.5555 -0.1239
19860TIP3   OH281070   3.150   2.434  12.103  0.8605  0.5738 -0.1198
19860TIP3    H181071   3.161   2.512  12.050 -0.0553  0.9388  0.2001
19860TIP3    H281072   3.186   2.363  12.050 -0.2856  0.8880 -1.3489
19861TIP3   OH281073   4.111   2.034   2.098 -0.1226  0.1496 -0.2100
19861TIP3    H181074   4.087   1.978   2.171 -0.9879 -1.9852 -2.0630
19861TIP3    H281075   4.035   2.089   2.083  0.2773  1.0048  0.8500
19862TIP3   OH281076   4.388   3.138  16.420  0.2797 -0.1767  0.4982
19862TIP3    H181077   4.411   3.213  16.474 -2.8337  1.1446  0.0968
19862TIP3    H281078   4.379   3.066  16.483 -0.0426  0.5705  1.3253
19863TIP3   OH281079   2.050   4.149   5.157 -0.8869 -0.2701  0.2796
19863TIP3    H181080   1.980   4.215   5.160  0.1039  0.8218 -0.4170
19863TIP3    H281081   2.003   4.065   5.163 -2.0997  0.4911  2.0024
19864TIP3   OH281082   2.606   4.079  15.082  1.0611 -0.2985  0.7253
19864TIP3    H181083   2.686   4.042  15.043  0.2758 -0.4061 -0.8016
19864TIP3    H281084   2.559   4.117  15.008 -0.0277  0.2771  1.7122
19865TIP3   OH281085   5.500   5.304  12.696 -0.1509  0.3887  0.0154
19865TIP3    H181086   5.541   5.223  12.665  0.2259  0.5113  0.1913
19865TIP3    H281087   5.554   5.373  12.659 -0.1180  0.5483  0.3660
19866TIP3   OH281088   4.907   0.037  13.326  0.4553  0.2993  0.0266
19866TIP3    H181089   4.991   0.076  13.349  0.0709  0.8671  0.5000
19866TIP3    H281090   4.843   0.085  13.379 -0.4423  1.5577 -2.1460
19867TIP3   OH281091   0.451   2.523   0.948  0.0286 -0.6162  0.3767
19867TIP3    H181092   0.545   2.503   0.945 -0.1056 -1.8486  2.8171
19867TIP3    H281093   0.410   2.438   0.963 -1.1338  0.4809  3.7618
19868TIP3   OH281094   1.516   6.164   2.361  0.1661  0.2974 -0.1639
19868TIP3    H181095   1.449   6.154   2.293  0.4680  0.6598 -0.5141
19868TIP3    H281096   1.469   6.150   2.443  0.2186 -2.3952 -0.5373
19869TIP3   OH281097   5.219   1.239  11.679 -0.0755 -0.6373  0.1103
19869TIP3    H181098   5.229   1.315  11.737 -0.2327  0.2558 -1.0183
19869TIP3    H281099   5.193   1.168  11.737 -1.2797  0.5091  0.9873
19870TIP3   OH281100   1.158   3.412  15.052 -0.1553  0.2274  0.2779
19870TIP3    H181101   1.077   3.447  15.016  0.4541  1.1817 -0.2137
19870TIP3    H281102   1.135   3.326  15.087 -1.1426  0.0439 -0.8025
19871TIP3   OH281103   2.610   5.701   1.888 -0.5288  0.5692  0.5095
19871TIP3    H181104   2.671   5.746   1.946 -0.9009  0.7288  0.7782
19871TIP3    H281105   2.535   5.680   1.944 -0.4985 -0.0863  0.3079
19872TIP3   OH281106   2.090   5.470  12.541  0.3458  0.2059  0.3713
19872TIP3    H181107   2.073   5.460  12.634 -1.4170  2.1255  0.3013
19872TIP3    H281108   2.041   5.398  12.500  2.0085 -1.3014  0.9602
19873TIP3   OH281109   2.445   4.628  14.285 -0.2503 -0.1244  0.7878
19873TIP3    H181110   2.422   4.622  14.192 -0.0179  1.3969  0.6313
19873TIP3    H281111   2.361   4.628  14.331 -0.3755 -0.4727  0.5629
19874TIP3   OH281112   4.977   5.846   1.126 -0.6297  0.1720 -0.0764
19874TIP3    H181113   4.987   5.807   1.040 -0.2292  0.5343 -0.1967
19874TIP3    H281114   4.884   5.864   1.134 -0.9543 -1.6444  0.3498
19875TIP3   OH281115   1.679   4.536  15.222  0.6117 -0.1398  0.0010
19875TIP3    H181116   1.668   4.613  15.166  1.2425  0.3166  0.4868
19875TIP3    H281117   1.772   4.513  15.213  0.7472  0.0020  0.9146
19876TIP3   OH281118   0.353   2.556   3.111 -0.0640  0.2847 -0.6109
19876TIP3    H181119   0.374   2.536   3.202 -0.4889  0.4196 -0.4808
19876TIP3    H281120   0.407   2.632   3.091  1.0617 -0.5783 -0.9046
19877TIP3   OH281121   5.680   4.700  15.018 -0.3136  0.4068 -0.0788
19877TIP3    H181122   5.727   4.736  15.093  0.0681 -1.7526  0.7571
19877TIP3    H281123   5.748   4.665  14.961 -0.7482 -0.3498 -0.1402
19878TIP3   OH281124   2.506   5.047  11.785  0.5041 -0.3302  0.1354
19878TIP3    H181125   2.423   5.016  11.821 -0.0669 -0.6007 -1.3630
19878TIP3    H281126   2.508   5.140  11.805 -1.6976  0.3879 -2.6041
19879TIP3   OH281127   6.752   6.746   1.808  0.1714  0.6580 -0.1073
19879TIP3    H181128   6.806   6.677   1.769 -0.6057  1.2733 -2.3046
19879TIP3    H281129   6.676   6.699   1.844  0.1163  0.2503 -0.7453
19880TIP3   OH281130   3.949   0.174   5.355 -0.4301 -0.5675  0.0771
19880TIP3    H181131   4.009   0.122   5.302 -0.7797 -1.0530  0.1560
19880TIP3    H281132   3.878   0.114   5.378 -1.1590  0.1103 -0.3623
19881TIP3   OH281133   6.062   1.896  12.646  0.2709  0.0445 -0.1377
19881TIP3    H181134   6.075   1.805  12.673 -2.3548  0.4726  2.7406
19881TIP3    H281135   5.984   1.894  12.591  1.1553  0.3738 -1.4520
19882TIP3   OH281136   3.346   0.985   0.067  0.3697 -0.2862  0.5010
19882TIP3    H181137   3.403   1.061   0.062  0.0108 -0.0783 -0.4685
19882TIP3    H281138   3.397   0.920   0.114  1.8503 -0.4876 -1.3286
19883TIP3   OH281139   1.066   2.279  11.281 -0.1616 -0.3344  0.4493
19883TIP3    H181140   0.996   2.308  11.222  1.5952 -1.3808 -2.2266
19883TIP3    H281141   1.032   2.198  11.320 -0.7163 -0.4963 -0.3477
19884TIP3   OH281142   5.558   4.071  15.565 -0.2340  0.6008  0.2397
19884TIP3    H181143   5.505   4.085  15.486 -0.6848  0.8980  0.5940
19884TIP3    H281144   5.495   4.039  15.630 -0.1636  1.8808  0.9432
19885TIP3   OH281145   3.596   5.786   2.074  0.1278  0.1357 -0.1537
19885TIP3    H181146   3.639   5.774   2.160 -1.8967  1.3458  1.0516
19885TIP3    H281147   3.619   5.875   2.048  1.4409 -0.5237 -1.2936
19886TIP3   OH281148   5.342   4.561   1.769  0.5329  0.5579 -0.4914
19886TIP3    H181149   5.265   4.586   1.820  1.5497  0.2454  1.2057
19886TIP3    H281150   5.326   4.601   1.683 -0.8045  1.8049  0.2965
19887TIP3   OH281151   6.605   4.776   5.722  0.3403 -0.4911 -0.3289
19887TIP3    H181152   6.536   4.741   5.665  0.3162 -0.5880 -0.2419
19887TIP3    H281153   6.684   4.774   5.668 -0.1374  1.6444 -1.1508
19888TIP3   OH281154   4.201   5.551   1.481  0.0405 -0.8698 -0.3142
19888TIP3    H181155   4.152   5.502   1.416 -0.0554 -2.5735  1.0015
19888TIP3    H281156   4.193   5.500   1.561  1.5231  0.3280  0.6403
19889TIP3   OH281157   4.554   2.548  13.899 -0.2534  0.1393  0.0375
19889TIP3    H181158   4.616   2.481  13.927 -0.6167 -0.1116  0.2378
19889TIP3    H281159   4.499   2.564  13.976 -1.6812 -1.0314 -0.7292
19890TIP3   OH281160   4.096   2.823   4.400  0.3774  0.5500 -0.0942
19890TIP3    H181161   4.061   2.758   4.461 -0.1982  0.8371 -0.1174
19890TIP3    H281162   4.185   2.839   4.430  0.3249  0.1811  0.2591
19891TIP3   OH281163   3.027   4.341  11.626  0.2419  0.4806  0.5765
19891TIP3    H181164   3.014   4.362  11.533  2.1691 -3.3863 -0.6934
19891TIP3    H281165   3.096   4.400  11.654  0.1755  1.1787 -0.6891
19892TIP3   OH281166   3.823   6.428  12.568 -0.0442  0.4838  0.1353
19892TIP3    H181167   3.731   6.441  12.593  0.2071  0.8785  0.8742
19892TIP3    H281168   3.819   6.400  12.477 -0.8930  0.6856  0.1026
19893TIP3   OH281169   4.751   1.070   3.549 -0.2533  0.3157  0.1039
19893TIP3    H181170   4.663   1.106   3.557 -0.0865  0.9392 -0.7667
19893TIP3    H281171   4.807   1.135   3.593 -0.0448  0.7221 -0.7557
19894TIP3   OH281172   5.685   2.843   5.325  0.1087 -0.5681  0.3068
19894TIP3    H181173   5.612   2.873   5.379  0.5796 -1.9898  1.7932
19894TIP3    H281174   5.728   2.776   5.379  0.7784 -1.8172 -1.7164
19895TIP3   OH281175   3.778   2.687   1.775  0.3417 -0.3143  0.0603
19895TIP3    H181176   3.849   2.736   1.733 -1.6465  1.4939 -1.3141
19895TIP3    H281177   3.738   2.751   1.834  0.0602 -1.4109  1.0493
19896TIP3   OH281178   1.697   4.799  17.172  0.2016 -0.6328 -0.7937
19896TIP3    H181179   1.636   4.864  17.208  2.1696  0.5357  0.5195
19896TIP3    H281180   1.664   4.715  17.205 -1.4619 -0.1614 -1.2030
19897TIP3   OH281181   6.696   4.690  15.151  0.5686 -0.7068  0.2429
19897TIP3    H181182   6.758   4.736  15.206  0.4188 -0.0177 -0.1607
19897TIP3    H281183   6.727   4.600  15.149  0.5745 -0.7311  1.4460
19898TIP3   OH281184   6.365   4.500  10.412  0.3896  0.2892  0.3045
19898TIP3    H181185   6.351   4.456  10.496  1.1457  0.4020  0.4884
19898TIP3    H281186   6.459   4.512  10.406  0.3421  0.3037 -0.5567
19899TIP3   OH281187   1.634   3.504   3.279  0.0710 -0.2856  0.0965
19899TIP3    H181188   1.721   3.476   3.307  0.8069  0.9948 -0.9023
19899TIP3    H281189   1.581   3.501   3.359  1.2287 -0.2408  0.8687
19900TIP3   OH281190   4.365   3.195   5.433 -0.2055  0.6708 -0.3930
19900TIP3    H181191   4.345   3.127   5.368  1.3120 -0.2285  0.0526
19900TIP3    H281192   4.448   3.232   5.404  0.6357  0.0569  1.2029
19901TIP3   OH281193   0.426   4.780   5.735  0.6089 -0.0440 -0.1251
19901TIP3    H181194   0.487   4.770   5.663  1.3027  0.0313  0.4421
19901TIP3    H281195   0.476   4.827   5.802  0.2760 -0.9566  0.7697
19902TIP3   OH281196   0.071   0.344  15.259  0.5756 -0.4563  0.0162
19902TIP3    H181197   0.106   0.273  15.205 -0.4827  0.2053 -1.5690
19902TIP3    H281198   0.055   0.416  15.198  0.7586  0.8309  1.4591
19903TIP3   OH281199   1.324   5.869   3.703 -0.5743  1.1462 -0.4825
19903TIP3    H181200   1.404   5.828   3.736 -1.5478 -0.3835  0.0533
19903TIP3    H281201   1.352   5.956   3.673  1.4842  0.1963 -1.4119
19904TIP3   OH281202   4.492   2.211  13.598 -0.6594  0.2267  0.7155
19904TIP3    H181203   4.487   2.239  13.507  0.3311 -0.8780  0.3089
19904TIP3    H281204   4.472   2.289  13.649  2.1168  1.7082 -0.3919
19905TIP3   OH281205   0.892   4.467  14.436  0.0166 -0.4816  0.0460
19905TIP3    H181206   0.875   4.376  14.410  0.0774 -0.8487  1.2942
19905TIP3    H281207   0.956   4.460  14.507 -0.2972  0.5197  0.4245
19906TIP3   OH281208   4.805   1.658  16.750 -0.3492 -0.4324 -0.2020
19906TIP3    H181209   4.768   1.624  16.831 -0.5725 -3.5802 -1.5820
19906TIP3    H281210   4.778   1.596  16.683 -1.0088  2.6563 -2.8850
19907TIP3   OH281211   1.867   2.373   0.269  0.1030 -0.4413  0.0229
19907TIP3    H181212   1.960   2.372   0.247  0.3465 -1.1693  1.0643
19907TIP3    H281213   1.862   2.422   0.351 -0.7490  1.8663 -1.3630
19908TIP3   OH281214   2.859   4.036   5.855 -0.0562 -0.1438 -0.3801
19908TIP3    H181215   2.924   3.995   5.797  0.4703  0.4747 -0.2383
19908TIP3    H281216   2.780   3.984   5.843 -0.6297  1.3185 -3.3885
19909TIP3   OH281217   1.079   2.011  13.412 -0.0009 -0.3321 -0.3177
19909TIP3    H181218   1.161   1.962  13.416  0.4903  0.5850  1.3699
19909TIP3    H281219   1.075   2.045  13.323  2.3578  1.1358  0.1057
19910TIP3   OH281220   6.813   6.464  13.318 -0.1110  0.6197  0.0779
19910TIP3    H181221   6.765   6.512  13.250 -0.9843 -1.0167 -0.4774
19910TIP3    H281222   6.752   6.461  13.392 -1.1283 -1.9068 -0.8032
19911TIP3   OH281223   0.730   2.823   3.182  0.4663 -0.3140 -0.4400
19911TIP3    H181224   0.647   2.784   3.210 -0.7518  2.0560 -0.6200
19911TIP3    H281225   0.705   2.890   3.119  2.5439  0.2498 -0.6968
19912TIP3   OH281226   3.355   2.987  13.720  0.6020 -0.2041  0.2081
19912TIP3    H181227   3.317   2.946  13.642 -0.2959  1.1253 -0.0722
19912TIP3    H281228   3.441   3.017  13.692  0.6226 -0.4873 -0.0344
19913TIP3   OH281229   1.435   0.512  13.246 -0.1360 -0.0294 -0.6054
19913TIP3    H181230   1.382   0.434  13.262 -0.0997 -0.0467 -0.5690
19913TIP3    H281231   1.389   0.559  13.176  0.1051 -0.3276 -0.9631
19914TIP3   OH281232   6.134   3.891   5.212 -0.4109  0.1407  0.5978
19914TIP3    H181233   6.208   3.839   5.245 -0.3759 -0.9261 -1.0867
19914TIP3    H281234   6.144   3.976   5.254  1.3473 -0.2303  0.9912
19915TIP3   OH281235   3.693   3.096  12.420  0.3812 -0.4329  0.2874
19915TIP3    H181236   3.751   3.114  12.346 -0.2534 -2.0998 -0.6338
19915TIP3    H281237   3.608   3.075  12.380 -0.2505 -0.3019  1.5274
19916TIP3   OH281238   5.285   6.607   6.389  0.2144  0.1350  0.4821
19916TIP3    H181239   5.368   6.629   6.346 -0.8742  1.2025 -1.1425
19916TIP3    H281240   5.262   6.686   6.438  0.9788 -0.7530  2.2919
19917TIP3   OH281241   4.820   4.665   5.186 -0.4133  0.4533  0.2536
19917TIP3    H181242   4.809   4.745   5.237  0.1203 -0.6325  2.1469
19917TIP3    H281243   4.822   4.595   5.252  0.1666 -1.0113 -1.2735
19918TIP3   OH281244   6.541   0.249  14.920 -0.5203 -0.0186  0.7204
19918TIP3    H181245   6.474   0.246  14.853 -1.8085 -0.8109  2.0160
19918TIP3    H281246   6.623   0.259  14.872 -1.2870 -1.9634 -1.0221
19919TIP3   OH281247   2.996   0.840  10.673 -0.0862  0.2975 -0.0435
19919TIP3    H181248   2.958   0.832  10.761 -0.4504  1.7725 -0.0638
19919TIP3    H281249   3.090   0.852  10.689 -0.1922  0.8681  0.1558
19920TIP3   OH281250   0.872   3.233  15.316  0.7750  0.3706  0.2560
19920TIP3    H181251   0.847   3.232  15.223  0.8773 -1.4575  0.2330
19920TIP3    H281252   0.946   3.294  15.320  1.9819 -0.9723 -1.1857
19921TIP3   OH281253   2.626   0.702  11.545  0.1649 -0.4553  0.1684
19921TIP3    H181254   2.655   0.627  11.493  0.2793  0.1755 -0.6966
19921TIP3    H281255   2.600   0.767  11.480 -0.3079  0.1112  0.9157
19922TIP3   OH281256   5.560   1.014  14.704 -0.3361 -0.1422  0.1082
19922TIP3    H181257   5.585   0.925  14.680 -0.2181  0.0017 -0.2967
19922TIP3    H281258   5.550   1.011  14.800 -0.6067 -0.6572  0.0664
19923TIP3   OH281259   4.208   5.187  16.542 -0.3914 -0.0285 -0.6161
19923TIP3    H181260   4.174   5.246  16.609 -1.1624 -0.1014 -0.9359
19923TIP3    H281261   4.134   5.173  16.482  0.0909 -0.4908 -1.1125
19924TIP3   OH281262   3.323   3.566   4.461  0.6503 -0.3058 -0.2194
19924TIP3    H181263   3.286   3.626   4.396  2.0864 -1.1943 -1.8746
19924TIP3    H281264   3.260   3.568   4.533  0.0724  2.2969 -0.7253
19925TIP3   OH281265   5.279   3.283   5.591 -0.5927  0.2089 -0.0989
19925TIP3    H181266   5.308   3.258   5.678 -2.6234 -0.9742  0.2865
19925TIP3    H281267   5.249   3.373   5.601 -0.7295  0.1107  0.4049
19926TIP3   OH281268   3.884   4.778   5.476 -0.1757 -0.2378  0.1146
19926TIP3    H181269   3.957   4.755   5.533 -0.2172 -2.1260 -0.5588
19926TIP3    H281270   3.846   4.856   5.516  1.8537  0.4328  0.7809
19927TIP3   OH281271   1.516   4.173   3.048 -0.3034 -0.3496  0.3274
19927TIP3    H181272   1.469   4.238   2.996 -0.0912 -0.9396 -0.6202
19927TIP3    H281273   1.492   4.089   3.007 -0.2988 -0.8370  1.3150
19928TIP3   OH281274   6.429   1.535  13.547  0.3230  0.1602  0.2442
19928TIP3    H181275   6.414   1.453  13.499  0.9217  0.0646  0.2218
19928TIP3    H281276   6.419   1.511  13.639 -0.7701  0.3315  0.1768
19929TIP3   OH281277   0.437   5.316   4.168  0.3369  0.5703 -0.2078
19929TIP3    H181278   0.459   5.409   4.166  1.7511  0.2475 -0.0225
19929TIP3    H281279   0.457   5.289   4.257  1.8717 -0.3623 -0.8205
19930TIP3   OH281280   3.652   0.198   5.680 -0.0906  0.2510 -0.3449
19930TIP3    H181281   3.729   0.229   5.729 -0.4205 -2.6980  2.1669
19930TIP3    H281282   3.605   0.278   5.658  2.4419  1.9719  0.1978
19931TIP3   OH281283   5.820   3.567  11.375 -0.6184  0.2706  0.0446
19931TIP3    H181284   5.729   3.539  11.389 -0.1309  0.3801  4.0801
19931TIP3    H281285   5.823   3.655  11.414  0.7900  1.0555 -1.7793
19932TIP3   OH281286   1.233   0.395   4.102 -0.3514 -0.5540  0.3548
19932TIP3    H181287   1.206   0.419   4.014  0.1316 -2.9308 -0.4732
19932TIP3    H281288   1.159   0.346   4.137 -0.3188 -0.0921  1.0895
19933TIP3   OH281289   1.965   1.423   0.984 -0.4395  0.2318  0.1302
19933TIP3    H181290   2.043   1.369   0.969 -0.3864 -0.3036  2.1910
19933TIP3    H281291   1.896   1.380   0.934  0.1015 -0.4974 -0.0022
19934TIP3   OH281292   5.719   5.695   0.824 -0.1829 -0.3324  0.4344
19934TIP3    H181293   5.641   5.748   0.811 -1.9317 -3.0390 -0.6130
19934TIP3    H281294   5.757   5.727   0.906 -2.1525  1.3317  0.7196
19935TIP3   OH281295   5.099   4.073   3.879 -0.5227 -0.8789  0.3100
19935TIP3    H181296   5.015   4.099   3.842  0.8634  3.6023  0.0429
19935TIP3    H281297   5.145   4.031   3.805 -1.3445 -0.5521 -0.3934
19936TIP3   OH281298   0.317   2.916  14.426  0.3026  0.0448 -0.1259
19936TIP3    H181299   0.390   2.896  14.367  0.3969  1.3333 -0.4628
19936TIP3    H281300   0.335   2.864  14.504  2.3346  1.3903  0.3514
19937TIP3   OH281301   0.862   5.895  15.718 -0.0318  0.3797 -0.1837
19937TIP3    H181302   0.907   5.966  15.763 -0.1208 -0.3940  1.1413
19937TIP3    H281303   0.902   5.816  15.751 -1.4225 -0.2711 -0.0155
19938TIP3   OH281304   5.982   4.703  11.420 -0.1073 -0.7504  0.0552
19938TIP3    H181305   6.052   4.638  11.412 -0.9028 -1.7056  0.8211
19938TIP3    H281306   5.908   4.665  11.374 -1.1683 -1.2502  2.1021
19939TIP3   OH281307   3.743   3.670  13.177 -0.7028  0.7420  0.5509
19939TIP3    H181308   3.716   3.760  13.198 -0.8708  0.7699  0.2354
19939TIP3    H281309   3.780   3.636  13.258  0.0217  1.3386  0.4692
19940TIP3   OH281310   5.932   0.948   2.986 -0.0954 -0.6166 -0.7876
19940TIP3    H181311   5.857   0.894   3.014  0.2666 -0.9502 -0.4608
19940TIP3    H281312   5.953   1.001   3.063  0.0080 -0.5257 -0.8790
19941TIP3   OH281313   5.242   3.979   1.131 -0.5647  0.1971  0.3566
19941TIP3    H181314   5.310   3.912   1.122  0.3460  1.0706  0.5850
19941TIP3    H281315   5.244   4.002   1.224 -2.6081 -1.2357  0.7824
19942TIP3   OH281316   0.464   5.055   3.711  0.7930  0.0205  0.1123
19942TIP3    H181317   0.523   5.089   3.779  1.5345 -0.0261 -0.5001
19942TIP3    H281318   0.376   5.079   3.741  1.1770  0.7673  0.6543
19943TIP3   OH281319   2.825   1.329   0.073 -0.4774 -0.0539 -0.1448
19943TIP3    H181320   2.760   1.315   0.004 -1.2480 -1.0235  0.7606
19943TIP3    H281321   2.793   1.406   0.120  0.3077  0.9033 -1.1509
19944TIP3   OH281322   5.206   1.567   1.420 -0.0122  0.6684  0.2219
19944TIP3    H181323   5.226   1.646   1.370 -2.2430  0.8722 -0.3957
19944TIP3    H281324   5.291   1.525   1.433  1.1900  3.0559  0.4153
19945TIP3   OH281325   0.635   6.700  11.624 -0.0087 -0.3195 -0.1812
19945TIP3    H181326   0.596   6.673  11.541 -1.2988  1.0430 -0.0321
19945TIP3    H281327   0.599   6.787  11.641  3.1434  1.0445 -0.0623
19946TIP3   OH281328   3.250   4.910  14.174  0.3669 -0.3026 -0.2491
19946TIP3    H181329   3.203   4.963  14.240 -1.0136 -0.0644 -1.3902
19946TIP3    H281330   3.280   4.833  14.222 -1.2842 -0.4999  0.5203
19947TIP3   OH281331   6.582   6.344   2.787  0.4468  0.3960  0.3917
19947TIP3    H181332   6.541   6.276   2.734  0.0653  1.0679 -0.1799
19947TIP3    H281333   6.591   6.305   2.874  0.2135 -0.3761  0.0716
19948TIP3   OH281334   1.180   0.897   6.031  0.5358 -0.1239 -0.5057
19948TIP3    H181335   1.185   0.976   6.084 -0.7953 -0.9903  0.9571
19948TIP3    H281336   1.193   0.927   5.941 -0.4047  1.7922 -0.0194
19949TIP3   OH281337   1.280   1.718   5.020 -0.4030 -0.6602 -0.0255
19949TIP3    H181338   1.357   1.751   5.067  0.1716  0.7911 -1.8925
19949TIP3    H281339   1.214   1.704   5.087  0.8942 -0.1032  1.3804
19950TIP3   OH281340   0.468   5.863  16.765  0.0282 -0.2703  0.2820
19950TIP3    H181341   0.399   5.903  16.818 -0.7866 -0.7161 -0.4351
19950TIP3    H281342   0.517   5.808  16.826 -0.6495 -0.4616  0.6535
19951TIP3   OH281343   0.933   2.869   5.611 -0.2139  0.0611  0.8117
19951TIP3    H181344   1.002   2.816   5.649  0.1021 -0.4349 -0.4517
19951TIP3    H281345   0.857   2.811   5.608 -0.5278  0.4164  1.6184
19952TIP3   OH281346   1.395   1.113   1.263  0.5094 -0.4809 -0.3561
19952TIP3    H181347   1.404   1.019   1.275  1.8228 -0.4331 -0.8762
19952TIP3    H281348   1.301   1.128   1.255  0.2532 -1.6678  0.3154
19953TIP3   OH281349   6.190   2.567  15.304  0.4091  0.4206 -0.0674
19953TIP3    H181350   6.165   2.508  15.234 -1.6440 -1.8321  2.4523
19953TIP3    H281351   6.108   2.606  15.334  1.0725  0.3628  1.9154
19954TIP3   OH281352   0.851   4.936   4.028 -0.2244 -0.6025 -0.2126
19954TIP3    H181353   0.934   4.976   4.003  0.1356 -1.6998 -0.8482
19954TIP3    H281354   0.865   4.842   4.012 -1.0164 -0.9877  1.2748
19955TIP3   OH281355   5.087   4.421   5.832  0.3911  0.2856  0.2441
19955TIP3    H181356   5.046   4.358   5.892 -0.6043  0.0685 -0.6474
19955TIP3    H281357   5.034   4.500   5.840  0.1146  0.1862 -0.4967
19956TIP3   OH281358   1.717   2.141  13.651 -0.4066  0.0608 -0.1286
19956TIP3    H181359   1.774   2.066  13.671 -0.8242 -0.6753 -1.6342
19956TIP3    H281360   1.681   2.166  13.736  2.1463  0.5463  0.8425
19957TIP3   OH281361   5.967   3.687   1.848  0.5570  0.2300  0.0857
19957TIP3    H181362   5.896   3.713   1.906 -0.4871 -0.2321 -0.9685
19957TIP3    H281363   6.021   3.629   1.901 -1.0659 -1.1883  0.2460
19958TIP3   OH281364   6.595   4.357   3.236  0.1136 -0.0166  0.1404
19958TIP3    H181365   6.613   4.359   3.330 -0.6334  2.5018  0.2557
19958TIP3    H281366   6.500   4.368   3.229  0.2086  0.1832 -0.9083
19959TIP3   OH281367   2.638   6.287  14.315  0.1811 -0.0360 -0.4331
19959TIP3    H181368   2.602   6.315  14.399  1.1902 -0.6891  0.2258
19959TIP3    H281369   2.691   6.210  14.335  1.9214  0.8646 -1.3816
19960TIP3   OH281370   3.928   6.629  14.877  0.1889  0.2241 -0.0784
19960TIP3    H181371   3.981   6.661  14.804 -1.7374 -0.1319 -1.6703
19960TIP3    H281372   3.912   6.707  14.931  1.9415  0.4123  0.1909
19961TIP3   OH281373   5.668   3.318  12.330 -0.1363  0.5492 -0.2439
19961TIP3    H181374   5.732   3.325  12.259  0.0776  0.7623 -0.0322
19961TIP3    H281375   5.595   3.374  12.303  0.6675  1.9687  0.4736
19962TIP3   OH281376   2.843   4.097   2.482 -0.1785  0.1962 -0.2722
19962TIP3    H181377   2.845   4.112   2.576  0.1121 -0.6738 -0.1362
19962TIP3    H281378   2.811   4.008   2.472  2.0153 -0.5509 -0.9101
19963TIP3   OH281379   0.505   0.173   1.154 -1.3126  0.6005 -0.3170
19963TIP3    H181380   0.497   0.081   1.126 -3.7159  1.2151 -1.8456
19963TIP3    H281381   0.418   0.195   1.187 -0.7715  2.3720 -0.0592
19964TIP3   OH281382   3.550   0.352  13.963 -0.3508 -0.3214  0.1126
19964TIP3    H181383   3.633   0.398  13.972 -0.4482 -0.4225  1.5860
19964TIP3    H281384   3.544   0.296  14.040 -1.7429 -0.3725 -0.0111
19965TIP3   OH281385   2.107   1.800  13.207  0.1967 -0.0557 -0.4847
19965TIP3    H181386   2.195   1.779  13.239 -0.3288 -0.8930  0.4355
19965TIP3    H281387   2.060   1.717  13.208 -0.5938  0.3740 -1.0412
19966TIP3   OH281388   5.348   5.812   5.315 -0.0478 -0.1394 -0.0634
19966TIP3    H181389   5.298   5.834   5.394  0.0188 -2.6819  0.7368
19966TIP3    H281390   5.281   5.798   5.248 -0.1834  0.4708 -0.0588
19967TIP3   OH281391   3.789   4.994   3.551  0.2362  0.3107 -0.3480
19967TIP3    H181392   3.711   4.940   3.540  0.3315  0.4412 -1.6828
19967TIP3    H281393   3.862   4.932   3.547  0.2155  0.2128  0.7125
19968TIP3   OH281394   4.463   2.336  16.867  0.1586  0.4473 -0.1557
19968TIP3    H181395   4.378   2.300  16.841  0.3759 -0.7626  0.8032
19968TIP3    H281396   4.523   2.261  16.867  0.7138  0.8700  1.4352
19969TIP3   OH281397   0.372   0.125   3.035  0.1390 -0.3503  0.5003
19969TIP3    H181398   0.429   0.195   3.005 -1.0384  0.1327 -0.6662
19969TIP3    H281399   0.407   0.046   2.993  0.7080 -0.2585  0.8023
19970TIP3   OH281400   5.425   6.456  15.660 -0.3493 -0.0534  0.5882
19970TIP3    H181401   5.422   6.543  15.621  3.0987  0.8296  2.1443
19970TIP3    H281402   5.377   6.465  15.742  0.6614  0.6070  1.1182
19971TIP3   OH281403   2.256   2.700  12.953 -0.0629  0.1979 -0.3892
19971TIP3    H181404   2.217   2.686  12.866 -0.0008  0.2735 -0.4284
19971TIP3    H281405   2.263   2.795  12.961 -1.7147  0.2781  0.4202
19972TIP3   OH281406   4.808   3.892  15.564  0.2292  0.5645  0.1997
19972TIP3    H181407   4.714   3.912  15.559  0.2375  0.5036 -0.2209
19972TIP3    H281408   4.851   3.973  15.538  0.2720  0.1933 -0.9029
19973TIP3   OH281409   4.947   4.510  15.990  0.9849 -0.1367 -0.1072
19973TIP3    H181410   4.980   4.580  16.046  0.0981 -1.2720  1.8957
19973TIP3    H281411   5.025   4.464  15.959  1.4753  0.5189  0.1486
19974TIP3   OH281412   4.280   4.414   0.601 -0.5998  0.5719 -0.1397
19974TIP3    H181413   4.268   4.360   0.679  1.5067  1.1781  0.6548
19974TIP3    H281414   4.201   4.468   0.596 -1.2628 -0.2868  0.9051
19975TIP3   OH281415   4.027   2.632  10.784  0.1415  0.1783  0.1479
19975TIP3    H181416   4.037   2.589  10.700 -0.9792  1.7148 -0.8017
19975TIP3    H281417   4.017   2.561  10.847 -0.0060 -0.9652 -1.1481
19976TIP3   OH281418   6.055   4.475  14.330 -0.8608  0.3064 -0.0187
19976TIP3    H181419   6.089   4.453  14.417  0.1391 -0.1939 -0.5225
19976TIP3    H281420   6.000   4.400  14.307 -1.0554  0.3995  0.1321
19977TIP3   OH281421   1.689   4.867  13.004  0.2726 -0.5936  0.2082
19977TIP3    H181422   1.618   4.837  13.061  1.5561 -1.2338  1.4954
19977TIP3    H281423   1.741   4.788  12.987 -0.6098 -0.6250 -2.6562
19978TIP3   OH281424   2.421   1.213   1.183  0.5002 -0.3723  0.2660
19978TIP3    H181425   2.480   1.254   1.246  1.6949 -2.3320  0.4601
19978TIP3    H281426   2.450   1.246   1.098  1.6408 -1.0285  0.3960
19979TIP3   OH281427   3.419   1.609   0.121  0.1812  0.0007 -0.2778
19979TIP3    H181428   3.348   1.648   0.070 -0.4054  0.0685  0.5913
19979TIP3    H281429   3.460   1.682   0.166  0.3962 -0.1203 -0.2752
19980TIP3   OH281430   1.441   1.865  14.760  0.2432 -0.3996 -0.1007
19980TIP3    H181431   1.488   1.942  14.728 -0.6108  0.8287  1.5243
19980TIP3    H281432   1.369   1.901  14.812  0.2901 -2.2953  1.3266
19981TIP3   OH281433   2.668   5.203  16.272  0.4657 -0.3152  0.1020
19981TIP3    H181434   2.599   5.265  16.248  2.5867  1.8198 -0.7544
19981TIP3    H281435   2.628   5.117  16.262 -2.2350  0.8613  0.2278
19982TIP3   OH281436   3.017   2.982   4.559 -0.3274  0.1478 -0.2222
19982TIP3    H181437   2.932   2.968   4.601 -0.4100 -0.3229 -0.5468
19982TIP3    H281438   3.076   2.921   4.603 -0.4647 -0.5028 -0.9539
19983TIP3   OH281439   1.290   4.248   1.299  0.2831 -0.2225 -0.0902
19983TIP3    H181440   1.268   4.192   1.373  0.1169  1.3410  1.0692
19983TIP3    H281441   1.276   4.337   1.331  0.6047  0.4962 -1.8750
19984TIP3   OH281442   5.353   0.253  15.386  0.6417 -0.2165 -0.0633
19984TIP3    H181443   5.408   0.299  15.449  2.0928 -4.3702  1.9321
19984TIP3    H281444   5.415   0.203  15.332 -0.9518 -2.1640 -0.1756
19985TIP3   OH281445   3.310   3.929   2.333  0.2299 -0.0561 -0.1235
19985TIP3    H181446   3.294   3.986   2.408 -1.5278  0.2852 -0.7428
19985TIP3    H281447   3.406   3.924   2.327  0.3967 -0.5901  2.5053
19986TIP3   OH281448   0.108   2.075  10.471 -0.4297  0.1748 -0.2433
19986TIP3    H181449   0.072   2.162  10.451 -1.4239 -0.5567 -1.7495
19986TIP3    H281450   0.056   2.044  10.545 -0.5828  0.5517 -0.1888
19987TIP3   OH281451   4.038   0.697   4.289  0.0244 -0.1174 -0.1321
19987TIP3    H181452   4.013   0.695   4.381  0.6150 -0.3238  0.0271
19987TIP3    H281453   3.971   0.645   4.244 -0.1194 -0.2315  0.2149
19988TIP3   OH281454   0.524   0.855  11.486  0.0735  1.0315  0.1219
19988TIP3    H181455   0.529   0.807  11.403  1.8632  0.0314  0.7671
19988TIP3    H281456   0.488   0.791  11.548 -1.3514  1.8065  0.1057
19989TIP3   OH281457   1.654   3.395   1.139  0.0648 -0.1207  0.5275
19989TIP3    H181458   1.708   3.363   1.067  0.6907 -0.1550  1.0084
19989TIP3    H281459   1.575   3.428   1.097  1.7036  2.6680 -0.4597
19990TIP3   OH281460   1.406   0.617   0.688  0.3115 -0.0330  0.1692
19990TIP3    H181461   1.436   0.702   0.655 -0.2786 -0.4775 -1.5737
19990TIP3    H281462   1.323   0.636   0.731 -0.3183  0.1371 -1.0951
19991TIP3   OH281463   5.114   5.323  15.779 -0.4513  0.0882 -0.6745
19991TIP3    H181464   5.054   5.305  15.852  0.7196 -0.9254  0.0700
19991TIP3    H281465   5.123   5.418  15.779 -2.1980  0.2673 -0.9189
19992TIP3   OH281466   3.047   6.217   5.468 -0.5144 -0.2592 -0.1011
19992TIP3    H181467   2.992   6.236   5.543  0.7365  0.1095  0.7399
19992TIP3    H281468   3.081   6.129   5.485  0.6599  0.2664  0.3298
19993TIP3   OH281469   2.799   2.223   6.422 -0.4206  0.1466  0.0367
19993TIP3    H181470   2.813   2.313   6.396  0.3668  0.2031  0.6391
19993TIP3    H281471   2.818   2.171   6.344 -0.4879  0.4715 -0.1936
19994TIP3   OH281472   0.614   1.903  15.747 -0.2861  0.0807 -0.0133
19994TIP3    H181473   0.623   1.880  15.839 -1.6861  4.0538  1.2037
19994TIP3    H281474   0.693   1.868  15.705  1.5075  0.2619  3.1172
19995TIP3   OH281475   3.892   3.851  14.346  1.0010  0.4958  0.4860
19995TIP3    H181476   3.906   3.936  14.305  2.4420 -0.1330 -0.3791
19995TIP3    H281477   3.898   3.788  14.275  2.8415 -0.5507  1.4959
19996TIP3   OH281478   3.001   4.581  11.938  0.2659  0.6567  0.0549
19996TIP3    H181479   2.998   4.535  12.022  0.7313 -0.4307 -0.5183
19996TIP3    H281480   2.922   4.554  11.892  1.5504 -1.2362 -1.1243
19997TIP3   OH281481   2.923   2.171   4.346  0.0598  0.0154  0.1433
19997TIP3    H181482   2.931   2.265   4.330  1.7643  0.1532  1.6523
19997TIP3    H281483   3.014   2.140   4.354 -0.4802 -1.7533 -0.2895
19998TIP3   OH281484   6.418   4.015   5.209  0.3298  0.0557  0.4533
19998TIP3    H181485   6.415   3.946   5.275  0.3268  2.1707  2.7353
19998TIP3    H281486   6.500   4.062   5.226  1.4978 -0.7707 -2.5645
19999TIP3   OH281487   4.147   1.759  11.737 -0.5987 -0.2002  0.5797
19999TIP3    H181488   4.083   1.687  11.736 -0.8575  0.0362 -1.4531
19999TIP3    H281489   4.231   1.716  11.750 -0.9483 -0.6893  1.2863
20000TIP3   OH281490   2.236   0.812  10.271 -0.3873  0.0996  0.0556
20000TIP3    H181491   2.163   0.867  10.242 -1.3212 -0.2798  1.6312
20000TIP3    H281492   2.229   0.810  10.366  2.6900  1.3881  0.3541
20001TIP3   OH281493   5.386   2.110  13.594  0.3023 -0.3857  0.5525
20001TIP3    H181494   5.350   2.192  13.560 -0.6285 -0.1337  2.0731
20001TIP3    H281495   5.479   2.127  13.604 -0.0030  0.7643  1.5647
20002TIP3   OH281496   3.909   2.234  11.221 -0.2358  0.0306  0.0629
20002TIP3    H181497   3.992   2.191  11.203 -0.0157  0.1016  0.8787
20002TIP3    H281498   3.934   2.324  11.244 -0.5168 -0.0196  0.5605
20003TIP3   OH281499   5.189   3.708  13.211  0.0868  0.1509  0.0432
20003TIP3    H181500   5.285   3.708  13.214  0.0892 -0.6386  0.1497
20003TIP3    H281501   5.166   3.621  13.178 -0.6244 -0.1581  1.3094
20004TIP3   OH281502   0.416   0.730  17.076 -0.9431  0.6254 -0.1597
20004TIP3    H181503   0.411   0.706  16.984 -0.4090  0.8264 -0.2427
20004TIP3    H281504   0.484   0.673  17.113 -0.8772  0.8192  0.0198
20005TIP3   OH281505   0.284   5.418   5.195  0.0708 -0.7412  0.3649
20005TIP3    H181506   0.290   5.323   5.186 -0.8060 -0.8450  0.8098
20005TIP3    H281507   0.190   5.435   5.204  0.2114  0.1850  0.0997
20006TIP3   OH281508   0.685   0.202   2.986  0.1446 -0.2085 -0.7134
20006TIP3    H181509   0.667   0.234   2.898  0.6584  3.3448  0.3921
20006TIP3    H281510   0.662   0.275   3.043  2.2954 -1.4964  1.9162
20007TIP3   OH281511   0.445   3.996  10.944 -0.1540 -0.4078  0.8374
20007TIP3    H181512   0.425   4.033  10.859 -0.3521  0.0242  1.0712
20007TIP3    H281513   0.435   3.902  10.933  0.9847 -0.4480  0.0674
20008TIP3   OH281514   0.996   3.092  16.460 -0.2300  0.2106  0.4500
20008TIP3    H181515   1.037   3.031  16.398 -3.0755  0.2408 -1.5352
20008TIP3    H281516   1.050   3.171  16.454 -0.6785  0.3494 -2.3142
20009TIP3   OH281517   1.191   3.610   5.267  0.0577  0.2839  0.0720
20009TIP3    H181518   1.147   3.695   5.268 -0.5748 -0.0424  0.9856
20009TIP3    H281519   1.120   3.546   5.260  0.0444 -0.3924  4.8436
20010TIP3   OH281520   4.711   3.596  15.019  0.5061 -0.2655 -0.1725
20010TIP3    H181521   4.686   3.523  14.962  0.6480  0.4805 -1.2009
20010TIP3    H281522   4.627   3.636  15.044  0.5720  1.7531 -2.9895
20011TIP3   OH281523   1.131   5.439  14.279  0.3342 -0.2366  0.7252
20011TIP3    H181524   1.068   5.370  14.300  0.4251  0.2655  2.6831
20011TIP3    H281525   1.079   5.519  14.278  0.2933 -0.2591 -1.2143
20012TIP3   OH281526   2.521   0.157  13.628  0.1238 -0.6464  0.3467
20012TIP3    H181527   2.517   0.252  13.634  0.9913 -0.6128  0.4723
20012TIP3    H281528   2.577   0.130  13.701  1.3371 -1.1114 -0.7293
20013TIP3   OH281529   6.325   0.867   0.962 -0.5261 -0.2087 -1.0072
20013TIP3    H181530   6.343   0.817   1.042  1.2352 -1.4205 -2.1212
20013TIP3    H281531   6.230   0.873   0.958 -0.6873 -1.7736  0.2082
20014TIP3   OH281532   0.423   3.276  11.589 -0.0732  0.3620  0.4336
20014TIP3    H181533   0.393   3.346  11.531  1.0365  0.5130  0.0369
20014TIP3    H281534   0.395   3.304  11.676 -0.7759  0.6680  0.1150
20015TIP3   OH281535   1.227   6.092  15.494  0.8416 -0.6956 -0.3489
20015TIP3    H181536   1.133   6.080  15.507  0.7381 -0.8183 -1.1620
20015TIP3    H281537   1.234   6.166  15.433  1.3533  0.8563  1.5452
20016TIP3   OH281538   1.013   3.410   3.825 -0.1373  0.0598  0.1163
20016TIP3    H181539   0.944   3.371   3.879 -1.3176  2.7821  0.6477
20016TIP3    H281540   0.984   3.392   3.735  0.6338 -2.4208  0.3180
20017TIP3   OH281541   6.539   1.001   5.929  0.7419 -0.7153 -0.5133
20017TIP3    H181542   6.602   1.031   5.994  0.6528 -0.6748 -0.4448
20017TIP3    H281543   6.454   1.030   5.963  0.8229  0.5188 -1.3199
20018TIP3   OH281544   3.081   5.298  12.250  0.1345  0.1858 -0.1775
20018TIP3    H181545   3.060   5.210  12.282 -0.2351  0.6785  0.9460
20018TIP3    H281546   3.140   5.334  12.316 -0.9003  1.3454  0.1313
20019TIP3   OH281547   4.392   6.080  14.236 -0.7571 -0.6512 -0.1189
20019TIP3    H181548   4.392   6.171  14.208  0.0508 -1.0084 -1.3137
20019TIP3    H281549   4.354   6.082  14.324 -1.5174  0.7291 -0.4638
20020TIP3   OH281550   1.485   3.996  12.934 -0.4156  0.1191 -0.7255
20020TIP3    H181551   1.424   4.001  12.861  0.2632 -0.7359 -1.3598
20020TIP3    H281552   1.556   3.940  12.903 -0.5275 -0.9530  0.8988
20021TIP3   OH281553   5.638   1.319  17.292  0.0705  0.3006 -0.3538
20021TIP3    H181554   5.589   1.380  17.236  0.3427  0.1779 -0.7263
20021TIP3    H281555   5.609   1.232  17.265  0.7380  0.2156 -0.8045
20022TIP3   OH281556   3.537   0.348  16.578 -0.2145  0.2743  0.2666
20022TIP3    H181557   3.625   0.380  16.558  1.4317 -2.9424  1.8357
20022TIP3    H281558   3.552   0.277  16.641 -3.9754 -0.1454  0.7848
20023TIP3   OH281559   3.900   0.137   6.150  0.1300  0.2868 -0.3564
20023TIP3    H181560   3.886   0.046   6.125 -1.7054  1.0891 -2.4426
20023TIP3    H281561   3.992   0.154   6.131 -0.4715 -0.0230 -3.8662
20024TIP3   OH281562   5.757   1.813   1.315 -0.3281  0.0055  0.1417
20024TIP3    H181563   5.813   1.740   1.290 -0.5771  0.4074 -1.6952
20024TIP3    H281564   5.788   1.839   1.401  1.9293 -0.1581 -0.5892
20025TIP3   OH281565   1.769   5.593   1.879  0.1063 -0.4143 -0.5099
20025TIP3    H181566   1.794   5.596   1.972 -0.1475 -0.5450 -0.4382
20025TIP3    H281567   1.717   5.513   1.871  0.3202 -0.5223 -0.8120
20026TIP3   OH281568   4.574   5.985  13.536  0.4339  0.4320  0.1335
20026TIP3    H181569   4.620   6.063  13.567  2.1850  0.6932 -2.8697
20026TIP3    H281570   4.621   5.912  13.575 -0.5355  0.8316  2.0902
20027TIP3   OH281571   1.170   5.187   1.435  0.1125 -0.5005 -0.1440
20027TIP3    H181572   1.088   5.238   1.432  1.6234  1.9637 -1.5006
20027TIP3    H281573   1.187   5.164   1.344  2.6782  2.0201 -0.3820
20028TIP3   OH281574   3.128   6.524  14.824  0.1867 -0.0327  0.0555
20028TIP3    H181575   3.148   6.431  14.831 -0.6391 -0.2346 -0.2749
20028TIP3    H281576   3.104   6.537  14.733  0.3096  0.5094  0.0979
20029TIP3   OH281577   3.499   2.569   0.294 -0.2260  0.1024 -0.4527
20029TIP3    H181578   3.478   2.662   0.292 -1.4855 -0.1009  1.6087
20029TIP3    H281579   3.593   2.564   0.280  0.1187  1.8016  1.2345
20030TIP3   OH281580   1.831   1.171  11.440  0.1128 -0.5499  0.4075
20030TIP3    H181581   1.918   1.130  11.440  1.2093  1.6881  2.2498
20030TIP3    H281582   1.820   1.204  11.350  1.9697  0.7717  0.6477
20031TIP3   OH281583   6.313   6.087  11.530  0.6257  0.6964  0.4223
20031TIP3    H181584   6.228   6.112  11.496  0.4779  0.9066  0.9444
20031TIP3    H281585   6.294   6.048  11.615  0.7838 -1.6678 -0.5702
20032TIP3   OH281586   3.070   5.325  15.081 -0.2941  0.0401 -0.1695
20032TIP3    H181587   2.977   5.336  15.058 -0.2790  0.4968 -0.0149
20032TIP3    H281588   3.078   5.364  15.167 -0.1854 -1.0130  0.3069
20033TIP3   OH281589   6.337   5.190  12.125  0.4713  0.2156  0.2251
20033TIP3    H181590   6.399   5.210  12.195 -1.8463  0.2312  2.3248
20033TIP3    H281591   6.372   5.111  12.084  1.3122 -0.3901  2.0617
20034TIP3   OH281592   1.010   0.972  16.053 -0.4937  0.2641 -0.1204
20034TIP3    H181593   0.929   1.002  16.094 -0.5777  0.3963 -0.3835
20034TIP3    H281594   0.991   0.883  16.024 -1.2086  1.0158 -2.0228
20035TIP3   OH281595   0.212   5.516   3.799  0.0635 -0.0478 -0.0992
20035TIP3    H181596   0.127   5.553   3.825  0.6033  1.4034 -0.3434
20035TIP3    H281597   0.203   5.422   3.816 -1.6123  0.0710 -0.1658
20036TIP3   OH281598   0.859   5.035  14.126 -0.2995  0.0767  0.3638
20036TIP3    H181599   0.791   5.101  14.125 -0.3705  0.0022 -0.1476
20036TIP3    H281600   0.828   4.969  14.188 -0.6869  0.0471  0.1401
20037TIP3   OH281601   5.330   0.006   3.375  0.1373 -0.1978 -0.1616
20037TIP3    H181602   5.397   0.047   3.320 -0.1045  0.1003 -0.2379
20037TIP3    H281603   5.341   0.048   3.461  0.5411 -0.6900  0.0268
20038TIP3   OH281604   0.850   1.256   1.273  0.0976  0.0245 -0.0118
20038TIP3    H181605   0.850   1.179   1.217 -2.0509 -0.2207  0.2887
20038TIP3    H281606   0.838   1.222   1.361 -2.3704  0.7381 -0.0224
20039TIP3   OH281607   3.848   6.376   4.182  0.3541  0.2431  0.1271
20039TIP3    H181608   3.930   6.348   4.223 -0.5811  0.4650  2.2266
20039TIP3    H281609   3.813   6.296   4.142  0.6166 -0.3014  0.9629
20040TIP3   OH281610   5.024   4.727  10.706 -0.1141  0.1019  0.1022
20040TIP3    H181611   4.985   4.794  10.762 -1.1189 -0.5053  0.1442
20040TIP3    H281612   5.118   4.734  10.723 -0.1591  1.8566 -0.3112
20041TIP3   OH281613   2.851   0.193   3.107  0.4653  0.8204 -0.1420
20041TIP3    H181614   2.811   0.272   3.143  1.9152  0.9885  1.1409
20041TIP3    H281615   2.800   0.120   3.145  1.2683  1.0336  1.3671
20042TIP3   OH281616   3.244   5.829   1.046 -0.8309 -0.0699  0.0326
20042TIP3    H181617   3.162   5.876   1.032  0.2026  1.1858 -2.2133
20042TIP3    H281618   3.312   5.891   1.019  0.7768 -1.6264  0.3735
20043TIP3   OH281619   5.057   4.217   4.657  0.0624 -0.7130 -0.2298
20043TIP3    H181620   5.023   4.271   4.585  0.6337 -2.6443 -2.0059
20043TIP3    H281621   5.131   4.170   4.619  0.3259 -1.8324  1.6152
20044TIP3   OH281622   2.295   2.726   1.584 -0.1905  0.0269 -0.4205
20044TIP3    H181623   2.254   2.738   1.669 -1.2290  0.4814 -0.9865
20044TIP3    H281624   2.382   2.765   1.594 -0.5677  0.7190  0.2212
20045TIP3   OH281625   6.623   4.532  10.441  0.4159 -0.2500  0.2748
20045TIP3    H181626   6.701   4.576  10.406 -0.2361  0.9641  0.3372
20045TIP3    H281627   6.658   4.469  10.504  1.3596  0.2887  0.3047
20046TIP3   OH281628   3.617   3.784  17.182 -0.8082 -0.0952  0.2078
20046TIP3    H181629   3.639   3.695  17.153  0.7686  0.6370 -0.8796
20046TIP3    H281630   3.680   3.840  17.137 -1.8727  1.5938  0.7975
20047TIP3   OH281631   5.346   3.266  16.576 -0.1393 -0.8832 -0.5759
20047TIP3    H181632   5.295   3.261  16.495 -0.3233  0.3269 -0.5434
20047TIP3    H281633   5.281   3.281  16.645  0.1183 -0.8307 -0.3434
20048TIP3   OH281634   0.689   1.580   6.194 -0.3549  0.3995 -0.2740
20048TIP3    H181635   0.688   1.492   6.155  1.0335 -1.0421  2.7619
20048TIP3    H281636   0.776   1.587   6.234 -0.7287  2.9126  0.1457
20049TIP3   OH281637   6.693   4.485   4.239  0.7661  0.1775 -0.0727
20049TIP3    H181638   6.705   4.570   4.197  4.2103  0.9302  2.2616
20049TIP3    H281639   6.685   4.505   4.332 -1.8865 -1.8423  0.2284
20050TIP3   OH281640   4.022   3.174  11.007 -0.0957 -0.1845  0.5047
20050TIP3    H181641   4.109   3.187  10.970 -0.0739  0.2931  0.7192
20050TIP3    H281642   3.962   3.207  10.940 -0.1167 -0.5634  0.3352
20051TIP3   OH281643   5.503   1.585  15.226 -0.3875  0.0343  0.3644
20051TIP3    H181644   5.527   1.494  15.208  1.0388  0.4299  0.1799
20051TIP3    H281645   5.544   1.635  15.156 -1.7141  0.7620  0.1013
20052TIP3   OH281646   1.668   2.004   2.933 -0.3782 -0.4886  0.0105
20052TIP3    H181647   1.695   2.088   2.895  1.1102 -0.7448  0.4435
20052TIP3    H281648   1.751   1.964   2.961 -1.1814 -1.6212  0.7809
20053TIP3   OH281649   0.538   5.349  17.139 -0.1748 -0.1404  0.5241
20053TIP3    H181650   0.443   5.353  17.130 -0.2475 -1.4569  0.6708
20053TIP3    H281651   0.566   5.441  17.141 -1.4130  0.2455  0.2308
20054TIP3   OH281652   5.185   2.811  14.042  0.1153  0.1232 -0.7438
20054TIP3    H181653   5.232   2.884  14.084 -0.3554 -0.7977  1.4926
20054TIP3    H281654   5.238   2.788  13.966  1.2399  1.5917 -0.4308
20055TIP3   OH281655   1.225   4.603  14.427  0.3489 -0.2394  0.3022
20055TIP3    H181656   1.200   4.690  14.395  1.0837 -0.0090  0.3578
20055TIP3    H281657   1.279   4.567  14.357  1.3240 -0.0410  0.9441
20056TIP3   OH281658   0.834   3.134   4.030  0.2738 -0.3682  0.0123
20056TIP3    H181659   0.818   3.108   4.121  2.1794  1.7326  1.0087
20056TIP3    H281660   0.895   3.069   3.997  0.7236 -0.3144  0.7194
20057TIP3   OH281661   0.161   3.013   5.065  0.0470 -0.0397 -0.3889
20057TIP3    H181662   0.138   2.988   4.976  0.5166  1.3957 -0.9270
20057TIP3    H281663   0.247   2.975   5.079  0.1904  0.1573 -0.7292
20058TIP3   OH281664   5.217   3.974   2.163  0.0857  0.7384 -0.0409
20058TIP3    H181665   5.210   3.897   2.107  0.6899 -1.1384  2.3775
20058TIP3    H281666   5.148   4.033   2.132  1.0278  0.2162 -3.3536
20059TIP3   OH281667   3.720   0.420  16.038  0.3746  0.0175 -0.4774
20059TIP3    H181668   3.702   0.419  15.944  0.8024 -1.0602 -0.5573
20059TIP3    H281669   3.653   0.364  16.077  2.4535 -2.6997 -0.6032
20060TIP3   OH281670   3.290   4.526   2.418 -0.4936  0.7310 -0.4098
20060TIP3    H181671   3.383   4.551   2.423 -0.4666  0.6860 -0.6477
20060TIP3    H281672   3.246   4.604   2.384 -0.6446  0.9806  0.3572
20061TIP3   OH281673   2.949   2.581  14.507  0.4031 -0.3744  0.0042
20061TIP3    H181674   2.962   2.608  14.598  1.1018 -0.4198 -0.0799
20061TIP3    H281675   3.035   2.593  14.466  0.0165 -0.0672 -0.7250
20062TIP3   OH281676   6.791   5.669  14.419 -0.4445 -0.2157  0.3170
20062TIP3    H181677   6.729   5.740  14.433  1.3795  1.6806 -0.9849
20062TIP3    H281678   6.837   5.692  14.339 -1.1983 -3.9319 -1.2852
20063TIP3   OH281679   5.305   2.869  13.779  0.3300  0.3557  0.1104
20063TIP3    H181680   5.332   2.943  13.834 -0.4474  1.0256 -0.4016
20063TIP3    H281681   5.325   2.898  13.690  1.5126 -0.6963  0.0249
20064TIP3   OH281682   5.237   0.240  12.905  0.3869  0.1818  0.5685
20064TIP3    H181683   5.168   0.301  12.935  1.2156  0.7966  1.2370
20064TIP3    H281684   5.318   0.280  12.935  1.0258 -0.6371 -0.0809
20065TIP3   OH281685   5.001   1.066   0.589  0.0701 -0.8020 -0.1809
20065TIP3    H181686   4.979   1.096   0.678  0.6779  0.1911 -0.3654
20065TIP3    H281687   5.094   1.044   0.593 -0.0822 -1.4885 -0.3747
20066TIP3   OH281688   0.087   0.279   2.550  0.1227  0.1376  0.0345
20066TIP3    H181689   0.102   0.215   2.480 -0.6543 -0.8932  0.7753
20066TIP3    H281690   0.040   0.229   2.617 -0.8054  1.5897  0.4840
20067TIP3   OH281691   1.261   4.764  16.523 -1.2460  0.2248  0.0451
20067TIP3    H181692   1.298   4.679  16.498  1.6505  1.0800  1.2421
20067TIP3    H281693   1.198   4.744  16.592 -0.2503 -0.9336  0.6400
20068TIP3   OH281694   5.701   5.737   5.594  0.3210 -0.1898  0.5066
20068TIP3    H181695   5.655   5.788   5.528 -0.7628  1.3134  2.3826
20068TIP3    H281696   5.631   5.696   5.646  1.1353 -0.4269  1.4298
20069TIP3   OH281697   4.987   5.035   6.314 -0.1971 -0.5036 -0.7232
20069TIP3    H181698   4.963   5.078   6.396 -0.8986  0.2880 -1.3351
20069TIP3    H281699   5.051   4.969   6.339  0.2468  0.3221  0.3548
20070TIP3   OH281700   2.575   0.273  11.389  0.4144  0.0136 -0.5411
20070TIP3    H181701   2.526   0.261  11.307  1.0211 -0.9982 -0.7637
20070TIP3    H281702   2.605   0.363  11.387 -4.2355  1.7608  1.1222
20071TIP3   OH281703   1.489   4.959   0.048  0.2975 -0.2906  0.5204
20071TIP3    H181704   1.440   4.877   0.046  0.3154 -0.2798 -1.0899
20071TIP3    H281705   1.440   5.016   0.107 -1.3032 -0.4885 -0.5940
20072TIP3   OH281706   1.726   2.856   3.481  0.0245 -0.1330  0.0680
20072TIP3    H181707   1.786   2.802   3.533  0.1622  0.7200  0.8042
20072TIP3    H281708   1.745   2.832   3.390  1.9097  0.5534  0.2546
20073TIP3   OH281709   1.400   3.966  11.751  0.2797  0.0502  0.3876
20073TIP3    H181710   1.406   4.019  11.672  1.2967  1.4935  1.4151
20073TIP3    H281711   1.437   3.882  11.726  0.4068  0.4316 -0.7215
20074TIP3   OH281712   6.696   4.726   3.291  0.1770  0.0898 -0.2508
20074TIP3    H181713   6.656   4.683   3.367  0.5541  0.4209  0.1378
20074TIP3    H281714   6.709   4.817   3.319 -0.9095  0.5513 -1.1725
20075TIP3   OH281715   1.834   4.885   1.327 -0.5019  0.2333 -0.0354
20075TIP3    H181716   1.895   4.812   1.337  0.1797  0.9006  0.7055
20075TIP3    H281717   1.889   4.963   1.323 -1.2398  0.7351 -0.6113
20076TIP3   OH281718   0.838   6.188  11.108  0.1095 -0.3996  0.2888
20076TIP3    H181719   0.743   6.182  11.107  0.2324 -2.6846  0.6884
20076TIP3    H281720   0.862   6.171  11.199  0.9080  0.2159  0.2004
20077TIP3   OH281721   0.229   5.331   2.115 -0.1907 -0.1449 -0.0514
20077TIP3    H181722   0.272   5.251   2.146 -0.5596  0.9624  3.6536
20077TIP3    H281723   0.301   5.388   2.089  0.3723 -0.1471  1.4017
20078TIP3   OH281724   0.059   0.888  12.394 -0.0141  0.6073  0.0361
20078TIP3    H181725   0.099   0.823  12.452  1.0211  0.4736 -0.8021
20078TIP3    H281726  -0.003   0.839  12.340 -0.9185  0.7189  0.9702
20079TIP3   OH281727   5.614   4.291   3.263 -0.0224  0.2546 -0.0921
20079TIP3    H181728   5.664   4.363   3.302 -1.6142  1.7294 -0.6599
20079TIP3    H281729   5.624   4.304   3.168 -2.8174  1.6273 -0.2657
20080TIP3   OH281730   2.513   1.278  15.907 -0.6769 -0.7885  0.1182
20080TIP3    H181731   2.473   1.296  15.992  0.3263 -0.8791  0.6173
20080TIP3    H281732   2.457   1.323  15.844 -0.3947  0.8062  0.9948
20081TIP3   OH281733   1.794   1.742  16.108 -0.4167  0.1719 -0.2318
20081TIP3    H181734   1.747   1.666  16.142 -0.1479  0.5569  1.0227
20081TIP3    H281735   1.746   1.818  16.142  1.1616  0.5713  1.1888
20082TIP3   OH281736   3.952   5.641   2.504  0.1164  0.2832 -0.0478
20082TIP3    H181737   4.015   5.570   2.504 -0.6777 -0.4247 -0.8358
20082TIP3    H281738   4.004   5.719   2.524  0.9463 -0.5398  1.0449
20083TIP3   OH281739   5.776   2.185   5.136  0.5396  0.0831 -0.9956
20083TIP3    H181740   5.696   2.176   5.188  1.7889  0.0316  0.9495
20083TIP3    H281741   5.746   2.217   5.051 -1.5264  0.2324 -0.2241
20084TIP3   OH281742   2.754   0.976   5.769 -0.4979  0.0652 -0.5060
20084TIP3    H181743   2.704   0.947   5.846 -1.0057  0.2166 -0.7735
20084TIP3    H281744   2.834   1.013   5.806 -0.3851 -0.5766 -0.0963
20085TIP3   OH281745   5.153   1.046   4.130  0.9156  0.2221 -0.0897
20085TIP3    H181746   5.245   1.066   4.146 -0.1973  2.8172  3.5876
20085TIP3    H281747   5.131   0.981   4.198 -0.8822  2.4533  1.5154
20086TIP3   OH281748   1.970   2.898  11.491  0.4269  0.5339 -0.1091
20086TIP3    H181749   2.043   2.920  11.434  0.7947  1.4075  0.6858
20086TIP3    H281750   1.915   2.840  11.439  2.7793 -1.8916 -0.0092
20087TIP3   OH281751   1.064   4.650  15.779 -0.1820  0.2440 -0.0444
20087TIP3    H181752   1.083   4.683  15.866 -3.4900 -0.7025  1.1194
20087TIP3    H281753   1.091   4.558  15.781 -0.1597  0.2508 -0.0350
20088TIP3   OH281754   6.171   1.525   1.711 -0.3796 -0.3585  0.3308
20088TIP3    H181755   6.247   1.484   1.670  0.8971  0.4031  1.8974
20088TIP3    H281756   6.138   1.586   1.645 -0.0747 -1.1964 -0.6125
20089TIP3   OH281757   1.257   5.266  12.840  0.2875  0.5546  0.0890
20089TIP3    H181758   1.311   5.260  12.919 -0.1846 -0.8253  0.3331
20089TIP3    H281759   1.319   5.262  12.768  0.5552 -0.7491  0.3741
20090TIP3   OH281760   5.629   6.451  14.345  0.5297 -0.0922  0.6180
20090TIP3    H181761   5.712   6.496  14.325  0.7979 -0.0317  1.8137
20090TIP3    H281762   5.631   6.438  14.440 -0.1654 -1.4281  0.4650
20091TIP3   OH281763   1.090   5.031  11.567 -0.4319  0.2280  0.1366
20091TIP3    H181764   1.161   5.093  11.584 -0.1605  0.1942 -0.8247
20091TIP3    H281765   1.127   4.946  11.590 -0.5327  0.3290  0.6829
20092TIP3   OH281766   1.831   3.727   1.179  0.0956  0.4152  0.2224
20092TIP3    H181767   1.852   3.717   1.086  0.1632  2.4409  0.0042
20092TIP3    H281768   1.760   3.791   1.180 -0.4372 -0.1947  1.5241
20093TIP3   OH281769   6.591   4.073  15.052 -0.7305 -0.1780 -0.6097
20093TIP3    H181770   6.525   4.004  15.044  0.4176 -1.4846  0.8497
20093TIP3    H281771   6.639   4.071  14.969  0.4553 -2.3932  0.0748
20094TIP3   OH281772   2.380   3.066   5.424  0.0375 -0.1081  0.3037
20094TIP3    H181773   2.320   3.083   5.497 -1.1522  1.1190 -0.9417
20094TIP3    H281774   2.324   3.068   5.346  1.1757 -2.0909 -0.6088
20095TIP3   OH281775   0.785   5.726   2.806  0.1612  0.5299  0.9512
20095TIP3    H181776   0.807   5.638   2.775  0.8568  0.9327  0.2816
20095TIP3    H281777   0.862   5.753   2.856  0.2995  1.0878  0.4431
20096TIP3   OH281778   2.775   2.663  11.791 -0.6081  0.7254 -0.1056
20096TIP3    H181779   2.734   2.632  11.872  0.1091  0.4142  0.1432
20096TIP3    H281780   2.810   2.584  11.750  0.2497  1.0489 -0.0244
20097TIP3   OH281781   0.102   0.730   2.904 -0.2268 -0.0093  0.4898
20097TIP3    H181782   0.137   0.686   2.827  1.0390  1.6855  0.0683
20097TIP3    H281783   0.158   0.701   2.976  0.8496  1.1883  0.1476
20098TIP3   OH281784   5.790   3.339  13.556 -0.1297  0.0334  0.2020
20098TIP3    H181785   5.885   3.347  13.544 -0.3331  0.5545 -1.2375
20098TIP3    H281786   5.774   3.245  13.557  0.1381 -0.0679 -2.1273
20099TIP3   OH281787   2.106   1.133   1.788 -0.3456 -0.0899 -0.2050
20099TIP3    H181788   2.189   1.158   1.748 -0.6515 -2.6780 -2.5883
20099TIP3    H281789   2.040   1.184   1.741 -0.3419  0.1565  0.0506
20100TIP3   OH281790   6.593   5.921   2.704 -0.2381 -0.4876  0.0648
20100TIP3    H181791   6.586   5.874   2.787  0.1773 -0.0476  0.3553
20100TIP3    H281792   6.681   5.960   2.706 -0.1684 -0.6045 -0.6501
20101TIP3   OH281793   0.615   5.919  16.535  0.3605  0.3613 -0.7372
20101TIP3    H181794   0.578   5.941  16.620 -0.1786  1.5612 -1.2661
20101TIP3    H281795   0.605   5.824  16.528 -1.4133  0.4855 -0.2907
20102TIP3   OH281796   1.247   5.964  16.021  0.2139 -0.5141  0.3863
20102TIP3    H181797   1.277   5.892  15.966  0.8891 -1.6766  2.2555
20102TIP3    H281798   1.304   5.962  16.098 -0.7624  1.0351  1.1932
20103TIP3   OH281799   6.754   2.136   2.638  0.3034 -0.1877 -0.2422
20103TIP3    H181800   6.839   2.097   2.614  0.8542  0.9621 -0.1948
20103TIP3    H281801   6.723   2.082   2.711  0.7242 -0.9697 -0.6352
20104TIP3   OH281802   6.806   4.701   0.477 -0.0249 -0.5378 -0.5631
20104TIP3    H181803   6.778   4.792   0.469 -0.3691 -0.5436  0.4568
20104TIP3    H281804   6.729   4.655   0.509  0.4421 -0.9952 -0.0806
20105TIP3   OH281805   5.474   0.206   5.323  0.2494 -0.3405 -0.1572
20105TIP3    H181806   5.469   0.301   5.307 -0.4304 -0.1652  1.0016
20105TIP3    H281807   5.510   0.170   5.243 -1.2740  0.7075 -1.3476
20106TIP3   OH281808   0.202   4.502   0.389  0.0966  0.3675  0.4219
20106TIP3    H181809   0.191   4.419   0.435  0.6065  0.8265  1.3955
20106TIP3    H281810   0.137   4.560   0.430 -0.3779  0.4013 -0.3710
20107TIP3   OH281811   0.775   1.222   3.690 -0.1584  0.1109 -0.3649
20107TIP3    H181812   0.788   1.209   3.784  1.0748  3.2653 -0.0289
20107TIP3    H281813   0.681   1.232   3.679 -0.4412 -1.7409  0.3146
20108TIP3   OH281814   4.625   5.156  14.525 -0.2420  0.2997  0.1496
20108TIP3    H181815   4.645   5.205  14.605 -2.0290 -1.8888  1.9999
20108TIP3    H281816   4.543   5.195  14.493 -0.0066  0.5741 -0.1269
20109TIP3   OH281817   6.594   6.159  14.895  0.0845  0.3530 -0.0104
20109TIP3    H181818   6.565   6.233  14.948 -0.9797  0.1498 -0.3018
20109TIP3    H281819   6.546   6.084  14.931  0.0633  0.0546 -0.6649
20110TIP3   OH281820   1.157   0.939  13.525  0.0790 -0.6765  0.2974
20110TIP3    H181821   1.115   1.024  13.511 -1.2169 -1.1620  1.1107
20110TIP3    H281822   1.148   0.893  13.442 -1.0093 -0.7583  0.4451
20111TIP3   OH281823   4.991   6.140   3.082 -0.0125  0.4507 -0.0539
20111TIP3    H181824   4.988   6.232   3.055  0.6486  1.1444  2.1591
20111TIP3    H281825   4.902   6.107   3.068 -0.1293  1.2757 -1.3163
20112TIP3   OH281826   3.184   1.198   1.835  0.1230  0.5156  0.6214
20112TIP3    H181827   3.204   1.105   1.850 -0.4687  0.6443  2.3725
20112TIP3    H281828   3.098   1.197   1.793 -0.7954  0.3300  2.4733
20113TIP3   OH281829   4.980   3.041  12.814  0.2369  0.1168 -0.2281
20113TIP3    H181830   4.942   2.956  12.839 -0.4185  0.3325 -0.4839
20113TIP3    H281831   5.001   3.083  12.898 -0.0988 -0.0018 -0.0827
20114TIP3   OH281832   4.801   0.401  16.962  0.0443 -0.1489  0.8272
20114TIP3    H181833   4.762   0.339  17.023 -1.2381  0.2968  0.4813
20114TIP3    H281834   4.836   0.471  17.018 -0.2931 -0.2009  1.1074
20115TIP3   OH281835   3.966   5.141  13.502 -0.0847 -0.1669  0.0293
20115TIP3    H181836   4.048   5.152  13.454  0.9359 -0.3101  1.6821
20115TIP3    H281837   3.967   5.049  13.530 -0.3318  0.0732  0.8697
20116TIP3   OH281838   2.330   2.657  16.819  0.1982  0.3056  0.3345
20116TIP3    H181839   2.334   2.563  16.838  0.2821  0.2211 -0.1139
20116TIP3    H281840   2.246   2.668  16.774  1.4148  0.0070 -2.0932
20117TIP3   OH281841   4.299   0.185  11.249 -0.3419 -0.1674  0.2885
20117TIP3    H181842   4.263   0.167  11.162 -0.1126  0.3743  0.0791
20117TIP3    H281843   4.386   0.144  11.248 -0.6638 -0.8700  0.5505
20118TIP3   OH281844   4.950   5.889   4.108 -0.3127 -0.3864  0.0669
20118TIP3    H181845   4.965   5.978   4.140  1.3453 -0.7302  0.2747
20118TIP3    H281846   4.933   5.837   4.186  1.3172 -0.7534  0.1842
20119TIP3   OH281847   5.386   0.981  15.716  0.1659 -0.6002  0.2518
20119TIP3    H181848   5.432   0.904  15.749  0.3785 -0.8437 -0.6045
20119TIP3    H281849   5.383   0.969  15.621 -0.7304 -0.0719  0.2003
20120TIP3   OH281850   4.396   1.111  16.350  0.0193 -0.0820  0.2620
20120TIP3    H181851   4.348   1.030  16.334  0.8571 -0.3499 -1.0507
20120TIP3    H281852   4.458   1.090  16.419 -0.8819 -0.0964  1.0633
20121TIP3   OH281853   4.660   0.105   0.108 -1.1468 -0.3345 -0.2088
20121TIP3    H181854   4.570   0.074   0.114 -0.6406 -2.0436 -1.0743
20121TIP3    H281855   4.677   0.146   0.193 -2.8389  0.3068 -0.1651
20122TIP3   OH281856   3.968   4.423  14.324  0.5881  0.0401 -0.1671
20122TIP3    H181857   3.892   4.370  14.298  1.0270 -0.1785 -1.0147
20122TIP3    H281858   3.940   4.465  14.405  0.8934 -2.9219  1.5603
20123TIP3   OH281859   0.719   1.796  14.757 -0.7818  0.3646  0.5151
20123TIP3    H181860   0.662   1.847  14.699 -1.2650  1.0213  1.5553
20123TIP3    H281861   0.726   1.711  14.714 -2.0919  0.4582  0.0800
20124TIP3   OH281862   4.928   5.327  14.910 -0.6566  0.0323 -0.3930
20124TIP3    H181863   4.970   5.249  14.947  0.0499  0.9156  0.7070
20124TIP3    H281864   5.001   5.386  14.890 -1.2838  1.0132  0.1849
20125TIP3   OH281865   2.323   2.111  13.695 -0.0586  0.0927  0.0379
20125TIP3    H181866   2.328   2.204  13.672 -1.0425  0.5379  1.5681
20125TIP3    H281867   2.265   2.108  13.772  0.3224 -1.7297  0.2759
20126TIP3   OH281868   1.098   6.217   4.231 -0.0158 -0.1899 -0.1976
20126TIP3    H181869   1.143   6.175   4.158  1.1264  0.1861  0.2635
20126TIP3    H281870   1.109   6.311   4.215 -0.9718 -0.0954 -0.2779
20127TIP3   OH281871   6.532   0.362  13.335  0.2243  0.0786  0.2623
20127TIP3    H181872   6.498   0.420  13.403 -0.0722  2.4770 -1.8350
20127TIP3    H281873   6.625   0.352  13.356  0.5046  2.1387  0.1508
20128TIP3   OH281874   2.676   2.919  16.521  0.2906  0.5901  0.7122
20128TIP3    H181875   2.673   2.893  16.613  1.5308  0.5192  0.7379
20128TIP3    H281876   2.768   2.938  16.504  0.3425 -1.0261 -0.9794
20129TIP3   OH281877   3.070   3.349  15.078  0.1557  0.0247 -0.3578
20129TIP3    H181878   2.999   3.371  15.137 -0.3329 -1.5820 -0.3423
20129TIP3    H281879   3.121   3.430  15.070  0.7415  0.0317  2.9409
20130TIP3   OH281880   1.368   3.072  14.220  0.1819  0.0594  0.3593
20130TIP3    H181881   1.357   3.165  14.240  2.5648  0.6100 -0.7639
20130TIP3    H281882   1.438   3.042  14.278 -0.1565 -0.9051  0.2834
20131TIP3   OH281883   2.180   0.195   4.664 -0.2251  0.5047  0.0966
20131TIP3    H181884   2.271   0.190   4.637 -0.1505  0.5160  0.3460
20131TIP3    H281885   2.179   0.259   4.735 -0.3153  0.0013  0.5588
20132TIP3   OH281886   5.101   3.647  12.838 -0.0218 -0.6138 -0.3701
20132TIP3    H181887   5.090   3.614  12.749  1.3795 -1.5319 -0.2116
20132TIP3    H281888   5.046   3.590  12.892 -1.0578  0.0902 -0.6623
20133TIP3   OH281889   4.869   6.213  11.398 -0.1343 -0.4646  0.0717
20133TIP3    H181890   4.871   6.309  11.390  1.2113 -0.3770  1.2703
20133TIP3    H281891   4.871   6.182  11.307 -1.1721  0.6333 -0.3512
20134TIP3   OH281892   2.570   1.753  12.126 -0.0333  0.6982  0.2301
20134TIP3    H181893   2.618   1.677  12.094 -0.3467  0.3705  0.5321
20134TIP3    H281894   2.538   1.796  12.046 -1.5130 -0.5737  0.1063
20135TIP3   OH281895   2.987   5.799   4.413 -0.2203 -0.5055 -0.4439
20135TIP3    H181896   3.029   5.884   4.425 -0.0925 -0.6139 -0.1198
20135TIP3    H281897   3.010   5.773   4.324 -0.5406 -0.0468 -0.6650
20136TIP3   OH281898   0.665   2.575  15.005 -0.0704 -0.7840 -0.6227
20136TIP3    H181899   0.692   2.487  14.980 -1.5690 -1.2247 -0.7640
20136TIP3    H281900   0.747   2.623  15.018  0.7639 -1.7315 -2.1828
20137TIP3   OH281901   1.699   0.904  13.930 -0.0383  0.3384  0.0163
20137TIP3    H181902   1.707   0.997  13.908 -1.1244  0.1138 -1.4314
20137TIP3    H281903   1.639   0.869  13.864 -0.4367 -1.1874  1.1542
20138TIP3   OH281904   1.924   1.165   4.760 -0.0378 -0.2000 -0.1124
20138TIP3    H181905   1.992   1.217   4.717 -0.1442  0.8210  0.9295
20138TIP3    H281906   1.947   1.074   4.740  1.0051  0.1827 -0.6922
20139TIP3   OH281907   0.221   6.646  10.778  0.0186 -0.2734  0.7125
20139TIP3    H181908   0.143   6.593  10.761 -1.2281  1.4955  0.6924
20139TIP3    H281909   0.293   6.595  10.743 -0.7735 -3.1447  3.0589
20140TIP3   OH281910   2.725   1.946   3.833 -0.3733 -0.3879  0.1772
20140TIP3    H181911   2.752   1.973   3.745 -1.4710 -2.4279 -0.8410
20140TIP3    H281912   2.801   1.902   3.870 -0.0858 -0.0044  0.0471
20141TIP3   OH281913   2.198   2.637   2.656  0.2380  0.0506 -0.3332
20141TIP3    H181914   2.116   2.597   2.686  1.0685 -1.5926 -0.2369
20141TIP3    H281915   2.173   2.727   2.632 -2.0325 -1.0525 -2.3348
20142TIP3   OH281916   5.455   2.575  14.248 -0.3036 -0.7669  0.4644
20142TIP3    H181917   5.387   2.614  14.304  1.2615  0.5403  1.4856
20142TIP3    H281918   5.446   2.481  14.262 -0.9078 -0.5280  1.7759
20143TIP3   OH281919   6.384   4.606   2.594 -0.4518  0.3751 -0.1578
20143TIP3    H181920   6.325   4.566   2.659  1.2971  0.5784  1.6066
20143TIP3    H281921   6.383   4.699   2.615 -0.8230  0.6107 -1.2160
20144TIP3   OH281922   6.475   2.678  17.070 -0.1354 -0.0457 -0.1594
20144TIP3    H181923   6.504   2.751  17.125  0.3403 -1.1437  1.0741
20144TIP3    H281924   6.512   2.696  16.984  0.6066  0.7817  0.3292
20145TIP3   OH281925   3.738   3.324  11.419 -0.3508  0.3418  0.5498
20145TIP3    H181926   3.796   3.398  11.397  0.0795  0.4755  2.0385
20145TIP3    H281927   3.757   3.258  11.353 -0.3307  1.3624 -0.4730
20146TIP3   OH281928   2.422   3.537  11.764  0.1327  0.0930  0.0339
20146TIP3    H181929   2.504   3.543  11.813 -1.3330  0.0399  2.5711
20146TIP3    H281930   2.363   3.599  11.808 -1.5049 -0.5878 -1.1424
20147TIP3   OH281931   5.966   6.523   4.430 -0.2518 -0.2626 -0.2485
20147TIP3    H181932   5.970   6.476   4.347  0.3420  0.8788 -0.8845
20147TIP3    H281933   6.047   6.501   4.475  0.6510  1.1859 -1.1312
20148TIP3   OH281934   3.169   2.107  15.418 -0.0108 -0.2444 -0.7797
20148TIP3    H181935   3.187   2.014  15.406 -0.7387 -0.2248 -2.0951
20148TIP3    H281936   3.109   2.130  15.347 -0.7702  0.9586  0.2067
20149TIP3   OH281937   6.720   1.459   2.868 -0.4588 -0.1251 -0.8803
20149TIP3    H181938   6.778   1.523   2.828 -0.6872 -0.0250 -1.0560
20149TIP3    H281939   6.676   1.508   2.938  0.0154 -0.3278 -0.4403
20150TIP3   OH281940   6.026   0.906  11.239  0.4499  0.0565 -0.1916
20150TIP3    H181941   5.992   0.952  11.162  0.2972  0.2634 -0.0015
20150TIP3    H281942   6.011   0.813  11.220 -1.0201  0.1935  0.2649
20151TIP3   OH281943   3.570   6.581   2.361  0.2909 -0.2570  0.0445
20151TIP3    H181944   3.481   6.550   2.376  0.9076 -1.9972  0.3039
20151TIP3    H281945   3.577   6.586   2.265  0.1911 -1.0087 -0.0081
20152TIP3   OH281946   1.205   3.638   3.851  0.4780  0.2997  0.4087
20152TIP3    H181947   1.210   3.712   3.790 -1.0362  0.5319  0.5550
20152TIP3    H281948   1.158   3.570   3.802 -0.9279  0.5605  1.3709
20153TIP3   OH281949   4.763   2.861   5.040  0.3338 -0.4317  0.1765
20153TIP3    H181950   4.797   2.773   5.027  2.2237  0.4908 -1.2733
20153TIP3    H281951   4.814   2.916   4.981 -2.6027  1.2555 -0.9246
20154TIP3   OH281952   3.639   1.575  15.192 -0.4364  0.4332 -0.2101
20154TIP3    H181953   3.672   1.611  15.109  0.1256 -1.7479 -0.9711
20154TIP3    H281954   3.616   1.485  15.171 -1.7693  0.3145  1.6566
20155TIP3   OH281955   2.706   0.851   2.340  0.4655  0.6394 -0.2100
20155TIP3    H181956   2.636   0.914   2.355  0.2671 -0.0277  1.7769
20155TIP3    H281957   2.785   0.904   2.327  0.0847  1.3176  0.2694
20156TIP3   OH281958   3.985   1.340  12.315 -0.1197 -0.2181 -0.5285
20156TIP3    H181959   4.051   1.401  12.283 -0.8804  1.7097  1.5093
20156TIP3    H281960   3.905   1.391  12.320 -0.7894 -1.3943  1.1315
20157TIP3   OH281961   2.366   5.892   0.537 -0.4285 -0.6622  0.0310
20157TIP3    H181962   2.346   5.966   0.478  0.7907 -1.0429 -0.8764
20157TIP3    H281963   2.313   5.909   0.615 -1.3630  0.3469 -0.8005
20158TIP3   OH281964   1.452   0.574   3.850 -0.7673 -0.0630  0.0402
20158TIP3    H181965   1.366   0.533   3.840 -0.8401  0.0018  0.3726
20158TIP3    H281966   1.451   0.609   3.940 -0.3429 -0.1824  0.0917
20159TIP3   OH281967   0.731   3.666   2.581 -0.0977 -0.0379  0.6483
20159TIP3    H181968   0.701   3.597   2.522 -0.4714  0.6380  0.0425
20159TIP3    H281969   0.785   3.722   2.526 -0.5070  0.6369  0.9287
20160TIP3   OH281970   5.760   2.718   1.194 -0.1783 -0.0132 -0.6397
20160TIP3    H181971   5.763   2.704   1.288  0.0301  0.6807 -0.5405
20160TIP3    H281972   5.829   2.782   1.177 -0.0113 -0.3650 -1.3018
20161TIP3   OH281973   2.505   4.172  16.863 -0.0246  0.2896  0.0320
20161TIP3    H181974   2.522   4.200  16.953 -0.6731 -0.4427  0.3913
20161TIP3    H281975   2.409   4.169  16.857  0.0061 -2.8403  0.3389
20162TIP3   OH281976   1.889   5.946  11.597 -0.0632 -0.0040  0.3492
20162TIP3    H181977   1.897   5.865  11.648 -0.1532 -1.3134 -1.6684
20162TIP3    H281978   1.822   5.997  11.643  2.0624  0.2493  3.3212
20163TIP3   OH281979   3.664   1.677   1.235 -0.2775 -0.0235 -0.1945
20163TIP3    H181980   3.665   1.697   1.142 -1.1284 -0.5144 -0.3173
20163TIP3    H281981   3.718   1.598   1.244  1.2724  1.0406 -0.0147
20164TIP3   OH281982   6.313   0.834   3.243 -0.0887  0.1431  0.1451
20164TIP3    H181983   6.257   0.842   3.320  1.3766 -1.4585  1.4223
20164TIP3    H281984   6.402   0.846   3.277  0.4692  1.0381 -1.5805
20165TIP3   OH281985   1.690   6.392   1.656  0.5630  0.1607 -0.1742
20165TIP3    H181986   1.607   6.380   1.702  0.0739  1.1206 -0.7937
20165TIP3    H281987   1.745   6.440   1.717 -0.4873  2.4802 -1.0155
20166TIP3   OH281988   3.499   2.017   6.310  0.0915  0.2199  0.3050
20166TIP3    H181989   3.437   2.000   6.381  0.9369 -0.2385  0.9345
20166TIP3    H281990   3.555   1.939   6.308  0.4471  0.4949 -0.4707
20167TIP3   OH281991   4.048   5.592   4.457  0.4891 -0.1185 -0.0624
20167TIP3    H181992   4.027   5.679   4.490 -0.4453  0.3605 -1.8645
20167TIP3    H281993   3.974   5.538   4.485 -1.4301  0.7642 -3.1607
20168TIP3   OH281994   5.142   0.568   5.688 -0.4142 -0.0245 -0.1792
20168TIP3    H181995   5.212   0.632   5.681 -0.1183 -0.5095 -1.9604
20168TIP3    H281996   5.064   0.619   5.710 -0.2133  0.9809 -1.7505
20169TIP3   OH281997   4.410   4.624  12.580  0.1288 -0.2629  0.3543
20169TIP3    H181998   4.367   4.569  12.646  1.6125 -2.8699 -0.7809
20169TIP3    H281999   4.390   4.582  12.496  4.3464 -1.3275 -0.2577
20170TIP3   OH282000   3.118   3.493  14.259 -0.5897 -0.1995 -0.1705
20170TIP3    H182001   3.168   3.498  14.177  0.7756 -1.3156  0.5930
20170TIP3    H282002   3.168   3.434  14.315 -2.8487 -1.4922  0.5408
20171TIP3   OH282003   2.952   3.579  13.127  0.0866  0.6087  0.1030
20171TIP3    H182004   2.897   3.629  13.187  5.1126  2.8115  3.2211
20171TIP3    H282005   3.022   3.639  13.103  2.1328 -2.5461 -2.2365
20172TIP3   OH282006   0.833   3.861   4.148  0.6175 -0.0692 -0.2630
20172TIP3    H182007   0.893   3.791   4.125  3.1356  2.3729 -1.3942
20172TIP3    H282008   0.838   3.922   4.074 -1.4341  1.3650  0.7316
20173TIP3   OH282009   5.169   3.247   5.314  0.2909  0.2594 -0.1442
20173TIP3    H182010   5.093   3.197   5.341 -0.4357  1.7943  0.7133
20173TIP3    H282011   5.141   3.339   5.318  1.9012  0.8019 -0.6649
20174TIP3   OH282012   3.407   0.069  13.482 -0.1915 -0.1784  0.6552
20174TIP3    H182013   3.321   0.030  13.465  0.4490 -1.9724  1.3844
20174TIP3    H282014   3.467  -0.006  13.484  1.1651  0.9122  1.5058
20175TIP3   OH282015   0.811   5.541   3.279  0.4973  0.1544  0.6449
20175TIP3    H182016   0.821   5.524   3.372 -1.2353  0.4910  0.9083
20175TIP3    H282017   0.836   5.633   3.268  0.1214  0.2811  0.8689
20176TIP3   OH282018   5.885   2.122  14.282  0.1714 -0.4692 -0.2307
20176TIP3    H182019   5.964   2.070  14.290  0.0848 -0.3816  1.5224
20176TIP3    H282020   5.910   2.208  14.316 -0.9744 -0.7765  1.4328
20177TIP3   OH282021   6.237   3.556  14.448 -0.0743  0.6685 -0.2492
20177TIP3    H182022   6.248   3.468  14.483  0.0266  1.3325  1.4169
20177TIP3    H282023   6.176   3.599  14.508  0.8132  2.1036 -0.3452
20178TIP3   OH282024   2.195   5.805  15.927  0.1926 -0.6707  0.0859
20178TIP3    H182025   2.270   5.863  15.911  0.3289 -0.7640  0.3793
20178TIP3    H282026   2.162   5.784  15.840  0.0165  0.0158 -0.0157
20179TIP3   OH282027   2.801   2.049   5.257  0.0961  0.0679 -0.0073
20179TIP3    H182028   2.884   2.049   5.304  0.2566 -1.8319 -0.2586
20179TIP3    H282029   2.738   2.013   5.319 -0.1937 -0.1290 -0.4141
20180TIP3   OH282030   3.771   3.372  14.199  0.6529  0.2109  0.1017
20180TIP3    H182031   3.777   3.281  14.228  1.2225 -0.0066 -0.7020
20180TIP3    H282032   3.683   3.381  14.164  0.8430 -0.2241 -0.4846
20181TIP3   OH282033   1.998   6.613   4.946 -0.1407  0.4329  0.3442
20181TIP3    H182034   2.005   6.705   4.919  0.5794  0.6974  1.3925
20181TIP3    H282035   2.017   6.563   4.868 -1.5794  1.1780 -0.5100
20182TIP3   OH282036   2.884   2.682   2.656 -0.3471  0.2410  0.1064
20182TIP3    H182037   2.942   2.654   2.585 -1.4511 -0.6925 -0.4435
20182TIP3    H282038   2.927   2.759   2.693  1.0931 -0.2719 -0.4733
20183TIP3   OH282039   5.303   4.952   1.609 -0.0189  0.5103  0.0386
20183TIP3    H182040   5.283   4.937   1.702  0.3821  1.5971  0.3018
20183TIP3    H282041   5.265   5.037   1.590  1.4770  1.1069 -0.3290
20184TIP3   OH282042   3.626   1.652  12.142 -0.1144 -0.6718 -0.1503
20184TIP3    H182043   3.664   1.674  12.227  0.6718 -2.5488  0.0026
20184TIP3    H282044   3.676   1.705  12.080 -2.1478  2.3735  0.7024
20185TIP3   OH282045   3.445   2.572  11.161  0.1512  0.0833  0.0156
20185TIP3    H182046   3.366   2.547  11.114 -0.0329  1.5617 -0.4698
20185TIP3    H282047   3.457   2.664  11.141  0.9982  0.3189  1.5529
20186TIP3   OH282048   5.212   4.721   4.208 -0.4312  0.3058  0.2111
20186TIP3    H182049   5.259   4.638   4.208 -1.7795 -0.4728  0.3096
20186TIP3    H282050   5.272   4.782   4.166  0.6524 -0.6705  0.3097
20187TIP3   OH282051   0.589   5.965  14.712  0.4234  0.4640 -0.0961
20187TIP3    H182052   0.647   5.961  14.788  0.2668  1.0362  0.0553
20187TIP3    H282053   0.519   6.025  14.739 -0.5135 -0.6039 -0.0900
20188TIP3   OH282054   2.047   1.891   5.601  0.0851  0.5265 -0.0142
20188TIP3    H182055   2.022   1.957   5.666  1.2050  0.6070  0.3332
20188TIP3    H282056   1.964   1.849   5.577 -0.5428  1.5780  0.2829
20189TIP3   OH282057   5.700   2.277   4.062  0.5683  0.3725  0.1402
20189TIP3    H182058   5.794   2.259   4.056  0.6744 -0.2331  2.8200
20189TIP3    H282059   5.693   2.346   4.127 -0.8016  0.9401 -0.6020
20190TIP3   OH282060   6.328   0.549  12.340  0.2660 -1.1515 -0.4675
20190TIP3    H182061   6.308   0.625  12.285 -1.4566 -1.0519  0.2540
20190TIP3    H282062   6.405   0.575  12.390  1.5631 -1.0658 -2.4759
20191TIP3   OH282063   3.488   6.503  13.088 -0.1027 -0.0908 -0.2461
20191TIP3    H182064   3.572   6.471  13.056  0.3312  1.2087 -0.4513
20191TIP3    H282065   3.470   6.451  13.166  0.6842 -0.6754 -0.4556
20192TIP3   OH282066   4.086   0.349   3.042 -0.0540 -0.6593  0.3684
20192TIP3    H182067   4.157   0.338   3.106  1.2727 -1.4085 -1.1690
20192TIP3    H282068   4.104   0.281   2.976 -0.9806  0.5465 -1.1437
20193TIP3   OH282069   4.946   1.358   4.507  0.4588  0.1700 -0.2499
20193TIP3    H182070   4.885   1.410   4.559  0.7470  2.2226 -1.9098
20193TIP3    H282071   4.930   1.384   4.416  2.0498 -1.1217 -0.9400
20194TIP3   OH282072   4.644   2.206   0.852 -0.4835 -0.1270 -0.2736
20194TIP3    H182073   4.551   2.216   0.875 -0.1117 -0.5866  1.5754
20194TIP3    H282074   4.675   2.295   0.836 -0.3445  0.4699  2.9529
20195TIP3   OH282075   0.342   1.947  15.264  0.0879  0.2408  0.3841
20195TIP3    H182076   0.410   1.961  15.331  0.7808 -0.5653 -0.1380
20195TIP3    H282077   0.328   2.033  15.225  1.3143  0.2918  0.0343
20196TIP3   OH282078   1.103   5.929  11.421  0.1647  0.0698 -0.2292
20196TIP3    H182079   1.145   5.843  11.417  0.4264  0.2701 -2.8258
20196TIP3    H282080   1.167   5.985  11.464  0.9711 -0.5070 -0.6710
20197TIP3   OH282081   0.287   4.808   5.064  0.6372 -0.1115 -0.2639
20197TIP3    H182082   0.372   4.850   5.079  0.3948  0.0146  0.7974
20197TIP3    H282083   0.287   4.786   4.971  0.9721  1.8032 -0.7286
20198TIP3   OH282084   1.261   5.025   2.993 -0.3354 -0.0136  0.0911
20198TIP3    H182085   1.251   5.115   2.961 -1.3769  0.1398  0.8189
20198TIP3    H282086   1.354   5.007   2.983 -0.1487  1.0676 -0.2730
20199TIP3   OH282087   3.599   6.252   4.333 -0.2958 -0.0808  0.6234
20199TIP3    H182088   3.656   6.303   4.392  0.6048 -1.2344  0.7648
20199TIP3    H282089   3.638   6.165   4.332 -0.0926  0.0208 -1.9889
20200TIP3   OH282090   5.774   4.460  13.773 -0.4706 -0.2929 -0.5141
20200TIP3    H182091   5.695   4.472  13.826  1.3534  2.9051  1.6809
20200TIP3    H282092   5.809   4.376  13.801 -1.7579 -0.5779  0.3013
20201TIP3   OH282093   6.806   0.612   6.376  0.0350  0.0740 -0.2895
20201TIP3    H182094   6.764   0.689   6.337  2.2420  0.6932 -1.5638
20201TIP3    H282095   6.852   0.645   6.453  1.4161  0.1664 -1.1292
20202TIP3   OH282096   1.814   6.190  14.855  0.2164  0.3338  0.8776
20202TIP3    H182097   1.865   6.270  14.844 -0.5685  0.8392  0.9465
20202TIP3    H282098   1.739   6.215  14.907  0.9018 -0.8340  2.4815
20203TIP3   OH282099   1.970   4.736  13.654 -0.8127  0.3518  0.1598
20203TIP3    H182100   2.060   4.763  13.638 -0.5015 -0.6984  0.1095
20203TIP3    H282101   1.940   4.702  13.570 -1.1246  0.3378  0.2760
20204TIP3   OH282102   3.794   2.285  12.942 -0.1279  0.0097  0.8968
20204TIP3    H182103   3.751   2.203  12.967 -0.6955  0.1353  0.3476
20204TIP3    H282104   3.887   2.269  12.958 -0.3369 -0.3856  1.7683
20205TIP3   OH282105   1.162   4.744  15.169 -0.4446 -0.9931  0.1014
20205TIP3    H182106   1.156   4.701  15.084 -0.6204  0.1788 -0.5008
20205TIP3    H282107   1.244   4.712  15.206  0.3392 -0.4748 -1.1225
20206TIP3   OH282108   1.445   3.179  13.271 -0.4827  0.2610  0.0822
20206TIP3    H182109   1.486   3.192  13.357 -0.8648 -0.5573  0.3991
20206TIP3    H282110   1.465   3.088  13.248  0.3307  0.7252 -1.0903
20207TIP3   OH282111   3.697   5.053  15.660  0.3876 -0.1947 -0.7411
20207TIP3    H182112   3.746   4.997  15.720 -1.8975  1.1041  2.4973
20207TIP3    H282113   3.702   5.140  15.699  0.0386  0.9865 -3.2403
20208TIP3   OH282114   5.738   6.293  15.677  0.3939 -0.5840  0.3850
20208TIP3    H182115   5.647   6.304  15.706 -0.1578 -0.2966 -1.3867
20208TIP3    H282116   5.734   6.221  15.615  1.1659  0.2606 -0.6547
20209TIP3   OH282117   1.325   3.025   3.801 -0.0908  0.2044  0.6189
20209TIP3    H182118   1.381   3.060   3.870 -1.4918  2.8114  0.5223
20209TIP3    H282119   1.385   2.978   3.743  1.3608 -0.5210  2.6531
20210TIP3   OH282120   4.844   1.390  16.036 -0.3428 -0.6387 -0.0133
20210TIP3    H182121   4.833   1.437  15.953 -2.3983  0.8451  1.0398
20210TIP3    H282122   4.826   1.298  16.014  0.3793 -0.4418 -1.4538
20211TIP3   OH282123   0.914   1.485   4.635  0.0242 -0.3079 -0.4243
20211TIP3    H182124   0.960   1.458   4.714 -0.3132  0.1681 -0.0584
20211TIP3    H282125   0.937   1.420   4.569  1.2964 -0.0159 -0.2782
20212TIP3   OH282126   3.215   2.675   1.440 -0.5173  0.1564 -0.2217
20212TIP3    H182127   3.149   2.613   1.472  1.4448 -1.0842  1.5857
20212TIP3    H282128   3.210   2.749   1.501  0.0056 -0.1196  0.1654
20213TIP3   OH282129   1.419   4.883  11.478 -0.1479  0.2542  0.2322
20213TIP3    H182130   1.329   4.849  11.479  0.4512 -1.4173 -0.4857
20213TIP3    H282131   1.427   4.932  11.560 -0.9701 -1.6141  1.4726
20214TIP3   OH282132   5.925   5.487  12.782  0.1107 -0.7713  0.0905
20214TIP3    H182133   5.859   5.494  12.851  0.5555  1.8760  0.3369
20214TIP3    H282134   5.889   5.537  12.709  1.2035 -0.5231 -0.2885
20215TIP3   OH282135   0.418   0.149   6.614 -0.1798 -0.4571 -0.1285
20215TIP3    H182136   0.507   0.146   6.578 -0.9196 -0.0644 -2.0532
20215TIP3    H282137   0.397   0.242   6.617 -1.2907 -0.6430 -1.6674
20216TIP3   OH282138   4.254   2.733  13.572 -0.1076  0.0918  0.0364
20216TIP3    H182139   4.167   2.752  13.539 -0.2132 -1.1518 -0.3978
20216TIP3    H282140   4.244   2.735  13.667 -1.1011 -2.2482  0.0035
20217TIP3   OH282141   4.523   0.325  13.930 -0.6475  0.2235  0.5481
20217TIP3    H182142   4.540   0.392  13.996 -2.0114 -0.2776  1.4579
20217TIP3    H282143   4.538   0.242  13.977  1.5218 -0.1071 -0.6989
20218TIP3   OH282144   1.031   4.347   1.999 -0.2692 -0.8950  0.4509
20218TIP3    H182145   1.112   4.394   1.978 -0.3877 -1.7576 -2.2242
20218TIP3    H282146   1.061   4.263   2.035  0.1458 -2.0084 -2.3283
20219TIP3   OH282147   3.157   3.701  16.250 -0.6231 -0.7313 -0.4078
20219TIP3    H182148   3.224   3.653  16.201 -0.5733 -0.9727 -0.1082
20219TIP3    H282149   3.083   3.641  16.255  0.4753 -1.9856  2.5203
20220TIP3   OH282150   5.724   2.883   2.797  0.2400  0.2432  0.2816
20220TIP3    H182151   5.694   2.923   2.878 -0.2579  1.0731 -0.3052
20220TIP3    H282152   5.700   2.946   2.728  1.6874  0.0902 -0.3881
20221TIP3   OH282153   0.562   0.669   2.317  0.4170 -0.3775  0.5082
20221TIP3    H182154   0.536   0.732   2.384  1.0237  0.2031  0.2127
20221TIP3    H282155   0.513   0.695   2.239 -2.2736 -2.6138  1.3520
20222TIP3   OH282156   4.867   1.495   6.301 -0.3133  0.0883  0.1633
20222TIP3    H182157   4.818   1.480   6.220 -0.2987 -0.1123  0.1907
20222TIP3    H282158   4.833   1.429   6.362  1.8543 -1.8184 -0.6091
20223TIP3   OH282159   3.536   6.005   3.207 -0.2672 -0.3061  0.3862
20223TIP3    H182160   3.545   6.053   3.289 -0.4189  0.4042 -0.0144
20223TIP3    H282161   3.442   5.989   3.199 -0.3843  0.6849 -0.2547
20224TIP3   OH282162   2.626   3.927  12.477  0.3681  0.0152  0.0482
20224TIP3    H182163   2.676   3.944  12.397  0.9528  0.8211  0.5781
20224TIP3    H282164   2.583   4.010  12.497 -0.9884 -0.5950 -0.2539
20225TIP3   OH282165   3.772   3.533  14.780  0.2962  0.0228 -0.0458
20225TIP3    H182166   3.829   3.460  14.755 -1.6788 -1.3036 -0.7739
20225TIP3    H282167   3.716   3.497  14.849 -1.2779  0.5874 -1.0168
20226TIP3   OH282168   3.573   0.191  15.708  0.2120  0.0444 -0.1224
20226TIP3    H182169   3.609   0.261  15.654  0.7872 -1.3213 -1.5712
20226TIP3    H282170   3.648   0.156  15.756  0.0870 -0.1480 -0.0650
20227TIP3   OH282171   1.754   4.696   5.354 -0.1081  0.3143  0.3532
20227TIP3    H182172   1.702   4.618   5.373  1.4168 -1.1425 -1.2135
20227TIP3    H282173   1.752   4.704   5.258  2.5112  0.1962  0.2305
20228TIP3   OH282174   4.331   4.444   1.631 -0.3265  0.1916 -0.0288
20228TIP3    H182175   4.256   4.457   1.573 -1.5380  2.7541  1.9973
20228TIP3    H282176   4.386   4.521   1.617 -0.4241  0.6331  1.8359
20229TIP3   OH282177   6.448   4.986   0.191  0.3531  0.2143  1.1518
20229TIP3    H182178   6.457   4.890   0.188  0.9904  0.3039 -0.6218
20229TIP3    H282179   6.424   5.010   0.102 -2.2371  1.5043  2.1647
20230TIP3   OH282180   3.512   6.280  11.280 -0.3887  0.2113 -0.2846
20230TIP3    H182181   3.458   6.209  11.315 -0.4093  0.7717  0.8664
20230TIP3    H282182   3.450   6.347  11.253 -0.3293  0.2861 -0.2384
20231TIP3   OH282183   5.137   5.508  14.904  0.3472  0.5221  1.2003
20231TIP3    H182184   5.177   5.594  14.891  0.4754  0.9486  4.1697
20231TIP3    H282185   5.198   5.461  14.960  1.2186 -2.2721 -1.9321
20232TIP3   OH282186   1.394   1.065  12.480  0.7974 -0.3991  0.1906
20232TIP3    H182187   1.394   0.970  12.469  1.9106 -0.2001 -1.7584
20232TIP3    H282188   1.457   1.097  12.414 -0.4007  1.7676  0.0521
20233CLA    CLA82189   5.000   3.339   3.053  0.1560  0.0416 -0.0233
20234LIG      S82190   3.136   2.941  16.141 -0.0538 -0.4850  0.4283
20234LIG     O182191   3.510   3.298  16.011  0.1155  0.6511  0.1498
20234LIG     O282192   3.354   3.195  16.235 -0.9036 -0.2945 -0.1052
20234LIG     O382193   2.887   3.265  16.562  0.5733  0.5264 -0.8446
20234LIG     O482194   2.756   3.259  16.298  0.4735  0.8534 -0.3152
20234LIG      N82195   3.947   3.010  16.125  0.0443 -0.1006  0.8421
20234LIG     C182196   3.667   3.122  16.087  0.4211  0.0340 -0.1843
20234LIG     C282197   3.828   2.933  16.176  0.3807  0.4290 -0.3087
20234LIG     C382198   3.916   3.162  16.116  0.3552 -0.2617  0.0557
20234LIG     C482199   3.703   2.972  16.093 -0.2541 -0.5740 -0.0494
20234LIG     C582200   3.790   3.205  16.038 -0.1048  0.4354  1.4353
20234LIG     C682201   4.074   2.991  16.203  0.6802  0.0700 -0.4485
20234LIG     C782202   3.542   3.157  16.004 -0.0088 -0.0908  0.0169
20234LIG     C882203   3.973   2.962  15.983  0.3024  0.1007 -0.2194
20234LIG     C982204   3.413   3.072  16.029  0.1660  0.1138  0.3110
20234LIG    C1082205   4.042   3.004  16.348  0.2159 -0.3397  0.8109
20234LIG    C1182206   3.354   3.090  16.168  0.1002 -0.2133  0.4254
20234LIG    C1282207   3.297   2.956  16.222  0.2365 -0.4830 -0.1000
20234LIG    C1382208   4.040   3.125  16.418  0.4912 -0.3178  0.5802
20234LIG    C1482209   4.014   2.889  16.423  0.0063 -0.9138  0.1565
20234LIG    C1582210   3.243   2.966  16.362 -0.3678 -0.4488 -0.4934
20234LIG    C1682211   3.126   3.054  16.372  0.5140  0.1496 -0.2929
20234LIG    C1782212   4.008   3.125  16.551  0.1929 -0.5239 -0.2630
20234LIG    C1882213   3.993   2.887  16.560  0.2462 -0.7239 -0.7653
20234LIG    C1982214   3.060   3.057  16.246  0.3647  0.7752  0.5540
20234LIG    C2082215   3.994   3.009  16.626 -0.3835 -0.4512  0.1777
20234LIG    C2182216   3.071   3.130  16.475 -0.1531 -0.5498 -1.1422
20234LIG    C2282217   2.941   3.122  16.217 -0.0026  0.4676  0.3148
20234LIG    C2382218   2.948   3.198  16.452  0.1655  0.6759  0.3909
20234LIG    C2482219   2.880   3.191  16.324 -0.5281  0.1610 -0.5546
20234LIG    C2582220   2.868   3.180  16.676 -0.0668 -0.3890 -0.6003
20234LIG    C2682221   2.685   3.201  16.179  0.2377  0.0984 -0.6104
20234LIG     H182222   3.656   3.154  16.193  0.3589  0.6869 -0.3835
20234LIG     H282223   3.831   2.950  16.283  0.0298 -2.7223  0.2579
20234LIG     H382224   3.857   2.831  16.153  1.4902  0.6703 -0.0111
20234LIG     H482225   3.994   3.221  16.071  1.2866  1.7301  3.9977
20234LIG     H582226   3.912   3.200  16.217 -1.0962 -0.8127  0.2172
20234LIG     H682227   3.714   2.941  15.987  1.9170  0.5231 -0.1637
20234LIG     H782228   3.622   2.903  16.127 -1.5935  1.0535  0.1687
20234LIG     H882229   3.775   3.313  16.062  1.2072  0.9637 -0.0459
20234LIG     H982230   3.802   3.183  15.930 -3.0859 -1.5030  1.4537
20234LIG    H1082231   4.144   3.065  16.166  1.1405 -0.0164  0.2493
20234LIG    H1182232   4.109   2.891  16.179 -1.0192 -0.2471 -1.7771
20234LIG    H1282233   3.586   3.128  15.906  1.5495  0.3251  0.5882
20234LIG    H1382234   4.062   3.009  15.944  0.1980  0.6036  0.1478
20234LIG    H1482235   3.892   2.979  15.914 -1.4145  1.1250  2.0012
20234LIG    H1582236   3.998   2.857  15.982 -1.1654 -0.2611 -1.1151
20234LIG    H1682237   3.427   2.964  16.010  0.0856  0.0233  0.7701
20234LIG    H1782238   3.333   3.109  15.961  1.2043  0.9878 -0.4654
20234LIG    H1882239   3.467   3.296  16.097  0.5892  0.1066  0.3788
20234LIG    H1982240   3.362   2.870  16.200 -2.7161 -3.1763  1.2629
20234LIG    H2082241   4.035   3.222  16.370 -2.6598 -0.0518  1.3664
20234LIG    H2182242   4.016   2.792  16.375  0.6227 -0.8203 -0.0230
20234LIG    H2282243   3.322   2.984  16.437 -1.3620 -0.0545  0.4711
20234LIG    H2382244   3.211   2.869  16.402 -0.7195 -0.6182 -1.1949
20234LIG    H2482245   4.012   3.218  16.604  1.5910  0.0710 -1.3889
20234LIG    H2582246   3.986   2.794  16.614  0.3628 -1.1241 -1.4404
20234LIG    H2682247   3.974   3.023  16.731  0.1449 -1.0973  0.3716
20234LIG    H2782248   3.121   3.136  16.570 -0.0952 -1.7084 -1.0968
20234LIG    H2882249   2.894   3.108  16.121  0.2273  0.4416  0.2036
20234LIG    H2982250   2.845   3.259  16.751  1.0139  1.7160 -2.4036
20234LIG    H3082251   2.962   3.137  16.718 -0.7841 -1.0904  0.2781
20234LIG    H3182252   2.782   3.113  16.655  0.1818 -0.9004 -0.0031
20234LIG    H3282253   2.722   3.239  16.081  1.9053 -2.0058 -0.8236
20234LIG    H3382254   2.582   3.243  16.172 -0.3594 -1.6266 -2.8297
20234LIG    H3482255   2.685   3.090  16.182  0.4034  0.0113 -3.1185
   6.82013   6.82013  17.29240
